Title
82296
    1SAPS     N    1   5.490   1.261  10.869  0.3447  0.3552 -0.4600
    1SAPS   HN1    2   5.561   1.332  10.841 -1.8668  2.2290 -1.6311
    1SAPS   HN2    3   5.518   1.161  10.855 -2.5179 -0.8386  1.4660
    1SAPS   HN3    4   5.407   1.277  10.808 -1.5960  1.7142  2.3558
    1SAPS   C12    5   5.456   1.279  11.010  0.2302 -0.8862 -0.2106
    1SAPS  H12A    6   5.366   1.222  11.025 -0.3246  0.2414  0.9197
    1SAPS   C13    7   5.564   1.237  11.111  0.1083  0.0943  0.8150
    1SAPS  O13A    8   5.675   1.218  11.056  0.1208 -0.8909 -0.1545
    1SAPS  O13B    9   5.555   1.269  11.232  0.4285  0.0144  0.0211
    1SAPS   C11   10   5.425   1.429  11.040 -1.1079  0.0553 -0.4752
    1SAPS  H11A   11   5.522   1.477  11.016 -0.1589 -1.0401  0.9826
    1SAPS  H11B   12   5.410   1.449  11.148  2.0149 -0.8017  0.2172
    1SAPS     P   13   5.267   1.633  10.998 -0.1907  0.2973 -0.1366
    1SAPS   O13   14   5.241   1.639  11.144 -0.5916 -0.3919  1.0129
    1SAPS   O14   15   5.351   1.740  10.936  0.4429  0.1621 -0.0502
    1SAPS   O12   16   5.324   1.489  10.964 -0.2527  0.2544 -0.0876
    1SAPS   O11   17   5.122   1.628  10.932 -0.1913  0.5979  0.1994
    1SAPS    C1   18   5.106   1.670  10.794 -0.2682  0.1695  0.5187
    1SAPS    HA   19   5.002   1.705  10.777  0.0447  0.9814  0.1896
    1SAPS    HB   20   5.169   1.761  10.779  0.7368 -0.8871 -2.4717
    1SAPS    C2   21   5.138   1.564  10.683 -0.3432  0.5111 -0.5445
    1SAPS    HS   22   5.248   1.545  10.690 -0.4553 -0.2458 -0.7418
    1SAPS   O21   23   5.114   1.621  10.551  0.3561  0.7012 -0.4651
    1SAPS   C21   24   5.201   1.717  10.519  0.2890  0.0722 -0.7999
    1SAPS   O22   25   5.287   1.757  10.596 -0.2475 -0.7647 -0.3087
    1SAPS   C22   26   5.160   1.773  10.386  0.1865  0.2940 -0.2736
    1SAPS   H2R   27   5.102   1.866  10.401 -0.5959  0.1799 -2.2977
    1SAPS   H2S   28   5.246   1.800  10.320 -0.0790  0.7144 -0.4536
    1SAPS    C3   29   5.053   1.435  10.720 -0.2439  0.0814  0.3100
    1SAPS    HX   30   4.954   1.482  10.740  1.3769  3.5391  0.9202
    1SAPS    HY   31   5.095   1.410  10.819 -0.2005 -0.5207  0.1420
    1SAPS   O31   32   5.072   1.331  10.623 -0.3161  1.1626 -0.0212
    1SAPS   C31   33   4.958   1.298  10.566 -0.1554 -0.8259  0.1039
    1SAPS   O32   34   4.846   1.329  10.605  0.0392  0.5083  0.8147
    1SAPS   C32   35   4.981   1.232  10.428  0.5428 -0.1357 -0.0015
    1SAPS   H2X   36   4.881   1.190  10.405 -0.1358  0.6087  1.4960
    1SAPS   H2Y   37   5.052   1.149  10.448  0.7426 -0.7045 -2.7013
    1SAPS   C23   38   5.069   1.679  10.292 -0.1321 -0.0541 -0.2494
    1SAPS   H3R   39   4.979   1.649  10.350 -1.2510  1.3485 -1.2209
    1SAPS   H3S   40   5.130   1.590  10.267 -2.2907 -1.6735 -0.0459
    1SAPS   C24   41   5.033   1.749  10.164  0.6822 -0.4521  0.4129
    1SAPS   H4R   42   4.984   1.845  10.192  1.7589  0.8042 -1.8052
    1SAPS   H4S   43   4.954   1.680  10.126  2.4220 -2.2413 -0.1099
    1SAPS   C25   44   5.143   1.768  10.064 -0.2401  0.1391 -0.5414
    1SAPS   H5R   45   5.226   1.831  10.097 -2.2928  2.4114  0.5675
    1SAPS   C26   46   5.145   1.730   9.937  0.4068  0.2155 -0.6513
    1SAPS   H6R   47   5.238   1.742   9.880  0.0121 -3.0203 -2.2421
    1SAPS   C27   48   5.033   1.662   9.862  0.4636 -0.3736 -0.2763
    1SAPS   H7R   49   4.956   1.612   9.924 -0.7355  0.7234 -0.8489
    1SAPS   H7S   50   5.078   1.575   9.809  0.6141 -1.0485  0.9165
    1SAPS   C28   51   4.963   1.767   9.772 -0.1895 -0.2221  0.5360
    1SAPS   H8R   52   4.909   1.849   9.822  0.3418  1.3294 -1.2837
    1SAPS   C29   53   4.950   1.761   9.637  0.4320 -0.0190 -0.1767
    1SAPS   H9R   54   4.882   1.824   9.579 -0.3600 -2.2186 -1.8180
    1SAPS  C210   55   4.997   1.650   9.542 -0.3568  0.9095 -0.0124
    1SAPS  H10R   56   4.925   1.633   9.459 -0.1160 -2.3234  0.3112
    1SAPS  H10S   57   5.017   1.554   9.593  0.6506  0.7899 -0.6130
    1SAPS  C211   58   5.135   1.681   9.493 -0.1792  0.4294 -0.4871
    1SAPS  H11R   59   5.215   1.666   9.567 -0.5270 -3.0731 -0.6257
    1SAPS  C212   60   5.176   1.715   9.370  0.2940  0.8068 -0.3776
    1SAPS  H12R   61   5.284   1.732   9.357  0.4140  2.5129  2.0800
    1SAPS  C213   62   5.078   1.746   9.260 -0.4885  0.3244  0.3859
    1SAPS  H13R   63   4.973   1.734   9.292  0.1588 -1.6179  1.9410
    1SAPS  H13S   64   5.086   1.677   9.173 -1.6168 -0.8119  1.1535
    1SAPS  C214   65   5.097   1.888   9.209 -0.3486  0.1556 -0.6432
    1SAPS  H14R   66   5.048   1.965   9.269 -1.0531 -0.8348  0.0949
    1SAPS  C215   67   5.163   1.924   9.098  0.2452  0.0395  0.5497
    1SAPS  H15R   68   5.154   2.030   9.069 -0.6214 -0.4285 -0.9765
    1SAPS  C216   69   5.229   1.834   8.991  0.2870  0.2116  0.0703
    1SAPS  H16R   70   5.245   1.733   9.033 -1.1860  0.7829  2.1391
    1SAPS  H16S   71   5.329   1.868   8.956 -0.4250  2.5358  0.1497
    1SAPS  C217   72   5.131   1.817   8.868 -0.0496 -0.3684 -0.3323
    1SAPS  H17R   73   5.088   1.915   8.837  1.9121  1.0717  1.3068
    1SAPS  H17S   74   5.050   1.754   8.911 -1.5982  1.8961  0.2783
    1SAPS  C218   75   5.195   1.740   8.747  0.1602 -0.5114 -0.1214
    1SAPS  H18R   76   5.245   1.644   8.772  0.2546 -0.2786  0.6115
    1SAPS  H18S   77   5.286   1.794   8.716 -0.1947  0.5361  0.5810
    1SAPS  C219   78   5.098   1.737   8.623 -0.9641 -0.0438  0.3017
    1SAPS  H19R   79   5.162   1.710   8.536  0.1251  1.1708  0.7097
    1SAPS  H19S   80   5.070   1.843   8.609  0.4321  0.1053 -1.8638
    1SAPS  C220   81   4.972   1.652   8.647 -0.0541  0.4678 -0.0478
    1SAPS  H20R   82   4.998   1.544   8.655 -0.6399  0.2885 -0.5229
    1SAPS  H20S   83   4.908   1.672   8.559 -0.4513  1.5487  0.4668
    1SAPS  H20T   84   4.923   1.681   8.742 -0.6789 -0.9583  0.0822
    1SAPS   C33   85   5.040   1.306  10.310 -0.1283 -0.0809  0.2571
    1SAPS   H3X   86   5.133   1.345  10.357 -1.6080  1.2293  2.2520
    1SAPS   H3Y   87   4.978   1.394  10.280  1.9495  1.1426 -0.6674
    1SAPS   C34   88   5.080   1.216  10.197  0.8207 -0.1513  0.8889
    1SAPS   H4X   89   4.996   1.146  10.172  2.5925 -0.9913 -3.9065
    1SAPS   H4Y   90   5.171   1.155  10.213  0.1349 -1.1092  1.2164
    1SAPS   C35   91   5.109   1.308  10.071 -0.4433  0.1879  0.3910
    1SAPS   H5X   92   5.165   1.398  10.105  1.2331 -0.7078  0.1210
    1SAPS   H5Y   93   5.008   1.342  10.040  1.1097  3.0100 -2.1429
    1SAPS   C36   94   5.175   1.239   9.948  0.8950 -0.1537  0.0409
    1SAPS   H6X   95   5.126   1.139   9.949  0.1644  0.2028  0.3144
    1SAPS   H6Y   96   5.280   1.208   9.968  0.8631 -2.6169 -2.8114
    1SAPS   C37   97   5.133   1.295   9.806  0.5877 -0.3552  0.5516
    1SAPS   H7X   98   5.190   1.389   9.789 -0.8510  0.5932  0.7310
    1SAPS   H7Y   99   5.029   1.334   9.819  1.0883  0.4164  2.8195
    1SAPS   C38  100   5.151   1.201   9.686  0.4227 -0.1282 -0.5881
    1SAPS   H8X  101   5.097   1.106   9.706  0.0758  0.1377 -0.2416
    1SAPS   H8Y  102   5.260   1.179   9.680  1.1283  3.2961 -2.9832
    1SAPS   C39  103   5.104   1.266   9.555  0.3623  1.2852  0.2443
    1SAPS   H9X  104   5.163   1.357   9.530  1.7131  0.7719  1.3888
    1SAPS   H9Y  105   4.999   1.300   9.570  0.0096  0.4286 -0.2406
    1SAPS  C310  106   5.106   1.168   9.439 -0.5061 -0.7902  0.0901
    1SAPS  H10X  107   5.043   1.079   9.457  0.6489 -1.6356  0.0260
    1SAPS  H10Y  108   5.204   1.117   9.437  0.3555  0.7108  1.3389
    1SAPS  C311  109   5.082   1.235   9.301  0.7843  0.1300  0.1613
    1SAPS  H11X  110   5.115   1.165   9.222  2.6128 -0.2596  1.2134
    1SAPS  H11Y  111   5.147   1.324   9.286 -0.1824  0.8572  0.1678
    1SAPS  C312  112   4.940   1.274   9.270 -0.0696  0.4325  0.0865
    1SAPS  H12X  113   4.900   1.344   9.347 -1.3541  0.1720 -0.3205
    1SAPS  H12Y  114   4.873   1.186   9.260 -1.0795  1.0852  0.9554
    1SAPS  C313  115   4.936   1.345   9.130 -0.1201 -0.5939  0.1231
    1SAPS  H13X  116   5.006   1.430   9.138 -1.5994  0.5428  1.9048
    1SAPS  H13Y  117   4.840   1.395   9.105 -0.5461 -1.0501  0.8020
    1SAPS  C314  118   4.974   1.258   9.006 -0.2322  0.2952 -0.3507
    1SAPS  H14X  119   4.892   1.193   8.967  0.0283 -0.4029  0.2401
    1SAPS  H14Y  120   5.066   1.199   9.028  0.1481  1.1765  0.4790
    1SAPS  C315  121   5.015   1.333   8.878 -0.0894 -0.5598 -0.0196
    1SAPS  H15X  122   5.107   1.394   8.896 -0.4226  0.7893 -2.4564
    1SAPS  H15Y  123   4.933   1.406   8.860  0.2744  0.0973  0.8895
    1SAPS  C316  124   5.026   1.252   8.749 -0.3554 -0.0661  0.5102
    1SAPS  H16X  125   5.070   1.319   8.672  3.6763 -2.3433  0.5819
    1SAPS  H16Y  126   4.920   1.222   8.729 -0.1755 -1.1298  1.0487
    1SAPS  C317  127   5.100   1.117   8.765 -0.1464  0.9147  0.5158
    1SAPS  H17X  128   5.110   1.065   8.667 -0.3041  0.3469  0.7988
    1SAPS  H17Y  129   5.049   1.050   8.837 -0.3743 -2.0534 -2.2013
    1SAPS  C318  130   5.243   1.135   8.822  0.6139 -0.0853  0.0573
    1SAPS  H18X  131   5.241   1.224   8.887  0.5245 -0.2627  0.3003
    1SAPS  H18Y  132   5.306   1.175   8.740 -2.1409  1.9613 -1.2403
    1SAPS  H18Z  133   5.277   1.041   8.872  2.3094  0.9217  0.8721
    2SAPS     N  134   4.714   2.885  10.917 -0.4096  0.5917  0.0605
    2SAPS   HN1  135   4.732   2.864  11.017  0.1188 -0.1941 -0.1885
    2SAPS   HN2  136   4.780   2.958  10.882  0.3396  1.2429  2.5750
    2SAPS   HN3  137   4.619   2.921  10.895 -1.2753 -1.8657 -0.5814
    2SAPS   C12  138   4.701   2.751  10.853 -0.0470 -0.2525  0.3120
    2SAPS  H12A  139   4.742   2.761  10.754 -0.7150 -0.8232 -0.0227
    2SAPS   C13  140   4.782   2.645  10.930  0.1943 -0.1422 -0.5738
    2SAPS  O13A  141   4.871   2.672  11.012  0.2196 -0.7835 -0.7674
    2SAPS  O13B  142   4.764   2.529  10.893 -0.4858  0.6422 -0.0654
    2SAPS   C11  143   4.552   2.715  10.837 -0.3753  0.1879  0.2454
    2SAPS  H11A  144   4.507   2.676  10.931  1.7141 -1.0269  0.8010
    2SAPS  H11B  145   4.546   2.624  10.773 -0.5897 -0.9066  1.7735
    2SAPS     P  146   4.405   2.824  10.647  0.3321 -0.1669  0.2950
    2SAPS   O13  147   4.342   2.691  10.631 -0.1654  0.1496 -0.8026
    2SAPS   O14  148   4.329   2.949  10.633 -0.1571  0.0297  0.0518
    2SAPS   O12  149   4.471   2.822  10.791 -0.3630  0.3981 -0.1552
    2SAPS   O11  150   4.540   2.825  10.555  0.1044 -1.0057  0.3134
    2SAPS    C1  151   4.602   2.954  10.524 -0.5681  0.0434  0.4814
    2SAPS    HA  152   4.569   3.042  10.583  1.5041  0.7743  0.6068
    2SAPS    HB  153   4.712   2.939  10.528 -0.1410  1.7905 -2.2530
    2SAPS    C2  154   4.565   3.000  10.384 -0.0850  0.5261  0.7694
    2SAPS    HS  155   4.462   3.040  10.381  1.7755  6.1937 -1.1456
    2SAPS   O21  156   4.590   2.886  10.297  0.3739  0.2549 -0.2486
    2SAPS   C21  157   4.476   2.820  10.250 -0.3320  0.2349  0.2604
    2SAPS   O22  158   4.363   2.835  10.292  0.2043 -0.2079 -1.0807
    2SAPS   C22  159   4.524   2.760  10.115 -0.0109  0.0402 -0.3730
    2SAPS   H2R  160   4.490   2.837  10.042 -1.8142  0.4147  0.7695
    2SAPS   H2S  161   4.633   2.739  10.111  0.2376  1.3778 -1.2567
    2SAPS    C3  162   4.652   3.119  10.334 -0.7989  0.2117  0.0486
    2SAPS    HX  163   4.746   3.072  10.296 -2.5790 -1.9470 -2.0187
    2SAPS    HY  164   4.676   3.188  10.417 -0.9963  2.3247 -1.5767
    2SAPS   O31  165   4.589   3.188  10.234  0.2432 -0.7391  0.3852
    2SAPS   C31  166   4.492   3.283  10.259  0.2694  0.0925 -0.2808
    2SAPS   O32  167   4.452   3.307  10.371 -0.0476 -0.3026 -0.0095
    2SAPS   C32  168   4.447   3.353  10.131  0.0318  0.1677  0.1107
    2SAPS   H2X  169   4.512   3.443  10.127 -0.9409  0.8452 -1.9199
    2SAPS   H2Y  170   4.339   3.378  10.132 -0.5579 -1.7198 -2.9848
    2SAPS   C23  171   4.448   2.633  10.082 -0.0708 -0.0843 -0.0309
    2SAPS   H3R  172   4.346   2.661  10.047 -1.7075 -2.1355  2.7048
    2SAPS   H3S  173   4.435   2.577  10.177  0.0491  0.0289  0.0532
    2SAPS   C24  174   4.535   2.536   9.996  0.1190  0.3631  0.4338
    2SAPS   H4R  175   4.604   2.502  10.076  1.8915  0.2561 -1.0574
    2SAPS   H4S  176   4.596   2.593   9.922 -0.0061 -2.1385 -1.7460
    2SAPS   C25  177   4.464   2.411   9.942  0.0297  0.1057  0.3794
    2SAPS   H5R  178   4.419   2.338  10.011 -0.4193 -0.0475 -0.0724
    2SAPS   C26  179   4.469   2.375   9.812  0.9546 -0.2137 -0.5420
    2SAPS   H6R  180   4.412   2.284   9.786  0.1331  0.1781 -0.1455
    2SAPS   C27  181   4.535   2.444   9.697  0.5992 -0.2645 -0.2672
    2SAPS   H7R  182   4.570   2.365   9.627  1.3087  0.5447 -0.8486
    2SAPS   H7S  183   4.619   2.499   9.744 -1.6142  3.2846 -0.0832
    2SAPS   C28  184   4.468   2.557   9.623 -0.6134 -0.3220  0.0819
    2SAPS   H8R  185   4.372   2.596   9.661 -0.9383 -1.6110  0.6070
    2SAPS   C29  186   4.518   2.602   9.506 -1.3199 -0.1336 -0.1747
    2SAPS   H9R  187   4.468   2.681   9.448  0.2120  0.5977 -0.5677
    2SAPS  C210  188   4.634   2.546   9.417  0.2525  0.9942  0.1279
    2SAPS  H10R  189   4.718   2.498   9.472 -0.1719  0.5240  0.3728
    2SAPS  H10S  190   4.677   2.630   9.358 -1.1673  1.7156  0.0898
    2SAPS  C211  191   4.576   2.442   9.324  0.5698  0.3311 -0.2729
    2SAPS  H11R  192   4.493   2.382   9.363  1.8863 -0.3780  1.5525
    2SAPS  C212  193   4.619   2.417   9.202 -0.4923  0.6331 -0.1334
    2SAPS  H12R  194   4.581   2.328   9.148  1.4021 -0.5005  0.3087
    2SAPS  C213  195   4.730   2.488   9.129  1.2031  0.8214 -0.9013
    2SAPS  H13R  196   4.775   2.573   9.184  0.0979  0.1613  1.1375
    2SAPS  H13S  197   4.692   2.529   9.033  1.2723  0.1060 -1.2428
    2SAPS  C214  198   4.848   2.405   9.101 -0.7097 -0.0042  0.5665
    2SAPS  H14R  199   4.844   2.305   9.147  1.4090 -0.5645 -0.3541
    2SAPS  C215  200   4.963   2.444   9.039  0.8329  0.2258  0.3234
    2SAPS  H15R  201   5.044   2.374   9.016  1.1018  1.4377 -2.8298
    2SAPS  C216  202   4.991   2.576   8.970 -0.2702  0.6638 -0.0114
    2SAPS  H16R  203   5.078   2.627   9.017 -1.6668  1.9861  1.2518
    2SAPS  H16S  204   4.906   2.648   8.973 -0.5507  0.3255  0.1879
    2SAPS  C217  205   4.993   2.545   8.818 -0.0694 -0.2430 -0.2772
    2SAPS  H17R  206   5.059   2.459   8.791  0.4739  0.6122 -1.7822
    2SAPS  H17S  207   5.046   2.628   8.766 -1.6861  0.0880 -1.4509
    2SAPS  C218  208   4.849   2.542   8.766  0.2137 -0.0314  0.4401
    2SAPS  H18R  209   4.799   2.640   8.775  2.0146  0.9378  0.4751
    2SAPS  H18S  210   4.795   2.467   8.827  2.1433 -0.5470  1.6158
    2SAPS  C219  211   4.849   2.511   8.616 -0.3723  0.1185  0.4401
    2SAPS  H19R  212   4.884   2.601   8.561  0.4434 -1.1961 -1.3066
    2SAPS  H19S  213   4.743   2.489   8.589 -0.5526 -1.7171  2.3538
    2SAPS  C220  214   4.928   2.390   8.569  0.0955  0.2900 -0.0564
    2SAPS  H20R  215   4.913   2.361   8.463  2.0294  0.1741 -0.3198
    2SAPS  H20S  216   4.896   2.306   8.635 -0.5799  0.1609 -0.5309
    2SAPS  H20T  217   5.036   2.406   8.587  0.0265 -0.3210  0.9940
    2SAPS   C33  218   4.471   3.285   9.997  0.2409 -0.0835  0.5808
    2SAPS   H3X  219   4.579   3.268   9.976  0.5961  0.1154  2.1421
    2SAPS   H3Y  220   4.438   3.365   9.927  1.2399  0.4984  0.7443
    2SAPS   C34  221   4.409   3.144   9.976  0.6442  0.0897 -0.0950
    2SAPS   H4X  222   4.298   3.140   9.968  0.6104 -2.7286  0.7718
    2SAPS   H4Y  223   4.441   3.085  10.064 -2.8641 -1.4040  0.3150
    2SAPS   C35  224   4.467   3.076   9.855  0.1639 -0.0398 -0.3919
    2SAPS   H5X  225   4.445   2.967   9.866  1.9320 -0.2995  1.3665
    2SAPS   H5Y  226   4.577   3.080   9.872 -0.2444 -1.5327  3.9328
    2SAPS   C36  227   4.423   3.146   9.727  0.4626  0.0659 -0.2491
    2SAPS   H6X  228   4.461   3.250   9.733  2.0595 -0.3325 -2.3284
    2SAPS   H6Y  229   4.314   3.136   9.712  0.1331  1.9813  0.5145
    2SAPS   C37  230   4.496   3.082   9.608  0.0568 -0.4115  0.0075
    2SAPS   H7X  231   4.470   2.974   9.619 -0.6867 -0.1046  1.6490
    2SAPS   H7Y  232   4.605   3.101   9.614 -0.2030  1.0896  0.4864
    2SAPS   C38  233   4.434   3.142   9.483 -0.2744 -1.1346  1.0088
    2SAPS   H8X  234   4.419   3.250   9.505  1.4577 -0.6975  0.2611
    2SAPS   H8Y  235   4.343   3.080   9.476 -0.4828 -0.9389  1.8687
    2SAPS   C39  236   4.517   3.142   9.351  0.3489 -0.1024  0.2526
    2SAPS   H9X  237   4.444   3.208   9.298 -2.1796 -2.9004 -0.0041
    2SAPS   H9Y  238   4.515   3.044   9.300 -1.2377  1.5935 -3.3629
    2SAPS  C310  239   4.654   3.210   9.351  0.5253  0.0247 -0.3219
    2SAPS  H10X  240   4.718   3.127   9.388 -0.8116 -1.4273 -1.1436
    2SAPS  H10Y  241   4.663   3.288   9.429 -1.7410 -1.4418  1.5754
    2SAPS  C311  242   4.704   3.239   9.212  0.1655  0.5759  0.9511
    2SAPS  H11X  243   4.687   3.145   9.156  1.7559  1.7165 -1.6479
    2SAPS  H11Y  244   4.813   3.260   9.214  0.2338  0.3394  0.0557
    2SAPS  C312  245   4.636   3.345   9.127  0.8471 -0.3501  0.2591
    2SAPS  H12X  246   4.609   3.440   9.178 -2.0706 -0.8414 -0.1446
    2SAPS  H12Y  247   4.547   3.300   9.077  0.0257  1.5950 -0.1288
    2SAPS  C313  248   4.730   3.389   9.015  0.4690 -0.5737  0.6158
    2SAPS  H13X  249   4.762   3.301   8.955  1.3586  0.2355 -0.1441
    2SAPS  H13Y  250   4.820   3.435   9.062  0.7190 -1.9762  1.5502
    2SAPS  C314  251   4.673   3.500   8.930  0.1566 -0.3512  0.3417
    2SAPS  H14X  252   4.660   3.593   8.989  0.8380  0.4839 -0.7850
    2SAPS  H14Y  253   4.572   3.467   8.898  0.6146  0.2365 -1.9321
    2SAPS  C315  254   4.754   3.517   8.800 -0.4101 -0.1616  0.6266
    2SAPS  H15X  255   4.859   3.534   8.830  0.1136  1.9332 -2.0222
    2SAPS  H15Y  256   4.725   3.606   8.740  0.7775 -0.9521 -1.2348
    2SAPS  C316  257   4.745   3.393   8.706 -0.4735  0.3232 -0.4782
    2SAPS  H16X  258   4.638   3.364   8.696  0.5941 -4.3223 -0.9164
    2SAPS  H16Y  259   4.795   3.305   8.752 -1.4539 -1.0171 -1.8599
    2SAPS  C317  260   4.806   3.396   8.557  0.1455 -0.9023 -0.0295
    2SAPS  H17X  261   4.917   3.396   8.562  0.0858  0.2637  2.5540
    2SAPS  H17Y  262   4.776   3.489   8.503 -0.4692 -0.7044  0.6411
    2SAPS  C318  263   4.754   3.277   8.466  0.3574 -0.1499 -1.1724
    2SAPS  H18X  264   4.738   3.194   8.539  0.4127  0.3773 -0.5493
    2SAPS  H18Y  265   4.822   3.261   8.380 -0.7368 -0.6219 -1.9793
    2SAPS  H18Z  266   4.659   3.319   8.426  1.9999  3.4035 -1.6660
    3SAPS     N  267   6.207   4.999  10.946 -0.0801 -0.2628 -0.5956
    3SAPS   HN1  268   6.230   5.058  10.864  0.6794 -0.2594 -0.3843
    3SAPS   HN2  269   6.292   4.979  11.002 -0.6949 -2.1141 -0.2594
    3SAPS   HN3  270   6.177   4.906  10.909  2.1047 -0.8031 -1.1422
    3SAPS   C12  271   6.092   5.047  11.034 -0.3159 -0.3681  0.8537
    3SAPS  H12A  272   6.086   4.980  11.118 -0.3776 -0.8636  0.4590
    3SAPS   C13  273   6.122   5.185  11.100  0.0375  0.5273  0.1406
    3SAPS  O13A  274   6.233   5.243  11.093 -0.2458  0.2796  0.2664
    3SAPS  O13B  275   6.031   5.229  11.174 -0.7127 -0.5299  0.4113
    3SAPS   C11  276   5.967   5.053  10.947  0.0069  0.4391 -0.3032
    3SAPS  H11A  277   5.986   5.113  10.856  0.0280  1.4244  0.3361
    3SAPS  H11B  278   5.891   5.104  11.010 -1.1609 -0.7218 -0.7208
    3SAPS     P  279   5.812   4.903  10.800  0.2699  0.3946 -0.4703
    3SAPS   O13  280   5.753   4.770  10.807 -0.1865  0.2727  0.2039
    3SAPS   O14  281   5.717   5.011  10.818  0.3012 -0.5395  0.0332
    3SAPS   O12  282   5.911   4.920  10.915 -0.5755 -0.1591  0.1651
    3SAPS   O11  283   5.897   4.909  10.679 -0.2018  0.1761  0.5727
    3SAPS    C1  284   6.022   4.847  10.648 -0.1907 -0.5306  0.0899
    3SAPS    HA  285   6.103   4.920  10.665 -0.1001  0.5061 -3.8855
    3SAPS    HB  286   6.031   4.752  10.706  1.1304 -0.0812  0.6372
    3SAPS    C2  287   6.020   4.809  10.499  0.5344 -0.1356 -0.5321
    3SAPS    HS  288   6.116   4.759  10.473  0.3999  0.9863 -3.5816
    3SAPS   O21  289   5.995   4.917  10.410 -0.2446 -0.4785 -0.6083
    3SAPS   C21  290   6.096   4.978  10.376  0.2974 -0.2365 -0.3842
    3SAPS   O22  291   6.207   4.978  10.425  0.5201  0.1510 -0.8733
    3SAPS   C22  292   6.048   5.060  10.254  0.2831 -0.5721 -0.0797
    3SAPS   H2R  293   5.995   4.998  10.178 -0.0656  0.3012 -0.5591
    3SAPS   H2S  294   5.983   5.140  10.294 -0.9857 -0.3543 -2.3890
    3SAPS    C3  295   5.904   4.711  10.485 -0.5754  0.4107  0.0518
    3SAPS    HX  296   5.812   4.767  10.513  0.2907  2.7215 -1.3834
    3SAPS    HY  297   5.929   4.635  10.562  0.4480  0.2876 -0.3867
    3SAPS   O31  298   5.872   4.649  10.357 -0.5882 -0.7932  0.2605
    3SAPS   C31  299   5.960   4.572  10.303  0.6678 -0.6235  0.1463
    3SAPS   O32  300   6.057   4.529  10.362  0.5699 -0.0856  0.2415
    3SAPS   C32  301   5.916   4.555  10.152  0.0996  0.0687 -0.8273
    3SAPS   H2X  302   5.805   4.556  10.160  0.1309  0.7397 -0.3968
    3SAPS   H2Y  303   5.965   4.457  10.131  2.1493  0.0728  3.1172
    3SAPS   C23  304   6.158   5.128  10.172 -0.1490  0.0081 -0.3096
    3SAPS   H3R  305   6.223   5.199  10.228 -1.9004  3.7412 -2.5918
    3SAPS   H3S  306   6.116   5.186  10.087  0.2334 -0.4649 -0.8313
    3SAPS   C24  307   6.250   5.026  10.100  0.4896 -0.0997 -0.5094
    3SAPS   H4R  308   6.207   4.987  10.006  0.0548  2.1258 -1.2786
    3SAPS   H4S  309   6.270   4.940  10.168  1.5767  0.3210 -0.2763
    3SAPS   C25  310   6.390   5.075  10.063 -0.2134 -0.1646 -0.4239
    3SAPS   H5R  311   6.459   5.083  10.149 -0.1787  4.1294 -0.6391
    3SAPS   C26  312   6.439   5.116   9.946 -0.4067 -0.4806 -0.0320
    3SAPS   H6R  313   6.546   5.141   9.933 -0.5627 -0.7361 -2.2406
    3SAPS   C27  314   6.360   5.121   9.814 -0.2994  0.0031 -0.2074
    3SAPS   H7R  315   6.251   5.139   9.825 -0.1965  0.8612 -0.4816
    3SAPS   H7S  316   6.378   5.026   9.759 -0.2855 -0.3881  0.4638
    3SAPS   C28  317   6.416   5.220   9.713 -0.4383  0.0164 -0.2792
    3SAPS   H8R  318   6.497   5.283   9.754 -0.3032  0.4193 -1.1433
    3SAPS   C29  319   6.393   5.221   9.577  0.1464 -0.0335  0.0437
    3SAPS   H9R  320   6.408   5.314   9.520 -1.0683  1.6971  2.4004
    3SAPS  C210  321   6.302   5.125   9.501  0.2186 -0.3550  0.4364
    3SAPS  H10R  322   6.218   5.189   9.465  2.4967  1.8576 -1.2943
    3SAPS  H10S  323   6.269   5.044   9.569  1.3928 -0.1191  1.3112
    3SAPS  C211  324   6.401   5.064   9.405 -0.2119  1.7118 -0.1365
    3SAPS  H11R  325   6.472   4.998   9.457 -2.8428  0.0514  1.5793
    3SAPS  C212  326   6.414   5.086   9.275 -0.3964 -0.6562  0.3859
    3SAPS  H12R  327   6.499   5.046   9.217  0.9287  0.6911  1.3345
    3SAPS  C213  328   6.332   5.178   9.191 -0.1640  0.4267  0.5252
    3SAPS  H13R  329   6.254   5.235   9.246  0.1159  0.3361  1.0243
    3SAPS  H13S  330   6.282   5.105   9.124  0.2312 -0.6912  1.4085
    3SAPS  C214  331   6.423   5.275   9.126 -0.6910 -0.3964  0.2946
    3SAPS  H14R  332   6.446   5.365   9.184 -1.3496 -0.2514  0.3458
    3SAPS  C215  333   6.454   5.280   8.990  0.3277 -0.2984  0.0257
    3SAPS  H15R  334   6.530   5.353   8.959  1.8598 -3.0356 -3.3547
    3SAPS  C216  335   6.407   5.192   8.885 -0.3106 -0.2741  0.4147
    3SAPS  H16R  336   6.310   5.154   8.924 -1.6319  2.2800 -0.1258
    3SAPS  H16S  337   6.481   5.112   8.866  0.3817  0.6158 -0.7731
    3SAPS  C217  338   6.380   5.276   8.756  0.1126 -0.0129 -0.4168
    3SAPS  H17R  339   6.348   5.199   8.684 -1.8677  1.0480 -0.7411
    3SAPS  H17S  340   6.466   5.335   8.718 -0.4477  1.3896  0.3997
    3SAPS  C218  341   6.265   5.378   8.762  0.4713  0.2218  0.4502
    3SAPS  H18R  342   6.288   5.441   8.850  2.4819 -0.9726  0.8443
    3SAPS  H18S  343   6.165   5.329   8.771  0.1511  0.5967 -0.8264
    3SAPS  C219  344   6.251   5.459   8.630 -0.3548 -0.1031 -0.3302
    3SAPS  H19R  345   6.348   5.512   8.620  0.0569 -0.7175  0.2931
    3SAPS  H19S  346   6.169   5.530   8.655 -0.3562 -0.9324  2.4681
    3SAPS  C220  347   6.218   5.384   8.498 -0.2807  0.1585  0.5573
    3SAPS  H20R  348   6.208   5.453   8.413  1.0698  1.0389  1.0713
    3SAPS  H20S  349   6.137   5.310   8.516 -1.2241  0.7448 -1.0666
    3SAPS  H20T  350   6.296   5.310   8.468 -1.6358 -0.4874 -1.5700
    3SAPS   C33  351   5.971   4.667  10.061 -0.3481 -0.8805 -1.0227
    3SAPS   H3X  352   5.950   4.765  10.108  1.6506 -1.0280  0.2729
    3SAPS   H3Y  353   5.909   4.656   9.969  1.6770  0.3474 -2.6186
    3SAPS   C34  354   6.116   4.656  10.024 -0.6885  0.0360  0.2082
    3SAPS   H4X  355   6.133   4.546  10.028  1.2645  0.3349  3.6435
    3SAPS   H4Y  356   6.192   4.690  10.097 -1.1497 -1.3969  1.3929
    3SAPS   C35  357   6.137   4.697   9.882 -0.5461 -0.2610 -0.3401
    3SAPS   H5X  358   6.082   4.790   9.857  0.4137  0.5834  0.5741
    3SAPS   H5Y  359   6.093   4.616   9.820  0.2749 -1.9683  1.2164
    3SAPS   C36  360   6.283   4.722   9.836  0.0937  0.1260  1.0594
    3SAPS   H6X  361   6.348   4.632   9.828  1.6263  1.3192 -0.4056
    3SAPS   H6Y  362   6.330   4.804   9.894  0.4086  0.8863 -0.2602
    3SAPS   C37  363   6.282   4.770   9.686  0.1996  0.2091 -0.2911
    3SAPS   H7X  364   6.375   4.823   9.655  0.7770 -0.7525 -0.2240
    3SAPS   H7Y  365   6.193   4.835   9.676 -0.5688 -0.9380 -1.0523
    3SAPS   C38  366   6.259   4.660   9.588  0.0179  0.9140  0.6639
    3SAPS   H8X  367   6.185   4.590   9.634  0.7163  0.2514  0.7931
    3SAPS   H8Y  368   6.349   4.596   9.573 -0.8256 -0.3042  0.6327
    3SAPS   C39  369   6.230   4.709   9.446 -0.0163  0.3754  0.1304
    3SAPS   H9X  370   6.233   4.621   9.379 -1.4686 -0.3933  1.0214
    3SAPS   H9Y  371   6.308   4.779   9.411 -0.3583  1.0241  0.6378
    3SAPS  C310  372   6.091   4.773   9.426 -0.1895 -0.3120  0.4611
    3SAPS  H10X  373   6.081   4.870   9.479  0.3672  0.9657 -1.6484
    3SAPS  H10Y  374   6.006   4.711   9.459  0.6827  0.2905  4.3597
    3SAPS  C311  375   6.079   4.824   9.282  0.5161 -0.7263 -0.2018
    3SAPS  H11X  376   6.054   4.733   9.224 -1.9604 -0.0722 -0.2675
    3SAPS  H11Y  377   6.171   4.870   9.239 -1.2003  2.5586 -0.6567
    3SAPS  C312  378   5.961   4.918   9.268 -0.5958  0.4706  0.1706
    3SAPS  H12X  379   5.975   5.013   9.324 -2.4324  1.6373 -1.2307
    3SAPS  H12Y  380   5.875   4.861   9.310  1.3568 -3.2089 -0.4312
    3SAPS  C313  381   5.923   4.958   9.127  0.6942  0.7627  0.1288
    3SAPS  H13X  382   5.847   5.039   9.129 -0.3067 -0.1163 -0.9160
    3SAPS  H13Y  383   5.898   4.865   9.072  1.9947  2.0297 -2.8293
    3SAPS  C314  384   6.041   5.030   9.056 -0.0984 -0.2652 -0.0610
    3SAPS  H14X  385   6.123   4.957   9.036 -1.2897 -1.7314  0.2209
    3SAPS  H14Y  386   6.076   5.108   9.126  2.2963 -0.9287 -0.4034
    3SAPS  C315  387   6.013   5.084   8.917  0.0946  0.6333  0.1237
    3SAPS  H15X  388   6.102   5.133   8.872 -0.7023  1.8327 -0.1873
    3SAPS  H15Y  389   5.936   5.162   8.936  1.1709  1.3537  1.8398
    3SAPS  C316  390   5.972   4.975   8.818  0.5943  0.1253 -0.2228
    3SAPS  H16X  391   5.892   4.907   8.853  0.8578 -0.6701 -1.1075
    3SAPS  H16Y  392   6.059   4.911   8.789 -0.6025 -0.8904 -1.7361
    3SAPS  C317  393   5.907   5.037   8.692 -0.3115  0.5037  0.1437
    3SAPS  H17X  394   5.976   5.099   8.631 -0.0044 -1.3970 -1.5759
    3SAPS  H17Y  395   5.820   5.096   8.727 -2.2938 -2.1968  0.0898
    3SAPS  C318  396   5.849   4.929   8.588 -0.5826 -0.4583 -0.1408
    3SAPS  H18X  397   5.785   4.984   8.516 -0.3243  1.8286  1.2680
    3SAPS  H18Y  398   5.787   4.854   8.642 -0.3829  0.8431  1.9977
    3SAPS  H18Z  399   5.939   4.885   8.540 -1.2090  0.0277 -1.8150
    4SAPS     N  400   0.796   5.202  10.729  0.3743  0.3517 -0.2617
    4SAPS   HN1  401   0.897   5.205  10.705  0.2539  0.4993 -0.7830
    4SAPS   HN2  402   0.768   5.147  10.812 -0.2247 -1.0057 -1.3442
    4SAPS   HN3  403   0.759   5.157  10.642 -1.6644 -3.4426  2.2996
    4SAPS   C12  404   0.757   5.342  10.742  0.4524  0.1689  0.0739
    4SAPS  H12A  405   0.651   5.337  10.722  0.2425 -0.9557  1.3227
    4SAPS   C13  406   0.775   5.412  10.872 -0.0143  0.2748  0.1040
    4SAPS  O13A  407   0.838   5.354  10.965 -0.1695  0.4958 -0.1486
    4SAPS  O13B  408   0.722   5.524  10.888 -0.1662 -0.0761  0.0432
    4SAPS   C11  409   0.830   5.436  10.634 -0.3968  0.0460  0.2269
    4SAPS  H11A  410   0.778   5.534  10.644  0.7856  0.6248  1.0085
    4SAPS  H11B  411   0.821   5.385  10.536 -2.5990  1.0587 -0.1510
    4SAPS     P  412   1.062   5.563  10.608 -0.3699 -0.0077 -0.1258
    4SAPS   O13  413   1.096   5.653  10.720 -0.5162  0.2608  0.3800
    4SAPS   O14  414   1.180   5.505  10.542 -0.1115  0.0564  0.0992
    4SAPS   O12  415   0.966   5.446  10.674  0.2106  0.3248  0.5419
    4SAPS   O11  416   0.982   5.644  10.489  0.0539 -0.1564 -0.4212
    4SAPS    C1  417   0.914   5.773  10.506  0.2002  0.6116  0.0044
    4SAPS    HA  418   0.878   5.771  10.611  0.9377  0.7123  0.2663
    4SAPS    HB  419   0.984   5.859  10.507  1.0609 -0.0663  1.8062
    4SAPS    C2  420   0.795   5.793  10.406 -0.4274 -0.1213 -0.1849
    4SAPS    HS  421   0.715   5.719  10.426 -2.2098  1.5111 -0.9314
    4SAPS   O21  422   0.841   5.775  10.268 -0.2328 -0.5037  0.1766
    4SAPS   C21  423   0.743   5.758  10.181  0.9231  0.0278  0.0022
    4SAPS   O22  424   0.623   5.738  10.202 -0.2829 -0.2863 -0.0653
    4SAPS   C22  425   0.809   5.753  10.045  0.2577 -0.0695  0.4664
    4SAPS   H2R  426   0.789   5.845   9.987  1.2406  0.1209  0.4195
    4SAPS   H2S  427   0.918   5.747  10.063  0.1996 -1.9762  0.3684
    4SAPS    C3  428   0.724   5.933  10.419 -0.3211  0.0958  0.1798
    4SAPS    HX  429   0.689   5.936  10.524  0.2446 -0.0315  0.3725
    4SAPS    HY  430   0.632   5.938  10.357 -1.2135 -1.6425  1.2714
    4SAPS   O31  431   0.815   6.037  10.397  0.2705  0.4308  0.1130
    4SAPS   C31  432   0.823   6.088  10.271 -0.1666 -0.0079 -0.4300
    4SAPS   O32  433   0.754   6.055  10.177 -0.2474  0.1579  0.4639
    4SAPS   C32  434   0.945   6.181  10.276  0.0637  0.0520  0.4023
    4SAPS   H2X  435   1.034   6.132  10.320  2.4618  1.9445 -2.0178
    4SAPS   H2Y  436   0.929   6.269  10.342 -1.6140 -0.4663  0.7490
    4SAPS   C23  437   0.767   5.639   9.951 -0.1202 -0.7041  0.3836
    4SAPS   H3R  438   0.765   5.541  10.003  2.2669 -1.1938 -0.3319
    4SAPS   H3S  439   0.834   5.621   9.865 -0.7536 -1.6380  0.0625
    4SAPS   C24  440   0.635   5.648   9.869 -0.6662 -0.7643  0.2172
    4SAPS   H4R  441   0.558   5.637   9.948 -1.8901  1.6129 -0.5434
    4SAPS   H4S  442   0.618   5.562   9.800 -2.0371  0.9637 -1.7114
    4SAPS   C25  443   0.615   5.778   9.789 -0.4113  0.0036 -0.6172
    4SAPS   H5R  444   0.569   5.862   9.843 -0.9127 -1.4573  1.3888
    4SAPS   C26  445   0.652   5.799   9.660 -0.0595 -0.6121 -1.5955
    4SAPS   H6R  446   0.619   5.891   9.611 -1.7845  2.1439  3.8586
    4SAPS   C27  447   0.712   5.703   9.566 -0.6978  0.3943  0.2545
    4SAPS   H7R  448   0.676   5.730   9.464 -2.6079 -1.8264  0.2505
    4SAPS   H7S  449   0.688   5.599   9.597  1.2022  0.7170  3.1656
    4SAPS   C28  450   0.863   5.712   9.584  0.3515 -0.2550  0.0568
    4SAPS   H8R  451   0.907   5.646   9.660  1.9144 -1.1167 -1.5367
    4SAPS   C29  452   0.939   5.800   9.516  0.5656 -0.4351  0.2503
    4SAPS   H9R  453   1.049   5.791   9.524  0.9588  2.9347 -0.1533
    4SAPS  C210  454   0.884   5.890   9.407  0.1211 -0.0327 -0.3404
    4SAPS  H10R  455   0.806   5.956   9.451 -0.4193  0.2975 -1.7404
    4SAPS  H10S  456   0.840   5.835   9.320 -3.2289 -0.5721  1.5040
    4SAPS  C211  457   0.987   5.985   9.354 -0.0051  0.2413 -0.7364
    4SAPS  H11R  458   1.064   6.018   9.425 -1.0140  1.9721 -0.3819
    4SAPS  C212  459   0.995   6.039   9.229  0.6551  0.6801  0.1412
    4SAPS  H12R  460   1.069   6.119   9.214  2.6081 -1.1762 -0.5198
    4SAPS  C213  461   0.901   6.000   9.120 -0.2350 -0.4618  0.1273
    4SAPS  H13R  462   0.893   6.081   9.044  2.8093  0.6107  0.8030
    4SAPS  H13S  463   0.797   5.988   9.158 -1.0239 -0.5588 -1.9168
    4SAPS  C214  464   0.942   5.873   9.058 -0.7072  0.1294  0.1267
    4SAPS  H14R  465   0.926   5.784   9.120 -2.2205  1.8437  2.3758
    4SAPS  C215  466   0.975   5.859   8.933 -0.0146  0.1881 -0.4800
    4SAPS  H15R  467   1.000   5.756   8.905 -1.8946 -0.2539 -0.6833
    4SAPS  C216  468   0.990   5.955   8.817 -0.5698  0.0021 -1.5335
    4SAPS  H16R  469   1.071   5.922   8.749  2.2045  0.7957  1.1719
    4SAPS  H16S  470   1.019   6.049   8.868  3.1394 -0.1901 -3.0415
    4SAPS  C217  471   0.872   5.988   8.727  0.3303 -0.1193  0.3317
    4SAPS  H17R  472   0.786   6.024   8.788 -1.9332 -1.8161 -1.6780
    4SAPS  H17S  473   0.833   5.895   8.681 -1.8735 -0.4105  2.5692
    4SAPS  C218  474   0.911   6.092   8.620 -0.2408  0.0641 -0.5375
    4SAPS  H18R  475   1.011   6.062   8.581 -0.8857 -1.7573 -0.8641
    4SAPS  H18S  476   0.917   6.187   8.677  1.3433 -1.2403  1.6456
    4SAPS  C219  477   0.818   6.098   8.499  0.1974 -0.1885  0.2345
    4SAPS  H19R  478   0.714   6.102   8.536  0.4173 -0.2912  0.8696
    4SAPS  H19S  479   0.836   6.002   8.445 -0.5964  0.2493 -0.8355
    4SAPS  C220  480   0.847   6.218   8.401  0.3689 -0.0878  0.6618
    4SAPS  H20R  481   0.792   6.214   8.305  3.8749 -0.9952 -1.4991
    4SAPS  H20S  482   0.956   6.213   8.379  0.5870  1.3935  1.2721
    4SAPS  H20T  483   0.822   6.317   8.446 -1.7500  0.2821 -1.1794
    4SAPS   C33  484   0.994   6.219  10.136  0.0676 -0.3138 -0.3739
    4SAPS   H3X  485   0.924   6.290  10.088  1.4236  1.3895  0.0788
    4SAPS   H3Y  486   0.992   6.133  10.065 -1.6019  0.8879 -1.8805
    4SAPS   C34  487   1.134   6.282  10.145  0.4559  0.2864 -0.2039
    4SAPS   H4X  488   1.197   6.195  10.173  1.7114  0.4676 -2.2745
    4SAPS   H4Y  489   1.129   6.354  10.230  0.2555 -0.4482  0.4187
    4SAPS   C35  490   1.194   6.339  10.020  0.4685 -0.3861  0.0085
    4SAPS   H5X  491   1.286   6.396  10.045  0.9432 -1.0354 -0.2271
    4SAPS   H5Y  492   1.134   6.421   9.975  1.7936  0.7239  0.1903
    4SAPS   C36  493   1.251   6.242   9.912 -0.8134 -0.0162 -0.3103
    4SAPS   H6X  494   1.168   6.173   9.883 -0.7359  0.1415 -0.9352
    4SAPS   H6Y  495   1.337   6.182   9.948 -0.8762 -0.1861 -0.4358
    4SAPS   C37  496   1.289   6.320   9.781  1.0543  0.4589 -0.3738
    4SAPS   H7X  497   1.377   6.269   9.736  2.0259  2.2371 -0.5666
    4SAPS   H7Y  498   1.325   6.421   9.810  1.5635 -0.5995  3.0769
    4SAPS   C38  499   1.170   6.334   9.679  0.5876  0.0256 -0.6487
    4SAPS   H8X  500   1.084   6.384   9.728 -0.0994 -1.9430  0.2577
    4SAPS   H8Y  501   1.133   6.232   9.653  1.9909 -0.9750  1.0744
    4SAPS   C39  502   1.223   6.390   9.543  0.1222 -0.0911 -0.3647
    4SAPS   H9X  503   1.304   6.316   9.525 -1.0328 -1.1702 -1.2872
    4SAPS   H9Y  504   1.259   6.494   9.558 -1.2720  0.3640 -0.1282
    4SAPS  C310  505   1.122   6.386   9.429  0.0633 -0.2007 -0.2922
    4SAPS  H10X  506   1.048   6.453   9.477 -0.1695 -0.4556 -0.2948
    4SAPS  H10Y  507   1.073   6.286   9.429  1.7333 -1.0679 -1.1749
    4SAPS  C311  508   1.167   6.424   9.291 -0.5395 -0.1064 -0.3563
    4SAPS  H11X  509   1.248   6.356   9.259 -0.5230  0.6833 -2.0847
    4SAPS  H11Y  510   1.223   6.520   9.303  1.7770 -1.6865  2.9676
    4SAPS  C312  511   1.047   6.433   9.199 -0.1956 -0.1871 -0.1629
    4SAPS  H12X  512   0.969   6.498   9.246  0.7881 -0.4471  1.9674
    4SAPS  H12Y  513   0.999   6.333   9.195 -1.3359  0.2867  0.7724
    4SAPS  C313  514   1.082   6.484   9.062  0.4593  0.2514  1.2710
    4SAPS  H13X  515   1.139   6.579   9.067 -0.6612  1.0747 -0.4734
    4SAPS  H13Y  516   0.990   6.519   9.011  2.1075 -0.6018 -2.6692
    4SAPS  C314  517   1.150   6.377   8.972 -0.1711 -0.2270  0.4693
    4SAPS  H14X  518   1.090   6.284   8.982  0.5732 -0.9143 -1.0515
    4SAPS  H14Y  519   1.252   6.355   9.009  0.7647 -1.3165 -2.5118
    4SAPS  C315  520   1.159   6.435   8.834  0.5369  0.7212 -0.2911
    4SAPS  H15X  521   1.228   6.522   8.843  1.6120 -0.3108  2.3987
    4SAPS  H15Y  522   1.055   6.465   8.810  0.6890  1.4536 -0.0376
    4SAPS  C316  523   1.210   6.336   8.727 -0.1120  0.9004 -0.3964
    4SAPS  H16X  524   1.162   6.391   8.644 -2.7240 -2.5153 -1.3848
    4SAPS  H16Y  525   1.166   6.235   8.743  4.9511 -1.3742  1.3387
    4SAPS  C317  526   1.356   6.336   8.711  0.0556 -0.0248 -0.0694
    4SAPS  H17X  527   1.408   6.324   8.808  2.2809  1.2783 -1.0239
    4SAPS  H17Y  528   1.383   6.441   8.684  0.3003 -0.0919 -0.0859
    4SAPS  C318  529   1.413   6.241   8.600 -0.4538 -0.0778 -0.3533
    4SAPS  H18X  530   1.340   6.248   8.516 -0.3278 -2.6227 -0.7484
    4SAPS  H18Y  531   1.413   6.135   8.633  1.0933 -0.1094 -0.3635
    4SAPS  H18Z  532   1.518   6.260   8.571 -0.4357 -0.7738 -0.7658
    5SAPS     N  533   5.720   4.620  11.034 -0.2545 -0.7535 -0.3366
    5SAPS   HN1  534   5.719   4.686  10.953  0.6899  1.6314  1.4889
    5SAPS   HN2  535   5.702   4.690  11.109  0.6117 -1.0403  0.1449
    5SAPS   HN3  536   5.817   4.584  11.043  0.2760  0.6574 -0.1263
    5SAPS   C12  537   5.620   4.509  11.033 -0.4255  0.4642 -0.4238
    5SAPS  H12A  538   5.645   4.459  10.941 -2.5535 -0.6265 -0.4836
    5SAPS   C13  539   5.641   4.419  11.158  0.3583  0.2479  0.2350
    5SAPS  O13A  540   5.708   4.459  11.255  0.4707 -0.8221 -0.0610
    5SAPS  O13B  541   5.598   4.300  11.156  0.0538 -0.0030  0.0510
    5SAPS   C11  542   5.469   4.544  11.026  0.0059  0.6764 -0.4716
    5SAPS  H11A  543   5.431   4.582  11.123 -0.3187 -1.1257  0.1498
    5SAPS  H11B  544   5.405   4.454  11.015 -1.5953  1.6003  0.7412
    5SAPS     P  545   5.338   4.617  10.809 -0.3517 -0.3222 -0.1823
    5SAPS   O13  546   5.228   4.529  10.855 -0.1888 -0.3133  0.8187
    5SAPS   O14  547   5.305   4.748  10.750  0.3892  0.0140 -0.2183
    5SAPS   O12  548   5.444   4.641  10.927 -0.0565  0.6298 -0.0103
    5SAPS   O11  549   5.420   4.531  10.701 -0.0461  0.2101  0.4975
    5SAPS    C1  550   5.337   4.489  10.590  0.4588 -0.1465  0.8081
    5SAPS    HA  551   5.331   4.379  10.579  1.6291 -0.1818  0.2876
    5SAPS    HB  552   5.232   4.522  10.600  0.4012 -0.6544  2.1049
    5SAPS    C2  553   5.379   4.539  10.443  0.8627  0.5125 -0.1324
    5SAPS    HS  554   5.466   4.475  10.416  0.0850 -0.7935  0.3411
    5SAPS   O21  555   5.405   4.677  10.459  0.5076 -0.4123  0.3711
    5SAPS   C21  556   5.510   4.718  10.388  0.4179 -0.5799  0.0302
    5SAPS   O22  557   5.581   4.655  10.311 -0.3537  0.6027  0.2180
    5SAPS   C22  558   5.537   4.863  10.430 -0.4744 -1.0355  0.4099
    5SAPS   H2R  559   5.449   4.932  10.424  0.2692 -0.1492 -0.8599
    5SAPS   H2S  560   5.575   4.867  10.534 -0.4797 -3.1531  0.5386
    5SAPS    C3  561   5.272   4.522  10.331  0.4843 -0.8157 -0.1509
    5SAPS    HX  562   5.188   4.589  10.359  2.7428  2.0374  0.2824
    5SAPS    HY  563   5.234   4.418  10.325 -2.3644  0.2061 -1.5944
    5SAPS   O31  564   5.316   4.563  10.199  0.6089  0.5858  0.0353
    5SAPS   C31  565   5.397   4.477  10.140 -0.3547 -0.3775 -0.2861
    5SAPS   O32  566   5.417   4.366  10.174  0.0044  0.2904 -0.3606
    5SAPS   C32  567   5.434   4.546  10.011 -0.4641 -0.1097 -0.0969
    5SAPS   H2X  568   5.424   4.655  10.028 -0.6652 -0.1527  0.0605
    5SAPS   H2Y  569   5.349   4.521   9.943 -1.6616 -0.7174  1.5550
    5SAPS   C23  570   5.640   4.929  10.334  0.0381 -0.2778 -0.0722
    5SAPS   H3R  571   5.605   4.942  10.230  0.4323  0.4323 -0.1241
    5SAPS   H3S  572   5.737   4.875  10.326  0.4104  0.1881  1.0964
    5SAPS   C24  573   5.670   5.079  10.376  0.3272  0.1505  0.5861
    5SAPS   H4R  574   5.775   5.099  10.344  1.1634 -1.0599  2.3728
    5SAPS   H4S  575   5.687   5.081  10.486  0.0605  0.7962  0.6186
    5SAPS   C25  576   5.561   5.165  10.318 -0.9851 -0.4859 -0.3821
    5SAPS   H5R  577   5.458   5.155  10.356 -1.0085  2.3915  0.6106
    5SAPS   C26  578   5.570   5.253  10.218 -0.0024 -0.2607  0.1730
    5SAPS   H6R  579   5.482   5.315  10.194 -0.0067 -0.5881 -0.6896
    5SAPS   C27  580   5.700   5.278  10.134  0.5273  0.0284 -0.5724
    5SAPS   H7R  581   5.672   5.316  10.033  3.6749  0.2617 -1.4634
    5SAPS   H7S  582   5.759   5.187  10.109  2.8095  1.3111 -0.1617
    5SAPS   C28  583   5.788   5.372  10.198  0.1413 -0.2381 -0.2893
    5SAPS   H8R  584   5.805   5.365  10.307  0.6106  1.3297 -0.2347
    5SAPS   C29  585   5.870   5.451  10.131 -0.2872 -0.3301  0.0762
    5SAPS   H9R  586   5.934   5.529  10.176  1.0449  0.6156 -3.1316
    5SAPS  C210  587   5.886   5.458   9.981  0.4701 -0.3935  0.2508
    5SAPS  H10R  588   5.787   5.488   9.939 -0.5472 -0.2187  2.6136
    5SAPS  H10S  589   5.907   5.359   9.937 -1.5839 -0.0740 -1.6416
    5SAPS  C211  590   5.994   5.557   9.948 -0.2668 -0.0928  0.0722
    5SAPS  H11R  591   6.026   5.623  10.030  0.2827 -0.1069 -0.1293
    5SAPS  C212  592   6.035   5.578   9.825 -0.0090  0.0230  0.4477
    5SAPS  H12R  593   6.116   5.651   9.809  1.4304 -1.9628 -1.9952
    5SAPS  C213  594   5.982   5.507   9.707 -0.5064 -0.3395  0.0573
    5SAPS  H13R  595   5.937   5.590   9.649  1.0446  1.3676  1.1775
    5SAPS  H13S  596   5.893   5.444   9.728 -1.6079  1.2312  0.3589
    5SAPS  C214  597   6.100   5.447   9.634  0.1052  0.1735 -0.1583
    5SAPS  H14R  598   6.162   5.380   9.694 -1.4628 -2.6141 -1.4696
    5SAPS  C215  599   6.128   5.454   9.500 -0.0423 -0.1406 -0.2632
    5SAPS  H15R  600   6.212   5.396   9.460 -0.8350 -2.5970  1.4105
    5SAPS  C216  601   6.053   5.542   9.402  0.0938  0.3861  0.0605
    5SAPS  H16R  602   6.099   5.642   9.395 -0.3138  0.5835  0.1835
    5SAPS  H16S  603   5.949   5.548   9.439  0.6000  1.1074  1.4502
    5SAPS  C217  604   6.051   5.467   9.263 -0.7892 -0.5036  0.0831
    5SAPS  H17R  605   6.020   5.361   9.273  0.5777 -0.9217  0.0506
    5SAPS  H17S  606   6.149   5.454   9.213 -1.5272 -0.2736 -1.4944
    5SAPS  C218  607   5.942   5.525   9.168  0.0765 -0.1269  0.6624
    5SAPS  H18R  608   5.845   5.531   9.221 -2.0435  2.1076 -2.9849
    5SAPS  H18S  609   5.961   5.629   9.134 -2.3628 -0.3390 -1.6806
    5SAPS  C219  610   5.918   5.435   9.042  0.2243  0.6008  0.2783
    5SAPS  H19R  611   6.003   5.366   9.023  1.1209  1.9176 -0.6688
    5SAPS  H19S  612   5.903   5.505   8.957  1.1668  0.5442  0.0498
    5SAPS  C220  613   5.786   5.359   9.055 -0.0011  0.2661 -0.0119
    5SAPS  H20R  614   5.791   5.291   9.142 -0.6316  0.3646  0.1123
    5SAPS  H20S  615   5.761   5.308   8.959 -0.8833  2.5418 -1.0848
    5SAPS  H20T  616   5.706   5.436   9.070  1.0918  1.2255  1.0600
    5SAPS   C33  617   5.559   4.514   9.930  0.4538  1.0335 -0.5245
    5SAPS   H3X  618   5.562   4.408   9.897  0.2371  0.6078  0.7566
    5SAPS   H3Y  619   5.653   4.539   9.984 -0.3398  0.2273  1.3441
    5SAPS   C34  620   5.571   4.578   9.787 -0.3693  0.5167  0.0910
    5SAPS   H4X  621   5.583   4.688   9.803 -0.7485  0.7481 -1.1071
    5SAPS   H4Y  622   5.483   4.561   9.721 -0.9459  1.2451  0.6561
    5SAPS   C35  623   5.694   4.527   9.723 -0.5785  0.1969  0.3036
    5SAPS   H5X  624   5.682   4.420   9.697  1.7007 -0.0761  0.0953
    5SAPS   H5Y  625   5.778   4.539   9.794  2.0422  1.7562 -2.7737
    5SAPS   C36  626   5.741   4.614   9.599  0.2700  0.8717 -0.2514
    5SAPS   H6X  627   5.841   4.571   9.573  0.0471 -0.5821  1.1374
    5SAPS   H6Y  628   5.746   4.722   9.623 -1.4563  0.4207  2.5655
    5SAPS   C37  629   5.639   4.597   9.483  0.3417  0.9620 -0.3700
    5SAPS   H7X  630   5.538   4.610   9.526  0.6803 -0.9054  1.0903
    5SAPS   H7Y  631   5.629   4.490   9.457  0.4768  0.0392  2.9607
    5SAPS   C38  632   5.656   4.682   9.356 -0.0828 -0.1888 -0.4025
    5SAPS   H8X  633   5.752   4.642   9.317  0.3628 -0.0747  0.5419
    5SAPS   H8Y  634   5.679   4.785   9.393  1.0516 -1.0826  1.5227
    5SAPS   C39  635   5.556   4.669   9.239  0.2717 -0.3052  0.6677
    5SAPS   H9X  636   5.466   4.730   9.261  2.3534  3.0675  0.6262
    5SAPS   H9Y  637   5.522   4.563   9.231 -0.8010  0.1627 -1.9269
    5SAPS  C310  638   5.615   4.724   9.108  0.1720  0.2192  0.5720
    5SAPS  H10X  639   5.698   4.660   9.072  0.3837 -1.2299  3.3469
    5SAPS  H10Y  640   5.651   4.826   9.133  0.8610  0.4179 -1.1280
    5SAPS  C311  641   5.513   4.753   8.994 -0.3015  0.7096  0.0373
    5SAPS  H11X  642   5.415   4.779   9.040 -1.1908 -0.0829 -1.3462
    5SAPS  H11Y  643   5.489   4.662   8.936  0.3607 -1.6427  3.1509
    5SAPS  C312  644   5.554   4.860   8.899  0.2453 -0.4020  0.9566
    5SAPS  H12X  645   5.659   4.836   8.871  1.1378  3.5027  0.4218
    5SAPS  H12Y  646   5.560   4.961   8.946  1.6282  0.7538 -1.5098
    5SAPS  C313  647   5.466   4.875   8.772  0.0443  0.2670  0.3896
    5SAPS  H13X  648   5.360   4.883   8.806 -0.0921  1.6440 -0.3068
    5SAPS  H13Y  649   5.479   4.785   8.708 -0.1481 -0.5790  1.4976
    5SAPS  C314  650   5.504   5.003   8.696 -0.6251  0.2783  0.1894
    5SAPS  H14X  651   5.608   5.010   8.658 -1.1720  2.4031 -1.0518
    5SAPS  H14Y  652   5.504   5.084   8.772 -0.7693 -0.6380  1.1988
    5SAPS  C315  653   5.396   5.035   8.594 -0.6778  0.3838  0.1908
    5SAPS  H15X  654   5.305   5.076   8.642 -0.6474 -0.2412  0.7864
    5SAPS  H15Y  655   5.357   4.948   8.537 -1.3736 -0.9630  2.6187
    5SAPS  C316  656   5.446   5.139   8.497 -0.2958 -0.3166 -0.3640
    5SAPS  H16X  657   5.525   5.193   8.555 -0.3626  0.0010 -0.5663
    5SAPS  H16Y  658   5.365   5.209   8.471 -1.6592 -1.3532  0.9218
    5SAPS  C317  659   5.485   5.093   8.363 -0.2328  0.0469 -0.4140
    5SAPS  H17X  660   5.383   5.062   8.334 -1.7727  1.7200  2.7439
    5SAPS  H17Y  661   5.567   5.017   8.367 -0.4005 -0.1120  0.2002
    5SAPS  C318  662   5.529   5.209   8.280 -0.5198 -1.0794 -0.5384
    5SAPS  H18X  663   5.537   5.185   8.172 -2.6180 -0.5120 -0.8785
    5SAPS  H18Y  664   5.626   5.242   8.322 -0.4375  0.2620 -1.7270
    5SAPS  H18Z  665   5.458   5.294   8.286  0.2240 -0.5048  0.3690
    6SAPS     N  666   2.724   4.117  10.396  0.6716  0.2485 -0.3505
    6SAPS   HN1  667   2.726   4.057  10.311 -2.0267  0.6297 -0.7584
    6SAPS   HN2  668   2.626   4.147  10.410  0.1474 -1.5536  0.1787
    6SAPS   HN3  669   2.772   4.202  10.362 -0.2925  0.8122 -0.3325
    6SAPS   C12  670   2.782   4.063  10.519 -0.5375  0.0185  1.1567
    6SAPS  H12A  671   2.850   4.136  10.561 -0.2842  2.0711 -2.4099
    6SAPS   C13  672   2.688   4.019  10.633 -0.2422  0.9291  0.0787
    6SAPS  O13A  673   2.562   4.019  10.612 -0.4436  0.3943 -0.3193
    6SAPS  O13B  674   2.734   3.987  10.745 -0.0229 -0.4896  0.4275
    6SAPS   C11  675   2.875   3.938  10.484  1.0106  0.0500 -0.1085
    6SAPS  H11A  676   2.808   3.888  10.410 -0.0111  1.9949 -0.5542
    6SAPS  H11B  677   2.885   3.863  10.565  0.5330  1.2786  1.1268
    6SAPS     P  678   3.112   4.048  10.532  0.2489 -0.1222 -0.1526
    6SAPS   O13  679   3.165   4.170  10.466 -0.2756 -0.4009  0.0988
    6SAPS   O14  680   3.050   4.067  10.666 -0.4672  0.0261  0.1298
    6SAPS   O12  681   3.005   3.983  10.436  1.0296 -0.0651 -0.1052
    6SAPS   O11  682   3.222   3.931  10.545 -0.0970 -0.3001 -0.1862
    6SAPS    C1  683   3.237   3.835  10.435 -0.4425 -0.1933  0.5232
    6SAPS    HA  684   3.306   3.756  10.472  0.3950  0.1849 -0.2174
    6SAPS    HB  685   3.143   3.784  10.405  0.2128 -0.6383 -0.8226
    6SAPS    C2  686   3.317   3.898  10.311 -0.4810 -0.3848 -0.2023
    6SAPS    HS  687   3.404   3.956  10.348  1.1568 -2.7433 -0.1227
    6SAPS   O21  688   3.215   3.970  10.238 -0.0911  0.0481  0.4757
    6SAPS   C21  689   3.259   4.085  10.182 -0.3748 -0.9309  0.3957
    6SAPS   O22  690   3.361   4.144  10.206  0.0592 -0.5385  0.0603
    6SAPS   C22  691   3.156   4.120  10.076  0.1973  0.0717 -0.2317
    6SAPS   H2R  692   3.077   4.042  10.068 -0.1574  0.3489  0.5287
    6SAPS   H2S  693   3.106   4.211  10.115 -1.1082 -0.3903 -0.7531
    6SAPS    C3  694   3.383   3.784  10.219  0.4363  1.0259  0.3761
    6SAPS    HX  695   3.299   3.723  10.180 -0.3548  0.2582  3.1130
    6SAPS    HY  696   3.449   3.720  10.281 -1.0349 -1.8827 -0.8624
    6SAPS   O31  697   3.444   3.845  10.100  0.4822 -0.1462  0.2301
    6SAPS   C31  698   3.535   3.766  10.043 -0.7034 -0.4267 -0.5580
    6SAPS   O32  699   3.584   3.668  10.092  0.1559  0.9360 -0.0729
    6SAPS   C32  700   3.591   3.837   9.925  0.8063 -0.3348  0.2405
    6SAPS   H2X  701   3.701   3.826   9.938  1.4352  0.8692 -3.1686
    6SAPS   H2Y  702   3.557   3.943   9.925 -2.8304 -1.3412 -1.2096
    6SAPS   C23  703   3.223   4.157   9.945 -0.9260 -0.9026 -0.2931
    6SAPS   H3R  704   3.318   4.215   9.959 -1.2666 -0.4985  0.3982
    6SAPS   H3S  705   3.173   4.216   9.865 -0.2944 -0.7073 -0.5535
    6SAPS   C24  706   3.253   4.028   9.865  0.6139 -0.3351 -0.0887
    6SAPS   H4R  707   3.287   3.960   9.945  0.5459  1.0914  1.1877
    6SAPS   H4S  708   3.342   4.025   9.798  0.4984 -2.2597 -0.2019
    6SAPS   C25  709   3.131   3.965   9.801  0.5180 -0.3680  0.2510
    6SAPS   H5R  710   3.045   3.940   9.865 -0.1907  0.4671 -0.3486
    6SAPS   C26  711   3.113   3.937   9.670 -0.1878 -0.1951  0.5242
    6SAPS   H6R  712   3.023   3.886   9.635 -0.6615  0.4283  0.8038
    6SAPS   C27  713   3.206   3.982   9.562  0.4898  0.8014 -0.5473
    6SAPS   H7R  714   3.277   4.061   9.594 -1.0845  1.8399  0.5806
    6SAPS   H7S  715   3.157   4.043   9.483  2.0438 -0.4584 -2.5718
    6SAPS   C28  716   3.286   3.870   9.508  1.1943  0.6343 -0.6382
    6SAPS   H8R  717   3.331   3.803   9.582  0.8078 -2.4112 -2.9647
    6SAPS   C29  718   3.311   3.844   9.385 -0.1804  0.3680  0.6571
    6SAPS   H9R  719   3.388   3.769   9.362  1.2637  2.0540 -0.2927
    6SAPS  C210  720   3.251   3.915   9.266  0.3137  0.5622 -0.3667
    6SAPS  H10R  721   3.155   3.967   9.285  0.3274 -0.1461  1.8979
    6SAPS  H10S  722   3.231   3.838   9.188  0.8758  1.9865 -1.9707
    6SAPS  C211  723   3.357   4.016   9.215  0.4151 -0.6090  0.3482
    6SAPS  H11R  724   3.449   4.033   9.273  0.7698  1.7694 -0.7936
    6SAPS  C212  725   3.340   4.096   9.107 -0.8621  0.7135  0.1633
    6SAPS  H12R  726   3.410   4.179   9.094  1.0266 -0.6205  1.2452
    6SAPS  C213  727   3.211   4.097   9.025  0.3575 -0.7905 -0.2827
    6SAPS  H13R  728   3.129   4.134   9.090  0.3094  3.1599 -2.3283
    6SAPS  H13S  729   3.177   3.992   9.009  2.1841 -1.3398 -0.7334
    6SAPS  C214  730   3.209   4.181   8.900  0.1566  0.2673  1.0154
    6SAPS  H14R  731   3.207   4.291   8.910 -1.4313  0.2308  1.2383
    6SAPS  C215  732   3.213   4.138   8.772 -0.4730  0.2143  0.1362
    6SAPS  H15R  733   3.209   4.211   8.689 -1.0242  0.2625  0.2068
    6SAPS  C216  734   3.218   3.993   8.730  0.1652  0.8855  0.5545
    6SAPS  H16R  735   3.220   3.934   8.824 -0.1583  1.3291  0.8396
    6SAPS  H16S  736   3.312   3.948   8.690 -1.2826 -1.3258 -0.5614
    6SAPS  C217  737   3.100   3.948   8.641  0.1959  0.4984  0.3618
    6SAPS  H17R  738   3.000   3.979   8.679 -0.6377  0.7003 -1.8585
    6SAPS  H17S  739   3.092   3.839   8.656 -0.1449  0.4245 -0.3367
    6SAPS  C218  740   3.099   3.982   8.497  0.7352  0.1643 -0.1154
    6SAPS  H18R  741   3.077   4.090   8.479  1.7944  0.2647 -0.9499
    6SAPS  H18S  742   3.022   3.921   8.445  1.1202  1.7482 -2.7605
    6SAPS  C219  743   3.239   3.963   8.431 -0.0184  0.9606 -0.3681
    6SAPS  H19R  744   3.289   3.877   8.481 -0.5514  1.4952  1.1539
    6SAPS  H19S  745   3.302   4.046   8.470  0.4055  0.4221  0.1191
    6SAPS  C220  746   3.243   3.951   8.283  0.2799 -0.1274  0.4807
    6SAPS  H20R  747   3.346   3.953   8.242 -0.0126 -0.1527 -0.2808
    6SAPS  H20S  748   3.183   4.026   8.227 -0.1044 -0.3986  0.5206
    6SAPS  H20T  749   3.189   3.858   8.255  0.5134 -0.7011  1.8490
    6SAPS   C33  750   3.546   3.772   9.792  0.5929 -0.2183 -0.9051
    6SAPS   H3X  751   3.563   3.848   9.713 -2.6697  0.8258 -0.7640
    6SAPS   H3Y  752   3.437   3.752   9.789  0.9014 -2.0618 -0.7843
    6SAPS   C34  753   3.637   3.657   9.767 -0.4371  0.5161  0.1215
    6SAPS   H4X  754   3.621   3.584   9.850 -0.8781  1.2701  0.7225
    6SAPS   H4Y  755   3.745   3.671   9.750  0.3728 -2.7214  1.6879
    6SAPS   C35  756   3.603   3.585   9.637  0.2417 -0.6973  0.1864
    6SAPS   H5X  757   3.493   3.567   9.638 -0.2527  1.9449 -0.1271
    6SAPS   H5Y  758   3.649   3.485   9.623  0.2703 -0.7760  0.8033
    6SAPS   C36  759   3.621   3.677   9.511 -0.3211 -0.4785  0.6287
    6SAPS   H6X  760   3.731   3.697   9.508 -0.0809 -1.7665  0.4164
    6SAPS   H6Y  761   3.572   3.775   9.528 -0.2344  0.3673 -3.1658
    6SAPS   C37  762   3.592   3.608   9.376  0.4337  0.7878 -0.0129
    6SAPS   H7X  763   3.481   3.595   9.383  0.1770  3.4995  2.5613
    6SAPS   H7Y  764   3.639   3.507   9.385 -0.3804  0.4077  0.1059
    6SAPS   C38  765   3.635   3.711   9.269  0.1253 -0.7315 -0.1672
    6SAPS   H8X  766   3.745   3.722   9.270  0.2241 -1.1652 -2.0650
    6SAPS   H8Y  767   3.578   3.804   9.290 -0.6429 -1.4598  1.1387
    6SAPS   C39  768   3.601   3.656   9.140 -0.5747 -0.9621  0.6078
    6SAPS   H9X  769   3.493   3.658   9.115  0.0247 -0.8107 -2.3400
    6SAPS   H9Y  770   3.644   3.554   9.128  0.5276 -0.4482  0.0173
    6SAPS  C310  771   3.662   3.728   9.019  0.1406  0.3733 -0.2848
    6SAPS  H10X  772   3.677   3.647   8.945  0.1424  0.6041 -0.5429
    6SAPS  H10Y  773   3.757   3.776   9.049 -0.7305  2.3723 -0.5027
    6SAPS  C311  774   3.572   3.837   8.961  0.0896  0.0297 -0.4622
    6SAPS  H11X  775   3.565   3.913   9.042  0.9143 -0.1355 -0.2287
    6SAPS  H11Y  776   3.470   3.797   8.943 -0.7890  0.9834  2.0328
    6SAPS  C312  777   3.631   3.909   8.844 -0.2116 -0.4993 -0.3434
    6SAPS  H12X  778   3.730   3.952   8.871 -0.9169  1.9152 -1.3906
    6SAPS  H12Y  779   3.574   4.002   8.827  1.2018  0.3963 -0.3692
    6SAPS  C313  780   3.648   3.828   8.715  0.4836  0.3041  0.6275
    6SAPS  H13X  781   3.554   3.771   8.696  0.0260  1.1558  0.2757
    6SAPS  H13Y  782   3.723   3.745   8.714  0.1380 -0.2741 -4.4660
    6SAPS  C314  783   3.660   3.918   8.588  0.3458 -0.4325  0.0811
    6SAPS  H14X  784   3.761   3.964   8.587  0.6306 -0.9600 -2.6122
    6SAPS  H14Y  785   3.584   3.999   8.596  2.9073  2.0092  2.1857
    6SAPS  C315  786   3.631   3.836   8.461 -0.3909 -0.1058 -0.3012
    6SAPS  H15X  787   3.536   3.780   8.465  0.2433 -1.1669  0.8068
    6SAPS  H15Y  788   3.719   3.768   8.458  0.5583  0.9447  1.4082
    6SAPS  C316  789   3.614   3.919   8.332  0.1241 -0.3533  0.2309
    6SAPS  H16X  790   3.716   3.964   8.337  0.5749 -1.4149  1.2837
    6SAPS  H16Y  791   3.530   3.991   8.340  1.1518  1.0497 -1.0275
    6SAPS  C317  792   3.612   3.842   8.197 -0.1895 -0.0055 -0.0889
    6SAPS  H17X  793   3.610   3.920   8.118 -0.8070  0.3603  0.2766
    6SAPS  H17Y  794   3.513   3.791   8.191 -0.0272 -0.3576  0.1831
    6SAPS  C318  795   3.727   3.748   8.173  0.1985 -0.3497 -0.1108
    6SAPS  H18X  796   3.734   3.715   8.067  1.4631  1.4705 -0.6418
    6SAPS  H18Y  797   3.723   3.659   8.239 -3.7041  1.0121  1.8232
    6SAPS  H18Z  798   3.822   3.803   8.189 -0.0196  0.3240 -1.0046
    7SAPS     N  799   6.529   5.107  10.535 -0.5569 -0.1339  0.3579
    7SAPS   HN1  800   6.515   5.005  10.518 -0.5167  0.1690 -1.7068
    7SAPS   HN2  801   6.575   5.157  10.456  1.8557 -0.9852  1.1400
    7SAPS   HN3  802   6.602   5.128  10.606 -0.4517  0.1260  0.1715
    7SAPS   C12  803   6.408   5.181  10.559  0.6938 -0.2620 -0.4469
    7SAPS  H12A  804   6.345   5.160  10.474 -0.3733 -0.6761  0.4184
    7SAPS   C13  805   6.346   5.142  10.694  0.4415 -0.1180 -0.7557
    7SAPS  O13A  806   6.414   5.111  10.791 -0.8369  0.7170  0.0945
    7SAPS  O13B  807   6.221   5.157  10.713 -0.5014  0.4050  0.9056
    7SAPS   C11  808   6.440   5.326  10.568  0.6913  0.5988 -0.1780
    7SAPS  H11A  809   6.497   5.351  10.661 -1.2201 -0.5299  1.3686
    7SAPS  H11B  810   6.339   5.369  10.584  0.2151 -1.5859  3.9789
    7SAPS     P  811   6.534   5.543  10.459  0.0009 -0.0584 -0.2665
    7SAPS   O13  812   6.539   5.598  10.597  0.3533 -0.3490 -0.5384
    7SAPS   O14  813   6.655   5.564  10.373 -0.5706  0.3069 -0.5868
    7SAPS   O12  814   6.506   5.393  10.463 -0.7629  1.2240 -0.2287
    7SAPS   O11  815   6.409   5.600  10.379 -0.2158  0.0284 -0.1352
    7SAPS    C1  816   6.353   5.526  10.261 -0.3471 -0.4252 -1.0886
    7SAPS    HA  817   6.401   5.427  10.247 -0.5033 -0.6407 -0.1674
    7SAPS    HB  818   6.245   5.516  10.285 -0.0422  0.4337  0.8821
    7SAPS    C2  819   6.380   5.612  10.136 -0.6475 -0.1940 -0.3575
    7SAPS    HS  820   6.487   5.641  10.127 -0.6988 -0.1712 -0.9017
    7SAPS   O21  821   6.295   5.732  10.135 -0.2897 -0.0131 -0.0339
    7SAPS   C21  822   6.334   5.829  10.054  0.3781  0.7381 -0.3418
    7SAPS   O22  823   6.442   5.830   9.994  0.0698  0.2631  0.8233
    7SAPS   C22  824   6.240   5.948  10.063  0.3206  0.3786 -0.3287
    7SAPS   H2R  825   6.200   5.953  10.166 -0.1047  3.5635 -0.5234
    7SAPS   H2S  826   6.293   6.044  10.043 -1.1349  1.2424 -0.2618
    7SAPS    C3  827   6.347   5.515  10.017  0.0554  0.0297  0.0694
    7SAPS    HX  828   6.245   5.472  10.018 -0.2992  0.8486  1.1744
    7SAPS    HY  829   6.418   5.431  10.029 -2.4517 -2.0760  0.9662
    7SAPS   O31  830   6.365   5.580   9.885 -0.1391  0.0189  0.0253
    7SAPS   C31  831   6.489   5.580   9.834 -0.1546  0.4590  0.3570
    7SAPS   O32  832   6.582   5.535   9.896  0.6897 -0.2877  0.3967
    7SAPS   C32  833   6.484   5.622   9.681 -0.7141  0.0688  0.2821
    7SAPS   H2X  834   6.390   5.669   9.644 -0.9462 -0.7816 -0.2472
    7SAPS   H2Y  835   6.492   5.526   9.626  0.3525  1.0922 -1.4728
    7SAPS   C23  836   6.123   5.941   9.963  0.0798  0.0931  0.8838
    7SAPS   H3R  837   6.036   6.000   9.998  0.3563  2.0538 -1.4254
    7SAPS   H3S  838   6.089   5.836   9.967  1.3131 -0.2830  2.2212
    7SAPS   C24  839   6.161   5.991   9.822 -0.0812 -0.0105 -0.6991
    7SAPS   H4R  840   6.249   5.934   9.784 -1.0680 -1.6527 -0.6398
    7SAPS   H4S  841   6.190   6.097   9.839  0.6599 -0.2688 -0.3103
    7SAPS   C25  842   6.041   5.985   9.731 -0.1423 -0.4750 -0.4153
    7SAPS   H5R  843   5.941   5.990   9.777 -0.4468 -3.4142 -0.6107
    7SAPS   C26  844   6.048   5.979   9.593 -0.2072 -0.2762 -0.2839
    7SAPS   H6R  845   5.957   5.980   9.531 -1.1464 -1.1768  1.0117
    7SAPS   C27  846   6.175   5.961   9.508  0.0999 -0.9745  0.3577
    7SAPS   H7R  847   6.167   5.863   9.455  0.3637 -0.7134 -0.1730
    7SAPS   H7S  848   6.274   5.967   9.557 -0.0008  1.7668  0.3607
    7SAPS   C28  849   6.166   6.074   9.408  0.5812  0.3221 -0.2162
    7SAPS   H8R  850   6.193   6.172   9.450 -2.1220  0.4713  1.4200
    7SAPS   C29  851   6.116   6.069   9.286 -0.1145 -0.6958 -0.2252
    7SAPS   H9R  852   6.097   6.168   9.240 -1.1608 -0.1520  1.3080
    7SAPS  C210  853   6.062   5.948   9.216 -0.0116  0.3308 -0.3512
    7SAPS  H10R  854   6.052   5.859   9.282  0.6051  0.2245 -0.3884
    7SAPS  H10S  855   6.146   5.918   9.149  0.1228 -2.3598  0.9035
    7SAPS  C211  856   5.934   5.977   9.151 -0.5056 -0.2938 -0.5193
    7SAPS  H11R  857   5.859   5.994   9.230 -0.2377  2.7198 -0.7904
    7SAPS  C212  858   5.906   6.001   9.023 -0.6704  0.2443 -0.3056
    7SAPS  H12R  859   5.798   6.009   9.007 -0.9019  0.2770  1.1232
    7SAPS  C213  860   5.997   5.994   8.905 -0.9966 -0.3818 -0.2294
    7SAPS  H13R  861   6.097   6.037   8.926 -1.3311  0.3434 -0.0962
    7SAPS  H13S  862   5.954   6.062   8.828  0.1881  1.8036  0.9452
    7SAPS  C214  863   6.012   5.855   8.854  0.2397 -0.3193 -0.2563
    7SAPS  H14R  864   6.032   5.781   8.932  2.3565 -0.1960 -0.6189
    7SAPS  C215  865   6.019   5.813   8.725  0.5900  0.4762  0.2934
    7SAPS  H15R  866   6.030   5.705   8.707 -0.3850  0.3758  0.2371
    7SAPS  C216  867   6.005   5.897   8.603 -0.0531 -0.5943  0.3471
    7SAPS  H16R  868   6.111   5.914   8.572  1.0656 -4.4871  1.4512
    7SAPS  H16S  869   5.936   5.982   8.622 -2.1803 -2.7440  2.8888
    7SAPS  C217  870   5.954   5.837   8.473  0.2433  0.0892 -0.8072
    7SAPS  H17R  871   5.850   5.802   8.484  0.0492  0.5850 -1.0065
    7SAPS  H17S  872   6.026   5.756   8.450  0.4218 -0.8107  2.4323
    7SAPS  C218  873   5.950   5.935   8.355 -0.2887 -0.1478 -0.6490
    7SAPS  H18R  874   5.914   6.029   8.401  4.0380  0.0299  2.9349
    7SAPS  H18S  875   5.885   5.898   8.272 -0.5462  0.9485 -0.9573
    7SAPS  C219  876   6.085   5.968   8.293  0.3922 -0.0522 -0.4600
    7SAPS  H19R  877   6.132   5.874   8.257 -1.0151 -0.4285 -1.3590
    7SAPS  H19S  878   6.145   6.012   8.376 -1.2639 -0.0688  0.7883
    7SAPS  C220  879   6.078   6.060   8.166  0.5986  0.0149  0.0714
    7SAPS  H20R  880   6.006   6.027   8.089 -0.3185 -1.7438  1.6217
    7SAPS  H20S  881   6.176   6.071   8.114 -0.4452 -0.1494 -2.0210
    7SAPS  H20T  882   6.046   6.158   8.207 -1.2652 -0.6037  0.1886
    7SAPS   C33  883   6.608   5.694   9.633  0.3444 -0.1691  0.0819
    7SAPS   H3X  884   6.700   5.658   9.685  0.0137 -0.9634  0.1368
    7SAPS   H3Y  885   6.603   5.801   9.665 -1.0504  0.1502 -1.1008
    7SAPS   C34  886   6.631   5.699   9.480  0.1516  0.0579 -0.3404
    7SAPS   H4X  887   6.676   5.604   9.443  2.0778  1.0770 -0.7359
    7SAPS   H4Y  888   6.708   5.778   9.469  0.4075  0.2140  1.9250
    7SAPS   C35  889   6.511   5.730   9.392 -0.0298 -0.1096 -0.0162
    7SAPS   H5X  890   6.499   5.840   9.403  3.1060  0.4831 -1.5095
    7SAPS   H5Y  891   6.418   5.681   9.430 -0.6782  0.4076 -0.8951
    7SAPS   C36  892   6.531   5.691   9.248 -0.4050  0.5045  0.2156
    7SAPS   H6X  893   6.584   5.593   9.241  2.6652  1.9644  0.9669
    7SAPS   H6Y  894   6.596   5.768   9.201 -2.3647  1.2193 -1.4793
    7SAPS   C37  895   6.399   5.695   9.173 -0.2326 -0.0451 -0.3244
    7SAPS   H7X  896   6.353   5.796   9.186 -0.4683 -0.1378 -0.4315
    7SAPS   H7Y  897   6.328   5.622   9.216 -1.0912  1.9679  1.9164
    7SAPS   C38  898   6.406   5.666   9.018 -0.0691  0.2369  0.6067
    7SAPS   H8X  899   6.300   5.670   8.985 -0.7125 -1.2729  2.3113
    7SAPS   H8Y  900   6.449   5.567   8.992 -1.8838  0.4773 -4.3211
    7SAPS   C39  901   6.470   5.779   8.938  0.0789 -0.7810  0.6985
    7SAPS   H9X  902   6.569   5.812   8.977  0.8145  0.1544 -1.7425
    7SAPS   H9Y  903   6.406   5.868   8.951 -0.4334 -1.0884  0.3287
    7SAPS  C310  904   6.493   5.768   8.787  0.0004  0.3030 -0.0638
    7SAPS  H10X  905   6.389   5.740   8.759  0.0915 -0.8662  0.6849
    7SAPS  H10Y  906   6.559   5.682   8.763 -1.4269 -1.2362  1.2584
    7SAPS  C311  907   6.547   5.899   8.738 -0.0453  0.7905 -0.1857
    7SAPS  H11X  908   6.653   5.906   8.771  0.3781  1.1480 -1.5556
    7SAPS  H11Y  909   6.490   5.979   8.788 -1.9131 -1.1725  0.9846
    7SAPS  C312  910   6.562   5.891   8.588  0.1925 -0.3131  0.2380
    7SAPS  H12X  911   6.458   5.884   8.551 -0.5870  2.8780  1.4649
    7SAPS  H12Y  912   6.608   5.794   8.559 -0.7577 -1.4223  2.2454
    7SAPS  C313  913   6.623   6.014   8.517 -0.0101  0.3894  0.1969
    7SAPS  H13X  914   6.565   6.105   8.542 -0.4910 -0.4734  2.4424
    7SAPS  H13Y  915   6.620   6.004   8.406 -0.3848 -0.7667  0.2937
    7SAPS  C314  916   6.770   6.029   8.554 -0.8294  0.1471  0.2076
    7SAPS  H14X  917   6.778   6.075   8.655 -0.3498  1.4189 -0.3880
    7SAPS  H14Y  918   6.826   6.088   8.479  2.4843  0.4892  2.7476
    7SAPS  C315  919   6.850   5.899   8.561  0.0494  0.3920  0.5734
    7SAPS  H15X  920   6.798   5.826   8.495 -0.7089  1.0009  0.4845
    7SAPS  H15Y  921   6.848   5.855   8.663 -0.6544 -0.6779  0.1252
    7SAPS  C316  922   6.991   5.913   8.511  0.3366  0.3461  0.0316
    7SAPS  H16X  923   7.044   5.816   8.526  0.2882  0.1231 -1.1425
    7SAPS  H16Y  924   7.027   5.994   8.578 -1.9857  0.0963  1.7133
    7SAPS  C317  925   7.022   5.956   8.370  0.1744  0.3849  0.3026
    7SAPS  H17X  926   6.969   6.048   8.337  1.1061  0.4080 -1.1969
    7SAPS  H17Y  927   6.990   5.872   8.305 -3.8347  1.5050  0.5264
    7SAPS  C318  928   7.174   5.976   8.359  0.1166  0.4853  0.2962
    7SAPS  H18X  929   7.193   6.084   8.381 -0.2590  0.3303  1.4129
    7SAPS  H18Y  930   7.206   5.934   8.261 -2.4964  1.7255 -1.2030
    7SAPS  H18Z  931   7.231   5.922   8.437  0.4939 -1.3890 -1.2058
    8SAPS     N  932   2.486   0.549  10.821 -0.0230  0.1406  0.2618
    8SAPS   HN1  933   2.531   0.531  10.729  1.5148  1.5275  0.7046
    8SAPS   HN2  934   2.409   0.480  10.833  0.7421 -0.9400 -0.7817
    8SAPS   HN3  935   2.447   0.646  10.824  0.2259  0.2225  2.3442
    8SAPS   C12  936   2.593   0.532  10.924  0.6671  0.0643  0.3798
    8SAPS  H12A  937   2.670   0.605  10.902  0.7994  1.4501  4.4531
    8SAPS   C13  938   2.554   0.567  11.070 -0.4456  0.1197  0.4529
    8SAPS  O13A  939   2.439   0.608  11.091  0.3104 -0.0414  0.4423
    8SAPS  O13B  940   2.650   0.569  11.160 -0.4172 -0.3122  0.1033
    8SAPS   C11  941   2.638   0.387  10.911  0.2527 -0.9837  0.6728
    8SAPS  H11A  942   2.648   0.375  10.801  0.3518  0.1271  0.5450
    8SAPS  H11B  943   2.565   0.311  10.944  0.5773 -1.2691  0.7325
    8SAPS     P  944   2.811   0.215  10.980 -0.6796  0.4911  0.0822
    8SAPS   O13  945   2.942   0.208  11.053 -0.4134  0.3442  0.0673
    8SAPS   O14  946   2.697   0.137  11.036  0.9136 -0.3895 -0.6202
    8SAPS   O12  947   2.777   0.370  10.958  0.1683 -0.3047  0.1511
    8SAPS   O11  948   2.830   0.161  10.835 -0.5990  0.5530 -0.5265
    8SAPS    C1  949   2.880   0.243  10.726  0.1507  0.1517 -0.2565
    8SAPS    HA  950   2.879   0.352  10.748  0.5332 -0.2504  2.0124
    8SAPS    HB  951   2.988   0.221  10.707  1.1517  3.0099  1.4326
    8SAPS    C2  952   2.809   0.222  10.593  0.2841 -0.1343 -0.1507
    8SAPS    HS  953   2.699   0.224  10.611  0.7766 -0.8359  3.7789
    8SAPS   O21  954   2.847   0.094  10.531  0.1739 -0.1125 -0.4253
    8SAPS   C21  955   2.805  -0.015  10.591  0.1752 -0.3552 -0.7931
    8SAPS   O22  956   2.715  -0.022  10.673  0.2826 -0.5098  0.0867
    8SAPS   C22  957   2.906  -0.121  10.548  0.9496 -0.5247  0.0810
    8SAPS   H2R  958   2.929  -0.111  10.440 -0.3587  1.1011 -0.0855
    8SAPS   H2S  959   2.999  -0.113  10.608  1.1396 -0.2910 -0.2402
    8SAPS    C3  960   2.846   0.346  10.498  0.2690  0.1473  0.2275
    8SAPS    HX  961   2.956   0.352  10.514  0.1368  2.8726  0.5359
    8SAPS    HY  962   2.803   0.438  10.545 -3.2456 -1.4634  0.5242
    8SAPS   O31  963   2.808   0.330  10.359  0.8054  0.1856  0.0188
    8SAPS   C31  964   2.682   0.322  10.320 -0.0337  0.4839  0.4674
    8SAPS   O32  965   2.581   0.332  10.382  0.0667 -0.1612 -0.7207
    8SAPS   C32  966   2.681   0.304  10.162 -0.0338 -0.7058  0.8282
    8SAPS   H2X  967   2.781   0.300  10.114 -0.7068  2.0932 -1.0302
    8SAPS   H2Y  968   2.631   0.397  10.130  0.8126 -1.0209 -1.5547
    8SAPS   C23  969   2.852  -0.265  10.562  0.5053  0.0646 -1.5962
    8SAPS   H3R  970   2.746  -0.256  10.531 -0.3881  3.1218  1.5933
    8SAPS   H3S  971   2.858  -0.311  10.663 -3.6850  2.5226  0.0249
    8SAPS   C24  972   2.929  -0.356  10.455  0.4040  0.2348 -0.6029
    8SAPS   H4R  973   2.885  -0.326  10.356 -0.5015  1.4809  0.1372
    8SAPS   H4S  974   2.886  -0.456  10.479 -0.2469  0.1861 -1.8630
    8SAPS   C25  975   3.079  -0.360  10.457  0.6324  0.3082  0.3004
    8SAPS   H5R  976   3.126  -0.368  10.556 -0.1364  0.8991  0.7235
    8SAPS   C26  977   3.160  -0.336  10.352  0.1598  0.6418 -0.3007
    8SAPS   H6R  978   3.264  -0.328  10.385 -0.1176  0.3813  0.6749
    8SAPS   C27  979   3.127  -0.301  10.211 -0.1496 -0.2501  0.5191
    8SAPS   H7R  980   3.087  -0.198  10.206  2.0537  0.6525  0.2647
    8SAPS   H7S  981   3.059  -0.373  10.160  0.9539 -0.1842 -1.1430
    8SAPS   C28  982   3.258  -0.322  10.130  0.3366  0.0266  0.2175
    8SAPS   H8R  983   3.355  -0.311  10.180  0.2381  1.6974  0.1035
    8SAPS   C29  984   3.260  -0.354   9.993  0.2752  0.7812  0.5021
    8SAPS   H9R  985   3.353  -0.374   9.937 -1.1882 -4.4443 -0.5841
    8SAPS  C210  986   3.134  -0.367   9.912  0.0225  0.3468 -0.7115
    8SAPS  H10R  987   3.141  -0.313   9.815 -1.5697  0.4014 -0.8086
    8SAPS  H10S  988   3.037  -0.330   9.949 -0.0198 -0.4557 -0.0091
    8SAPS  C211  989   3.119  -0.514   9.891  0.5563 -0.6907 -0.2901
    8SAPS  H11R  990   3.049  -0.563   9.960 -1.1956 -1.0689 -2.2414
    8SAPS  C212  991   3.170  -0.585   9.783  0.3566 -0.4837 -1.2169
    8SAPS  H12R  992   3.159  -0.694   9.789  0.7439 -0.4362  2.6506
    8SAPS  C213  993   3.258  -0.539   9.668  0.5844  0.0886 -0.8687
    8SAPS  H13R  994   3.348  -0.604   9.667  0.8859  0.2090  2.7459
    8SAPS  H13S  995   3.288  -0.433   9.683  2.0877 -0.6151  1.7811
    8SAPS  C214  996   3.184  -0.562   9.536  0.0373 -0.5216  0.3034
    8SAPS  H14R  997   3.112  -0.645   9.530  1.0564 -1.3094 -1.7943
    8SAPS  C215  998   3.204  -0.494   9.417  0.2478 -0.5356  0.9712
    8SAPS  H15R  999   3.136  -0.520   9.335 -1.0909 -0.8935  2.1724
    8SAPS  C216 1000   3.303  -0.381   9.384  0.0616 -0.2304 -0.4819
    8SAPS  H16R 1001   3.392  -0.393   9.450 -1.9741 -1.7028  2.2088
    8SAPS  H16S 1002   3.258  -0.285   9.418 -0.6275 -1.5919  2.8024
    8SAPS  C217 1003   3.342  -0.374   9.235 -0.3794  0.2684  0.4710
    8SAPS  H17R 1004   3.250  -0.368   9.171 -0.5482 -0.9044  0.5905
    8SAPS  H17S 1005   3.391  -0.469   9.207 -1.0491  0.1442 -0.3436
    8SAPS  C218 1006   3.426  -0.252   9.206  0.2193  0.2864 -0.0518
    8SAPS  H18R 1007   3.523  -0.241   9.259  0.3754 -0.3344 -0.2088
    8SAPS  H18S 1008   3.372  -0.160   9.236  1.5544  1.2506 -0.5071
    8SAPS  C219 1009   3.452  -0.238   9.057 -0.2289  0.2730  0.1497
    8SAPS  H19R 1010   3.447  -0.130   9.033 -2.2218  0.0964 -0.3305
    8SAPS  H19S 1011   3.365  -0.286   9.009  0.6306 -0.2739 -0.9111
    8SAPS  C220 1012   3.591  -0.296   9.022  0.0772  0.3847  0.0681
    8SAPS  H20R 1013   3.671  -0.267   9.093  0.0583  3.1501 -0.9296
    8SAPS  H20S 1014   3.620  -0.258   8.922  0.4959 -1.4931 -0.5618
    8SAPS  H20T 1015   3.587  -0.407   9.008  1.6949  0.3379 -0.1937
    8SAPS   C33 1016   2.596   0.188  10.129  0.6407 -0.2248  0.5787
    8SAPS   H3X 1017   2.497   0.204  10.178  0.0376 -1.3932 -0.1952
    8SAPS   H3Y 1018   2.637   0.096  10.176  0.8927 -1.4728 -1.8967
    8SAPS   C34 1019   2.563   0.162   9.979  0.3840  0.7740  0.3369
    8SAPS   H4X 1020   2.660   0.131   9.934  0.0365  2.2401 -1.5284
    8SAPS   H4Y 1021   2.538   0.256   9.924 -0.4944  1.0950  1.2495
    8SAPS   C35 1022   2.462   0.048   9.962 -0.4039  0.3145  0.0580
    8SAPS   H5X 1023   2.366   0.091   9.926 -0.9189 -0.1747  0.8059
    8SAPS   H5Y 1024   2.445  -0.009  10.056 -1.8753  0.6844  0.0431
    8SAPS   C36 1025   2.502  -0.062   9.864 -0.2816  0.7524  0.7207
    8SAPS   H6X 1026   2.428  -0.143   9.882 -0.2798  1.0149  2.0034
    8SAPS   H6Y 1027   2.599  -0.101   9.904 -1.0464 -0.3819  1.5254
    8SAPS   C37 1028   2.520  -0.004   9.717  0.5436  0.6658 -0.0960
    8SAPS   H7X 1029   2.614   0.054   9.723  1.0830 -0.3384  2.6407
    8SAPS   H7Y 1030   2.427   0.057   9.708 -0.6312 -1.2612 -1.6912
    8SAPS   C38 1031   2.540  -0.121   9.618  0.0502 -0.3065  0.3857
    8SAPS   H8X 1032   2.477  -0.205   9.656 -0.1874 -0.2612  0.0933
    8SAPS   H8Y 1033   2.641  -0.167   9.619 -1.2418 -3.3500  0.9204
    8SAPS   C39 1034   2.488  -0.099   9.474 -0.4802 -0.2305  0.1883
    8SAPS   H9X 1035   2.546  -0.018   9.423 -1.5097  1.4314  1.5310
    8SAPS   H9Y 1036   2.383  -0.065   9.487 -0.1804  1.5227 -1.4648
    8SAPS  C310 1037   2.483  -0.231   9.391 -0.1309 -0.4701  0.3225
    8SAPS  H10X 1038   2.444  -0.312   9.456  0.9903 -3.0371 -2.0022
    8SAPS  H10Y 1039   2.587  -0.258   9.363 -1.0406 -0.3143 -3.7979
    8SAPS  C311 1040   2.390  -0.223   9.269  0.1371 -0.3932  0.0971
    8SAPS  H11X 1041   2.390  -0.121   9.225 -0.7300  1.2079  3.4691
    8SAPS  H11Y 1042   2.288  -0.249   9.304  0.1473  0.5647  0.8826
    8SAPS  C312 1043   2.423  -0.330   9.159 -0.0645  0.4528 -0.0986
    8SAPS  H12X 1044   2.456  -0.425   9.206 -1.0169  0.1517 -0.0210
    8SAPS  H12Y 1045   2.500  -0.284   9.094  0.2680  0.8200  0.5463
    8SAPS  C313 1046   2.308  -0.373   9.075  0.2623 -0.4078  0.0568
    8SAPS  H13X 1047   2.294  -0.282   9.013 -1.6329  0.9117  2.2395
    8SAPS  H13Y 1048   2.208  -0.386   9.122 -0.1279 -1.7854 -1.0820
    8SAPS  C314 1049   2.318  -0.512   8.994 -0.0045 -0.0226 -0.2450
    8SAPS  H14X 1050   2.316  -0.595   9.068 -0.2761  1.7685  1.8814
    8SAPS  H14Y 1051   2.421  -0.511   8.951 -0.9038  0.7390 -2.5107
    8SAPS  C315 1052   2.208  -0.538   8.892  0.6577 -0.3926  0.9846
    8SAPS  H15X 1053   2.236  -0.468   8.810  0.1865 -1.1783  0.1388
    8SAPS  H15Y 1054   2.108  -0.501   8.922  1.8577  3.6248  0.6835
    8SAPS  C316 1055   2.197  -0.675   8.830 -0.4302 -0.1322  0.9512
    8SAPS  H16X 1056   2.180  -0.752   8.908 -3.3065  0.9186  1.4946
    8SAPS  H16Y 1057   2.287  -0.699   8.770  0.1513  2.5648  0.5983
    8SAPS  C317 1058   2.090  -0.689   8.719 -0.1764 -0.9715  0.2729
    8SAPS  H17X 1059   2.131  -0.629   8.636 -1.3627  0.9836  1.0416
    8SAPS  H17Y 1060   1.996  -0.643   8.758 -0.9707 -2.3288  0.0403
    8SAPS  C318 1061   2.067  -0.835   8.669  0.4549  0.2462 -0.3423
    8SAPS  H18X 1062   2.026  -0.840   8.566 -0.9716  1.1633  0.1505
    8SAPS  H18Y 1063   1.997  -0.886   8.739 -3.2321  2.9797 -1.7429
    8SAPS  H18Z 1064   2.166  -0.886   8.675  1.2899  1.9304  1.9021
    9SAPS     N 1065   5.492   3.968   6.111  0.0179 -0.5097  0.4195
    9SAPS   HN1 1066   5.442   4.053   6.079  1.0230  0.1242  0.5019
    9SAPS   HN2 1067   5.437   3.919   6.185  1.7143 -1.3082  1.1939
    9SAPS   HN3 1068   5.587   3.990   6.145  0.4158  1.0146 -1.4858
    9SAPS   C12 1069   5.528   3.871   6.003  0.3612 -0.1210 -0.3837
    9SAPS  H12A 1070   5.445   3.812   5.969  1.5174 -0.9951 -1.7714
    9SAPS   C13 1071   5.595   3.931   5.882 -0.2432  0.1797  0.1103
    9SAPS  O13A 1072   5.628   4.054   5.889 -0.0473 -0.0561  0.4410
    9SAPS  O13B 1073   5.632   3.855   5.787 -0.2726  0.1662  0.1303
    9SAPS   C11 1074   5.615   3.752   6.055 -0.3399 -0.0994  0.2116
    9SAPS  H11A 1075   5.713   3.795   6.087 -0.2878 -0.8517  1.0999
    9SAPS  H11B 1076   5.634   3.680   5.973  1.5397 -0.0388  0.5357
    9SAPS     P 1077   5.601   3.583   6.261  0.7010 -0.0624 -0.0167
    9SAPS   O13 1078   5.484   3.514   6.307 -0.1248  0.4091  0.1432
    9SAPS   O14 1079   5.706   3.505   6.193 -0.1679 -0.1399 -0.1871
    9SAPS   O12 1080   5.555   3.698   6.170  0.0411  0.1445 -0.4398
    9SAPS   O11 1081   5.669   3.646   6.391  0.0191  0.5547  0.1207
    9SAPS    C1 1082   5.632   3.777   6.431 -0.3935 -0.1204  0.4111
    9SAPS    HA 1083   5.726   3.836   6.420  0.5135 -1.5808  0.0666
    9SAPS    HB 1084   5.558   3.830   6.368  0.5632 -1.6652 -2.1392
    9SAPS    C2 1085   5.584   3.787   6.580  0.1294  0.1828  0.2513
    9SAPS    HS 1086   5.578   3.897   6.595  1.3710  0.0975  1.5197
    9SAPS   O21 1087   5.674   3.735   6.680  0.5339  0.0220 -0.1405
    9SAPS   C21 1088   5.775   3.811   6.720 -0.2656 -0.2586  0.4249
    9SAPS   O22 1089   5.820   3.906   6.656 -0.5761  0.5654 -0.0453
    9SAPS   C22 1090   5.819   3.757   6.857 -0.1239 -0.2270 -0.2138
    9SAPS   H2R 1091   5.725   3.722   6.904  0.4786 -1.0327  0.4265
    9SAPS   H2S 1092   5.882   3.671   6.825  0.4460  0.6155 -1.4128
    9SAPS    C3 1093   5.443   3.729   6.587  0.2542  0.7653 -0.3144
    9SAPS    HX 1094   5.446   3.623   6.555 -1.7923  0.6344 -0.1819
    9SAPS    HY 1095   5.376   3.780   6.515  0.9638  0.5982 -1.1127
    9SAPS   O31 1096   5.388   3.751   6.721  0.0024  0.2485  0.3333
    9SAPS   C31 1097   5.398   3.656   6.816 -0.0132 -0.2346 -0.1049
    9SAPS   O32 1098   5.435   3.543   6.799  0.1158  0.2994  0.0109
    9SAPS   C32 1099   5.327   3.718   6.936 -0.9154  0.1697 -0.5760
    9SAPS   H2X 1100   5.225   3.747   6.901  0.2295  0.9088 -3.5528
    9SAPS   H2Y 1101   5.386   3.806   6.968  1.3054 -1.9117  1.4110
    9SAPS   C23 1102   5.895   3.859   6.944 -0.1467 -0.0425  0.5199
    9SAPS   H3R 1103   5.855   3.959   6.920  1.6682  0.3881 -0.9990
    9SAPS   H3S 1104   6.001   3.860   6.910 -0.2252  2.3409  0.1705
    9SAPS   C24 1105   5.878   3.846   7.098 -0.0794  1.1123  0.1116
    9SAPS   H4R 1106   5.773   3.862   7.129  0.1672  0.1839  1.5082
    9SAPS   H4S 1107   5.938   3.926   7.149 -0.7245 -0.2470  3.2381
    9SAPS   C25 1108   5.915   3.712   7.151  0.2817  0.1897  0.0324
    9SAPS   H5R 1109   5.929   3.629   7.080  0.0767  0.9628 -0.9400
    9SAPS   C26 1110   5.903   3.676   7.276 -0.3449 -0.0252 -0.4791
    9SAPS   H6R 1111   5.928   3.575   7.312 -1.3031  0.1936  0.9297
    9SAPS   C27 1112   5.860   3.767   7.385 -0.2091  0.3253  0.6103
    9SAPS   H7R 1113   5.847   3.868   7.339 -0.9555 -0.1457 -0.2362
    9SAPS   H7S 1114   5.949   3.776   7.451  1.5144 -1.8127 -1.2724
    9SAPS   C28 1115   5.724   3.720   7.444 -0.7487  0.8386 -0.4860
    9SAPS   H8R 1116   5.644   3.701   7.371  1.0879 -0.0677 -2.3608
    9SAPS   C29 1117   5.713   3.675   7.571  0.4288 -0.8975  0.1980
    9SAPS   H9R 1118   5.609   3.656   7.602  0.4202  1.1543  1.5873
    9SAPS  C210 1119   5.825   3.670   7.670  0.0008 -0.0579  0.2779
    9SAPS  H10R 1120   5.804   3.742   7.752  2.4666  0.8848  0.1872
    9SAPS  H10S 1121   5.925   3.697   7.628 -0.0407  0.3248  0.4272
    9SAPS  C211 1122   5.830   3.533   7.740 -0.1238 -0.0746  0.5137
    9SAPS  H11R 1123   5.794   3.443   7.688  0.6023 -0.2567  0.3242
    9SAPS  C212 1124   5.870   3.522   7.871  0.5502  0.2021 -0.7651
    9SAPS  H12R 1125   5.871   3.419   7.910 -2.1629 -0.2194 -1.6093
    9SAPS  C213 1126   5.915   3.635   7.964  0.5337 -0.1362 -0.1374
    9SAPS  H13R 1127   5.960   3.722   7.911  0.5580  1.0360  1.7304
    9SAPS  H13S 1128   6.004   3.590   8.012 -0.4548 -2.8240 -0.6553
    9SAPS  C214 1129   5.811   3.674   8.068  0.3484 -0.3678 -0.1964
    9SAPS  H14R 1130   5.736   3.736   8.018  2.1252  1.0044 -1.2826
    9SAPS  C215 1131   5.789   3.627   8.187 -0.1578 -0.5123 -0.2554
    9SAPS  H15R 1132   5.702   3.669   8.240  0.2236  1.7868 -1.3101
    9SAPS  C216 1133   5.868   3.531   8.264 -0.2159 -0.3112 -0.1514
    9SAPS  H16R 1134   5.954   3.498   8.201 -0.6227  2.1036 -2.1399
    9SAPS  H16S 1135   5.800   3.446   8.286 -1.3862  0.3426 -1.0845
    9SAPS  C217 1136   5.907   3.586   8.405 -0.4317  1.3231 -0.1666
    9SAPS  H17R 1137   5.820   3.623   8.463 -0.2307 -1.7058  2.3090
    9SAPS  H17S 1138   5.984   3.665   8.392  0.3762  1.2350  3.1964
    9SAPS  C218 1139   5.964   3.476   8.491  0.1021 -0.1829 -0.6312
    9SAPS  H18R 1140   6.041   3.409   8.448 -1.3940 -1.3598 -1.5902
    9SAPS  H18S 1141   5.886   3.401   8.515  1.1388 -1.0998 -0.0611
    9SAPS  C219 1142   6.025   3.544   8.622 -0.0089  0.1915  0.2261
    9SAPS  H19R 1143   5.930   3.587   8.660  0.5986  0.8358  1.0477
    9SAPS  H19S 1144   6.091   3.628   8.591 -0.3731  0.4469  0.1315
    9SAPS  C220 1145   6.076   3.439   8.722  0.6133  0.8899  0.5144
    9SAPS  H20R 1146   6.108   3.482   8.819  0.0981  1.7019  0.3286
    9SAPS  H20S 1147   6.153   3.376   8.673 -0.6717 -0.8617  0.6266
    9SAPS  H20T 1148   5.991   3.370   8.745  0.7474  0.5316 -0.0395
    9SAPS   C33 1149   5.320   3.622   7.057 -0.1973 -0.2999 -0.8242
    9SAPS   H3X 1150   5.421   3.587   7.084 -0.2287 -0.0340 -0.3499
    9SAPS   H3Y 1151   5.256   3.536   7.028 -0.3608  0.4695 -2.9804
    9SAPS   C34 1152   5.255   3.702   7.170 -0.5260 -0.0618 -0.3769
    9SAPS   H4X 1153   5.157   3.737   7.131 -1.0637  0.8285  1.6233
    9SAPS   H4Y 1154   5.312   3.794   7.197 -2.6356  0.9197  1.0717
    9SAPS   C35 1155   5.227   3.613   7.294  0.1283  0.0692 -0.5225
    9SAPS   H5X 1156   5.184   3.521   7.249 -0.7853  1.1116 -1.8315
    9SAPS   H5Y 1157   5.148   3.659   7.357  0.6035 -0.0861  0.2151
    9SAPS   C36 1158   5.348   3.572   7.376  0.5199 -0.3040  0.0749
    9SAPS   H6X 1159   5.403   3.657   7.422  2.3799 -1.5530  0.2643
    9SAPS   H6Y 1160   5.414   3.514   7.309  0.4940 -0.5750  0.2790
    9SAPS   C37 1161   5.309   3.462   7.472 -0.4291  0.3136 -0.6669
    9SAPS   H7X 1162   5.391   3.390   7.492 -0.0064  1.1503  0.8032
    9SAPS   H7Y 1163   5.220   3.412   7.428 -2.3044  1.3263  1.6892
    9SAPS   C38 1164   5.247   3.512   7.608 -0.1128 -0.0376  0.6311
    9SAPS   H8X 1165   5.183   3.428   7.643 -1.9747  0.0987 -2.1183
    9SAPS   H8Y 1166   5.189   3.605   7.595 -2.1474 -0.9191  2.6945
    9SAPS   C39 1167   5.357   3.539   7.711 -0.2182 -0.7107 -0.4787
    9SAPS   H9X 1168   5.430   3.619   7.687 -1.9867  0.5180 -2.0825
    9SAPS   H9Y 1169   5.407   3.440   7.708  0.1235 -0.5070 -1.5312
    9SAPS  C310 1170   5.311   3.570   7.849  0.1325  0.6181 -0.4615
    9SAPS  H10X 1171   5.220   3.512   7.874  0.1730  0.0741 -1.5309
    9SAPS  H10Y 1172   5.298   3.680   7.863  0.7849  0.5285  1.0612
    9SAPS  C311 1173   5.408   3.502   7.953 -0.0298  0.0869  0.3211
    9SAPS  H11X 1174   5.395   3.562   8.046  0.9239 -0.3728  0.7684
    9SAPS  H11Y 1175   5.512   3.518   7.915 -0.2989  0.1749 -0.3947
    9SAPS  C312 1176   5.391   3.351   7.990 -0.3780 -0.3975  0.5248
    9SAPS  H12X 1177   5.440   3.295   7.908  0.2193  0.4392  0.2896
    9SAPS  H12Y 1178   5.284   3.324   7.992  0.1945 -2.8975  2.7451
    9SAPS  C313 1179   5.455   3.295   8.118  0.5260  0.2949 -0.0350
    9SAPS  H13X 1180   5.560   3.332   8.111  0.4699  0.2287 -1.8883
    9SAPS  H13Y 1181   5.445   3.185   8.120 -0.1681  0.3524  1.8611
    9SAPS  C314 1182   5.398   3.341   8.252  0.3202  0.1428 -0.2433
    9SAPS  H14X 1183   5.296   3.302   8.267  0.3016  1.0728  2.9978
    9SAPS  H14Y 1184   5.394   3.452   8.241 -2.9380  0.1632  0.1545
    9SAPS  C315 1185   5.480   3.304   8.377  0.2442  0.8324  0.1750
    9SAPS  H15X 1186   5.416   3.325   8.465  0.4944  4.0786 -0.2935
    9SAPS  H15Y 1187   5.568   3.372   8.380 -1.7254  3.5469  0.2492
    9SAPS  C316 1188   5.503   3.153   8.379 -0.0121 -0.9612 -0.5788
    9SAPS  H16X 1189   5.589   3.127   8.314  1.5852 -1.9039  1.7533
    9SAPS  H16Y 1190   5.416   3.100   8.335 -0.7472 -0.5970  0.4042
    9SAPS  C317 1191   5.526   3.107   8.527  0.3291  0.7628  0.1873
    9SAPS  H17X 1192   5.428   3.122   8.578 -1.7757 -0.3681 -3.1513
    9SAPS  H17Y 1193   5.602   3.169   8.579 -0.0272  2.1500 -0.9041
    9SAPS  C318 1194   5.556   2.954   8.553 -0.2205 -0.4725  0.1924
    9SAPS  H18X 1195   5.632   2.925   8.478 -0.1797 -0.1407  0.1046
    9SAPS  H18Y 1196   5.461   2.905   8.522 -0.3861  0.6577 -1.1896
    9SAPS  H18Z 1197   5.592   2.929   8.655  0.2861 -1.1517 -0.1475
   10SAPS     N 1198   6.507   2.202   6.333  0.0153 -0.3267  0.2612
   10SAPS   HN1 1199   6.461   2.200   6.426 -0.3444  1.7301  0.1888
   10SAPS   HN2 1200   6.432   2.202   6.261 -1.2475  3.0340  1.3664
   10SAPS   HN3 1201   6.567   2.117   6.332 -0.7721 -0.9364  2.0789
   10SAPS   C12 1202   6.585   2.329   6.326 -0.3722 -0.1326  0.4151
   10SAPS  H12A 1203   6.636   2.342   6.420 -4.7673 -1.4421  3.2984
   10SAPS   C13 1204   6.683   2.340   6.208 -0.3418  0.5044 -0.4150
   10SAPS  O13A 1205   6.707   2.237   6.137  0.2049 -0.1191  0.3128
   10SAPS  O13B 1206   6.747   2.446   6.194 -0.0053  0.1662 -0.1921
   10SAPS   C11 1207   6.490   2.454   6.311 -1.1898  0.7007  0.6372
   10SAPS  H11A 1208   6.469   2.471   6.203  0.3562  1.9246  0.4876
   10SAPS  H11B 1209   6.547   2.541   6.347  1.4198 -0.8523  0.5486
   10SAPS     P 1210   6.296   2.563   6.426 -0.4259 -0.0042 -0.1595
   10SAPS   O13 1211   6.330   2.683   6.347  0.0896  0.0686  0.3667
   10SAPS   O14 1212   6.156   2.528   6.456  0.1618  0.5110  0.3909
   10SAPS   O12 1213   6.361   2.432   6.366  0.0411  0.0651 -0.5016
   10SAPS   O11 1214   6.373   2.591   6.555 -0.2941 -0.6256  0.4313
   10SAPS    C1 1215   6.411   2.479   6.636  0.6811 -0.3572 -0.2086
   10SAPS    HA 1216   6.330   2.402   6.644 -0.7822  1.0282 -1.2006
   10SAPS    HB 1217   6.510   2.434   6.615 -0.5970 -2.6094 -1.9099
   10SAPS    C2 1218   6.425   2.525   6.784 -0.4074 -0.1422 -0.4985
   10SAPS    HS 1219   6.340   2.596   6.798 -1.1565 -1.1084 -0.0231
   10SAPS   O21 1220   6.555   2.592   6.783  0.4935  0.0935  0.0300
   10SAPS   C21 1221   6.559   2.693   6.865  0.7793 -0.1074 -0.0191
   10SAPS   O22 1222   6.461   2.739   6.917 -0.0438  0.0920  0.0343
   10SAPS   C22 1223   6.704   2.750   6.883 -0.7180 -0.3310  0.0938
   10SAPS   H2R 1224   6.769   2.662   6.901 -3.0620 -2.5208 -1.3485
   10SAPS   H2S 1225   6.729   2.798   6.786 -1.0636  0.6945  0.5094
   10SAPS    C3 1226   6.420   2.418   6.897 -0.4883  0.5914  0.8689
   10SAPS    HX 1227   6.507   2.354   6.871 -0.4102  0.6642  0.9472
   10SAPS    HY 1228   6.334   2.351   6.873 -0.7534  0.8786  1.0176
   10SAPS   O31 1229   6.427   2.463   7.039  0.2683  0.7479 -0.0239
   10SAPS   C31 1230   6.314   2.513   7.087 -0.5245  0.1686 -0.1302
   10SAPS   O32 1231   6.218   2.535   7.018  0.1557  0.4611 -0.0604
   10SAPS   C32 1232   6.329   2.534   7.236  0.4597 -1.0053  0.1909
   10SAPS   H2X 1233   6.402   2.613   7.264  0.9143 -1.8142  1.3200
   10SAPS   H2Y 1234   6.373   2.444   7.284 -0.2387 -1.0724  0.7213
   10SAPS   C23 1235   6.700   2.852   7.001  0.4228 -0.6820 -0.0040
   10SAPS   H3R 1236   6.601   2.902   7.000 -0.4858 -2.3838  0.1361
   10SAPS   H3S 1237   6.780   2.929   6.992  0.8480 -1.2097 -0.8796
   10SAPS   C24 1238   6.736   2.794   7.141 -0.4172 -0.1942  0.1533
   10SAPS   H4R 1239   6.832   2.739   7.137 -0.6600 -0.6267  0.1792
   10SAPS   H4S 1240   6.657   2.719   7.160 -1.7124  0.7027 -1.3665
   10SAPS   C25 1241   6.721   2.896   7.256 -0.7817 -0.7353  0.5474
   10SAPS   H5R 1242   6.736   2.999   7.221  0.0900 -0.1677  2.4306
   10SAPS   C26 1243   6.707   2.867   7.386  0.2922  0.3567 -0.4467
   10SAPS   H6R 1244   6.729   2.949   7.456  2.1006  0.6942 -1.3493
   10SAPS   C27 1245   6.692   2.733   7.460 -0.5040 -0.3334 -0.0982
   10SAPS   H7R 1246   6.775   2.735   7.533 -0.4286  1.5623 -0.1799
   10SAPS   H7S 1247   6.712   2.659   7.379 -2.7767 -2.0891  0.8447
   10SAPS   C28 1248   6.559   2.716   7.527  0.0032 -0.2689 -0.6295
   10SAPS   H8R 1249   6.473   2.742   7.463 -1.1128 -0.3647  0.7948
   10SAPS   C29 1250   6.526   2.691   7.657 -0.5965  0.7352  0.6023
   10SAPS   H9R 1251   6.421   2.669   7.682 -0.8841  0.9329 -0.3927
   10SAPS  C210 1252   6.626   2.663   7.765 -0.1848 -0.6874 -0.0097
   10SAPS  H10R 1253   6.568   2.660   7.859 -1.1755  0.4615 -0.5527
   10SAPS  H10S 1254   6.699   2.746   7.777  2.1404 -2.3257 -1.8125
   10SAPS  C211 1255   6.702   2.536   7.743 -0.4071 -0.3965  0.1056
   10SAPS  H11R 1256   6.715   2.508   7.637  0.8993  1.4217 -0.2693
   10SAPS  C212 1257   6.772   2.470   7.829  0.0100 -0.1000 -0.4075
   10SAPS  H12R 1258   6.820   2.376   7.800  2.7766  0.5352  1.7511
   10SAPS  C213 1259   6.792   2.507   7.970 -0.7066 -0.0671 -0.2210
   10SAPS  H13R 1260   6.773   2.616   7.976  0.9742  0.4020 -2.3166
   10SAPS  H13S 1261   6.900   2.492   7.987 -0.6712 -0.1671 -0.5271
   10SAPS  C214 1262   6.726   2.420   8.076  0.0530 -0.2591  0.2421
   10SAPS  H14R 1263   6.620   2.397   8.058 -0.0509 -0.0114  0.5309
   10SAPS  C215 1264   6.784   2.367   8.182 -0.8227  0.2963 -0.4178
   10SAPS  H15R 1265   6.719   2.316   8.255 -2.4911  0.8309 -1.4811
   10SAPS  C216 1266   6.929   2.382   8.235 -0.2568 -0.2849 -0.5330
   10SAPS  H16R 1267   6.995   2.412   8.151  0.9762 -0.2884  0.4091
   10SAPS  H16S 1268   6.980   2.298   8.286  1.1821  2.0199  2.1066
   10SAPS  C217 1269   6.935   2.500   8.333  0.0831 -0.4093 -0.2252
   10SAPS  H17R 1270   6.889   2.598   8.306 -1.9662 -1.5128 -0.9742
   10SAPS  H17S 1271   7.042   2.528   8.343 -0.0472  0.0641 -0.0829
   10SAPS  C218 1272   6.869   2.465   8.467  0.1730  0.4917  0.1715
   10SAPS  H18R 1273   6.904   2.364   8.501 -1.2975  0.3967  1.5092
   10SAPS  H18S 1274   6.759   2.465   8.456  0.2452  2.3129 -0.8335
   10SAPS  C219 1275   6.900   2.575   8.576 -0.3941  0.0343  0.3196
   10SAPS  H19R 1276   6.834   2.559   8.664 -0.3079 -1.7814  0.0950
   10SAPS  H19S 1277   6.891   2.675   8.529 -1.9538 -1.2631 -2.4489
   10SAPS  C220 1278   7.041   2.561   8.628  0.7355 -0.3198  0.1243
   10SAPS  H20R 1279   7.052   2.612   8.726  1.3421  0.0849 -0.1520
   10SAPS  H20S 1280   7.111   2.601   8.551 -0.7443 -0.8595 -1.5847
   10SAPS  H20T 1281   7.079   2.458   8.646  4.0118  0.7402 -0.0566
   10SAPS   C33 1282   6.194   2.575   7.296 -0.6070  0.2658 -0.2031
   10SAPS   H3X 1283   6.123   2.490   7.295 -0.4977 -0.0026  3.2894
   10SAPS   H3Y 1284   6.159   2.663   7.236  3.7787  1.5420 -1.2750
   10SAPS   C34 1285   6.203   2.613   7.439  0.3212 -0.0362 -0.4175
   10SAPS   H4X 1286   6.272   2.699   7.457 -1.3408  0.8663  2.1997
   10SAPS   H4Y 1287   6.232   2.530   7.507 -1.2289 -0.3462 -0.0998
   10SAPS   C35 1288   6.065   2.660   7.495 -0.0311 -0.7743  0.5899
   10SAPS   H5X 1289   5.989   2.579   7.499 -0.2352 -0.5106  3.0413
   10SAPS   H5Y 1290   6.025   2.745   7.435  0.1073 -0.3076  1.1500
   10SAPS   C36 1291   6.083   2.708   7.639 -0.6715 -0.1348  0.4549
   10SAPS   H6X 1292   6.159   2.789   7.635 -0.3631 -0.4680 -0.7942
   10SAPS   H6Y 1293   6.118   2.623   7.701  0.6428 -0.3943 -0.5869
   10SAPS   C37 1294   5.958   2.766   7.695  0.3739 -0.5040 -0.1628
   10SAPS   H7X 1295   5.943   2.860   7.637  2.2556 -1.2923 -2.0435
   10SAPS   H7Y 1296   5.977   2.797   7.800  3.6736  1.0462 -1.0867
   10SAPS   C38 1297   5.830   2.683   7.682  0.1772 -0.2964 -0.2009
   10SAPS   H8X 1298   5.807   2.677   7.573  1.4744 -1.4010 -0.4538
   10SAPS   H8Y 1299   5.746   2.743   7.722 -1.7103 -1.5291 -2.0726
   10SAPS   C39 1300   5.833   2.550   7.768  0.5491 -0.4777  0.3218
   10SAPS   H9X 1301   5.918   2.498   7.719  0.8921  2.2581 -2.2397
   10SAPS   H9Y 1302   5.739   2.495   7.747 -0.5869  0.6065  2.2613
   10SAPS  C310 1303   5.851   2.563   7.920 -0.0477 -0.2838  0.0848
   10SAPS  H10X 1304   5.779   2.640   7.955 -0.8455 -0.2148 -1.6290
   10SAPS  H10Y 1305   5.949   2.612   7.938 -0.3846 -0.0911  1.5633
   10SAPS  C311 1306   5.854   2.434   7.994  0.1199 -0.1872 -0.4333
   10SAPS  H11X 1307   5.952   2.386   7.972  0.2124  0.4874 -1.5855
   10SAPS  H11Y 1308   5.783   2.362   7.948 -1.9463 -0.1187  2.4105
   10SAPS  C312 1309   5.810   2.443   8.143  0.3836 -0.2269 -0.0370
   10SAPS  H12X 1310   5.701   2.462   8.139  0.4941  0.2891 -0.5964
   10SAPS  H12Y 1311   5.848   2.538   8.185  0.0850  0.8824 -2.1829
   10SAPS  C313 1312   5.847   2.326   8.231 -0.2301  0.7145  0.2175
   10SAPS  H13X 1313   5.815   2.342   8.336 -1.2083 -0.3742  0.1117
   10SAPS  H13Y 1314   5.958   2.326   8.229 -0.0560 -3.5195  0.6442
   10SAPS  C314 1315   5.804   2.190   8.177 -0.1306  0.1836  0.4858
   10SAPS  H14X 1316   5.891   2.126   8.149 -1.3837 -1.2791 -0.2010
   10SAPS  H14Y 1317   5.757   2.209   8.079 -1.4877 -0.6428  0.9426
   10SAPS  C315 1318   5.704   2.118   8.271  0.9397  0.0052 -0.3720
   10SAPS  H15X 1319   5.626   2.193   8.299  2.0687 -0.0853  3.5293
   10SAPS  H15Y 1320   5.764   2.088   8.359  0.6666 -1.6351 -0.7226
   10SAPS  C316 1321   5.624   2.007   8.208 -0.6213  0.3321 -0.0669
   10SAPS  H16X 1322   5.551   2.033   8.128  0.6531  2.1875 -0.7096
   10SAPS  H16Y 1323   5.550   1.969   8.281  1.5974 -0.2452  2.0079
   10SAPS  C317 1324   5.709   1.882   8.174 -0.0741  0.0245  0.5692
   10SAPS  H17X 1325   5.756   1.849   8.269 -0.9903  2.9844  2.1737
   10SAPS  H17Y 1326   5.796   1.906   8.109  0.4256 -2.1852  0.3496
   10SAPS  C318 1327   5.631   1.765   8.106  0.0100 -0.0963 -1.0978
   10SAPS  H18X 1328   5.535   1.746   8.158 -0.3798 -1.1477 -2.1512
   10SAPS  H18Y 1329   5.682   1.667   8.118 -0.0527 -0.0922 -0.8003
   10SAPS  H18Z 1330   5.618   1.777   7.996  0.3337 -3.8000 -1.6655
   11SAPS     N 1331   1.379   0.332   5.724 -0.0779 -0.2705  0.1010
   11SAPS   HN1 1332   1.282   0.370   5.728 -0.5383 -1.4910  0.9974
   11SAPS   HN2 1333   1.418   0.330   5.820 -0.5351 -2.0844  0.2811
   11SAPS   HN3 1334   1.441   0.399   5.674 -0.9757  1.8394  1.6566
   11SAPS   C12 1335   1.372   0.196   5.673  0.1830 -0.2161  0.3285
   11SAPS  H12A 1336   1.349   0.203   5.568  1.4017 -1.2358 -0.0412
   11SAPS   C13 1337   1.504   0.113   5.682  0.3034  0.0139 -0.0823
   11SAPS  O13A 1338   1.608   0.156   5.732 -0.3820  0.2363  0.4756
   11SAPS  O13B 1339   1.486  -0.003   5.648 -0.5915  0.1163  0.0377
   11SAPS   C11 1340   1.266   0.128   5.762  0.6532  0.3839  0.4199
   11SAPS  H11A 1341   1.300   0.129   5.867  1.3138  2.2295  0.2318
   11SAPS  H11B 1342   1.264   0.021   5.731 -0.5918  0.9461 -1.7133
   11SAPS     P 1343   1.025   0.147   5.841 -0.2095  0.2513  0.0806
   11SAPS   O13 1344   0.901   0.221   5.828  0.0565 -0.2637 -0.6432
   11SAPS   O14 1345   1.014   0.000   5.822 -0.3594  0.2029  0.1741
   11SAPS   O12 1346   1.142   0.198   5.752 -0.1908  0.1342 -0.2556
   11SAPS   O11 1347   1.084   0.171   5.990  0.1194  0.2422  0.2527
   11SAPS    C1 1348   1.094   0.303   6.044  0.6129  0.1925  0.1966
   11SAPS    HA 1349   1.202   0.324   6.057  0.5777  0.4246  0.1317
   11SAPS    HB 1350   1.056   0.380   5.972  0.9266 -0.1014 -0.2901
   11SAPS    C2 1351   1.035   0.324   6.188  0.0186 -0.5088 -0.2010
   11SAPS    HS 1352   1.063   0.427   6.220 -1.2661  0.3246 -1.6727
   11SAPS   O21 1353   1.080   0.212   6.275 -0.2916  0.3448  0.2138
   11SAPS   C21 1354   1.191   0.244   6.337 -0.6081 -0.3421  0.0708
   11SAPS   O22 1355   1.262   0.343   6.317  0.1332 -0.4623  0.4121
   11SAPS   C22 1356   1.215   0.143   6.450  0.1432  0.4310 -0.7362
   11SAPS   H2R 1357   1.173   0.045   6.420 -0.2972 -0.7800  3.2456
   11SAPS   H2S 1358   1.325   0.137   6.465 -0.0324  0.9444  1.0092
   11SAPS    C3 1359   0.883   0.331   6.183 -0.0738  0.7155  0.5565
   11SAPS    HX 1360   0.841   0.231   6.157  3.8245 -1.9596  3.4259
   11SAPS    HY 1361   0.846   0.395   6.101 -1.1036 -0.7173 -0.1406
   11SAPS   O31 1362   0.830   0.377   6.310  1.1909  0.2031  0.1446
   11SAPS   C31 1363   0.749   0.294   6.368 -0.0078  0.0604  0.3848
   11SAPS   O32 1364   0.713   0.185   6.333 -0.0313  0.2579  0.1358
   11SAPS   C32 1365   0.694   0.375   6.484  0.4102 -0.3890 -0.0464
   11SAPS   H2X 1366   0.663   0.477   6.451  2.3323  0.5381  0.8317
   11SAPS   H2Y 1367   0.774   0.391   6.560 -0.0633 -1.5713  0.7126
   11SAPS   C23 1368   1.165   0.187   6.587  0.5976  0.1143 -0.2758
   11SAPS   H3R 1369   1.216   0.275   6.633  0.1483  0.6088 -0.7210
   11SAPS   H3S 1370   1.188   0.113   6.667  1.1955 -1.5183 -1.8903
   11SAPS   C24 1371   1.012   0.210   6.591 -0.4669  0.4505  1.4631
   11SAPS   H4R 1372   0.978   0.271   6.504 -1.1533 -4.3852 -2.0496
   11SAPS   H4S 1373   0.989   0.264   6.686 -0.9192  0.3035  1.4406
   11SAPS   C25 1374   0.925   0.083   6.592 -0.3713 -0.0606 -0.5319
   11SAPS   H5R 1375   0.897   0.044   6.493  0.4744 -0.8796 -0.4705
   11SAPS   C26 1376   0.874   0.028   6.705 -0.6068 -0.6404 -0.7388
   11SAPS   H6R 1377   0.817  -0.066   6.702 -1.1699 -0.3811 -4.8064
   11SAPS   C27 1378   0.902   0.083   6.842  0.1030 -0.5084 -0.3940
   11SAPS   H7R 1379   0.996   0.142   6.853  1.1946 -2.3753  1.1138
   11SAPS   H7S 1380   0.915  -0.007   6.907 -1.6989 -0.4446  0.0926
   11SAPS   C28 1381   0.798   0.162   6.915  0.2363  0.0339 -0.2674
   11SAPS   H8R 1382   0.696   0.167   6.874  0.1353 -1.8696 -0.3195
   11SAPS   C29 1383   0.821   0.234   7.031 -0.0033  0.0471  0.3165
   11SAPS   H9R 1384   0.744   0.300   7.072 -0.4313 -0.3893  0.2166
   11SAPS  C210 1385   0.949   0.239   7.106 -0.1247  0.3109 -0.2094
   11SAPS  H10R 1386   1.028   0.171   7.068  0.1164  0.2819  0.3363
   11SAPS  H10S 1387   0.932   0.203   7.210 -0.6006  1.1145  0.0017
   11SAPS  C211 1388   1.017   0.374   7.104 -0.1242  0.0590  0.0730
   11SAPS  H11R 1389   1.065   0.391   7.007 -0.7271 -3.4261 -0.9774
   11SAPS  C212 1390   1.035   0.452   7.214 -0.0038  0.1682  0.1587
   11SAPS  H12R 1391   1.090   0.546   7.197  0.4884 -0.6207 -3.4397
   11SAPS  C213 1392   0.984   0.430   7.357 -0.2471 -0.3748 -0.7542
   11SAPS  H13R 1393   1.027   0.339   7.404 -0.3187 -0.3855 -0.7082
   11SAPS  H13S 1394   0.879   0.393   7.354 -1.2976  2.0428  1.6018
   11SAPS  C214 1395   1.010   0.567   7.430 -0.5041  0.2776 -0.5780
   11SAPS  H14R 1396   0.958   0.653   7.386 -0.8229  0.8056  0.7656
   11SAPS  C215 1397   1.097   0.582   7.528 -0.6653  0.7640 -1.2402
   11SAPS  H15R 1398   1.117   0.683   7.566 -1.8794  0.6317 -0.2060
   11SAPS  C216 1399   1.183   0.471   7.607 -0.1295 -0.3356 -0.0437
   11SAPS  H16R 1400   1.281   0.511   7.641 -0.1520  0.7128 -1.1255
   11SAPS  H16S 1401   1.205   0.393   7.531 -1.0663 -1.0259  0.3785
   11SAPS  C217 1402   1.125   0.387   7.730  0.1243  0.0825  0.2289
   11SAPS  H17R 1403   1.198   0.310   7.763  1.6721  1.6515  0.6455
   11SAPS  H17S 1404   1.030   0.345   7.692  0.5884 -2.1058  1.3031
   11SAPS  C218 1405   1.095   0.478   7.846  0.2939 -0.0950  0.5494
   11SAPS  H18R 1406   1.027   0.558   7.811  2.6089  1.6900 -0.1086
   11SAPS  H18S 1407   1.186   0.534   7.876 -0.0418  0.1056  1.2248
   11SAPS  C219 1408   1.052   0.406   7.982  0.3229  0.2605 -0.6218
   11SAPS  H19R 1409   1.026   0.486   8.054  0.9028  1.7644 -2.0075
   11SAPS  H19S 1410   1.129   0.340   8.026 -1.3916 -2.5785 -1.5602
   11SAPS  C220 1411   0.922   0.322   7.971  0.0676  0.3341 -0.7537
   11SAPS  H20R 1412   0.850   0.367   7.898 -2.1466 -2.3344 -0.3619
   11SAPS  H20S 1413   0.873   0.327   8.070 -0.0995  3.1931 -0.8969
   11SAPS  H20T 1414   0.945   0.220   7.933 -3.5885 -0.9508  0.0293
   11SAPS   C33 1415   0.592   0.305   6.573 -0.0385  0.3726  0.3614
   11SAPS   H3X 1416   0.654   0.234   6.631 -1.2946 -1.4728 -0.4747
   11SAPS   H3Y 1417   0.516   0.240   6.525  0.5685 -0.1559  0.1102
   11SAPS   C34 1418   0.503   0.397   6.659  0.8614  0.4893  0.3714
   11SAPS   H4X 1419   0.422   0.346   6.715 -0.3701  0.7188 -1.1251
   11SAPS   H4Y 1420   0.447   0.466   6.593 -3.4036 -3.0335 -0.0917
   11SAPS   C35 1421   0.582   0.471   6.770  0.7276 -0.3777  0.3244
   11SAPS   H5X 1422   0.672   0.517   6.723  0.2255  1.0030  0.6529
   11SAPS   H5Y 1423   0.613   0.401   6.850  1.3098 -0.6044 -0.0935
   11SAPS   C36 1424   0.497   0.585   6.822 -0.7830 -1.2164 -0.2521
   11SAPS   H6X 1425   0.393   0.557   6.852 -1.0913  1.6721  1.7961
   11SAPS   H6Y 1426   0.481   0.653   6.736  2.8484 -1.7973 -1.5800
   11SAPS   C37 1427   0.574   0.666   6.924  0.8167 -0.2873  0.1070
   11SAPS   H7X 1428   0.512   0.757   6.943  2.1754  0.8921 -0.8476
   11SAPS   H7Y 1429   0.671   0.699   6.880  0.6117  0.9509  0.5517
   11SAPS   C38 1430   0.589   0.599   7.064  0.2813 -0.2653 -0.3718
   11SAPS   H8X 1431   0.677   0.532   7.054  0.7694  0.1724  0.7976
   11SAPS   H8Y 1432   0.496   0.550   7.102 -1.9957  3.7306 -0.1827
   11SAPS   C39 1433   0.629   0.694   7.176 -0.2400 -0.0154 -0.2381
   11SAPS   H9X 1434   0.565   0.785   7.181 -1.3448 -0.8455  2.3714
   11SAPS   H9Y 1435   0.732   0.732   7.158 -0.1647 -0.0952  0.0211
   11SAPS  C310 1436   0.624   0.614   7.309 -0.7428 -0.6013  0.9255
   11SAPS  H10X 1437   0.699   0.532   7.309  0.9923  0.8351 -1.7399
   11SAPS  H10Y 1438   0.524   0.565   7.315 -0.9545 -0.3987 -0.6503
   11SAPS  C311 1439   0.643   0.694   7.445  0.6771  0.0377  0.5445
   11SAPS  H11X 1440   0.563   0.770   7.457 -1.1016 -1.7369  0.6031
   11SAPS  H11Y 1441   0.745   0.736   7.435  0.1625  1.2249  0.0388
   11SAPS  C312 1442   0.647   0.605   7.573 -0.6084  0.5233  0.0166
   11SAPS  H12X 1443   0.733   0.534   7.569 -0.6456  0.5165 -3.1491
   11SAPS  H12Y 1444   0.560   0.536   7.574  1.3351 -2.1004 -0.0728
   11SAPS  C313 1445   0.659   0.680   7.707 -0.2179  0.0987  0.3285
   11SAPS  H13X 1446   0.567   0.738   7.729 -0.2086  0.1125  0.3306
   11SAPS  H13Y 1447   0.748   0.746   7.705  0.2618 -0.5340  0.5237
   11SAPS  C314 1448   0.670   0.576   7.821  0.1749 -0.1970  0.4101
   11SAPS  H14X 1449   0.767   0.527   7.799  0.1498  0.2620 -0.7636
   11SAPS  H14Y 1450   0.593   0.496   7.817  1.0035 -1.0704  1.2343
   11SAPS  C315 1451   0.658   0.637   7.958 -0.3342 -0.6530 -0.3361
   11SAPS  H15X 1452   0.644   0.563   8.040  0.6442  1.1120  1.5384
   11SAPS  H15Y 1453   0.568   0.702   7.964 -0.0546 -0.3396  0.7254
   11SAPS  C316 1454   0.778   0.735   7.982 -0.1612  0.2400  0.0263
   11SAPS  H16X 1455   0.783   0.817   7.907 -0.8114 -0.4709 -0.8156
   11SAPS  H16Y 1456   0.875   0.686   7.961  0.2464  2.1150 -3.0540
   11SAPS  C317 1457   0.792   0.798   8.124  0.3527 -0.0107 -0.5479
   11SAPS  H17X 1458   0.714   0.875   8.141  0.7273 -0.1845  2.6221
   11SAPS  H17Y 1459   0.884   0.859   8.134  1.4937 -1.9289  1.5538
   11SAPS  C318 1460   0.792   0.704   8.239 -0.2934  0.1763 -0.2770
   11SAPS  H18X 1461   0.705   0.635   8.235 -0.7751  0.7557 -0.1212
   11SAPS  H18Y 1462   0.810   0.746   8.340  1.0599  0.5187 -0.6406
   11SAPS  H18Z 1463   0.880   0.647   8.204  0.6279  0.5788  1.2962
   12SAPS     N 1464   1.257   1.492   5.676 -0.4860  0.2886 -0.2086
   12SAPS   HN1 1465   1.272   1.408   5.736 -1.1700  0.6726  0.5122
   12SAPS   HN2 1466   1.267   1.459   5.578  0.3496 -0.0645 -0.0125
   12SAPS   HN3 1467   1.322   1.566   5.710 -0.9323  1.3249 -1.5296
   12SAPS   C12 1468   1.117   1.542   5.701  0.2173  0.1271  0.4545
   12SAPS  H12A 1469   1.113   1.639   5.655  0.4431 -0.2450 -0.3580
   12SAPS   C13 1470   0.996   1.456   5.648  0.4057 -0.0770  0.0706
   12SAPS  O13A 1471   1.016   1.340   5.592 -0.4425 -0.0630  0.2775
   12SAPS  O13B 1472   0.887   1.523   5.633 -0.0225 -0.2689  0.1320
   12SAPS   C11 1473   1.094   1.575   5.853 -0.2297  0.2029 -0.4674
   12SAPS  H11A 1474   1.114   1.484   5.913  3.2894  0.6703 -0.7126
   12SAPS  H11B 1475   0.985   1.597   5.856 -1.0326 -2.9510 -2.2057
   12SAPS     P 1476   1.122   1.797   5.981  0.2135 -0.1043  0.3540
   12SAPS   O13 1477   1.227   1.896   6.006  0.0013  0.0005 -0.0163
   12SAPS   O14 1478   0.997   1.842   5.919 -0.3053 -0.1791  0.3777
   12SAPS   O12 1479   1.189   1.678   5.901  0.5854  0.0630  0.5892
   12SAPS   O11 1480   1.080   1.722   6.111  0.1668 -0.4299 -0.4900
   12SAPS    C1 1481   1.174   1.645   6.182  0.4661 -0.8187  0.7559
   12SAPS    HA 1482   1.144   1.540   6.160 -1.6814  0.3689 -2.6888
   12SAPS    HB 1483   1.279   1.663   6.149  0.8060 -2.4957  0.8154
   12SAPS    C2 1484   1.183   1.668   6.332 -0.2091  0.2269  0.8667
   12SAPS    HS 1485   1.236   1.578   6.371  1.1592 -0.3251 -1.9371
   12SAPS   O21 1486   1.054   1.697   6.391 -0.0613  0.2353  0.3200
   12SAPS   C21 1487   0.957   1.615   6.388 -0.1480  0.2163 -0.0958
   12SAPS   O22 1488   0.956   1.501   6.346  0.5848 -0.4629 -0.9084
   12SAPS   C22 1489   0.829   1.674   6.458 -0.3824 -0.8607  0.7457
   12SAPS   H2R 1490   0.797   1.748   6.382  2.7824 -0.8853 -0.7753
   12SAPS   H2S 1491   0.758   1.589   6.463  0.9150 -2.0499 -0.1967
   12SAPS    C3 1492   1.274   1.785   6.370  0.1266  0.7181  0.3513
   12SAPS    HX 1493   1.230   1.874   6.319 -1.4242  0.2425  0.8223
   12SAPS    HY 1494   1.375   1.765   6.327 -0.5303  2.0928 -2.0429
   12SAPS   O31 1495   1.272   1.801   6.515 -0.4124  0.4253  0.1376
   12SAPS   C31 1496   1.370   1.741   6.585 -0.9258  0.2175 -0.0699
   12SAPS   O32 1497   1.454   1.671   6.537  0.1397 -0.2447 -0.0527
   12SAPS   C32 1498   1.338   1.755   6.731 -0.3830  0.0201 -0.2609
   12SAPS   H2X 1499   1.236   1.717   6.750 -0.7707  0.1321 -1.9896
   12SAPS   H2Y 1500   1.331   1.862   6.762 -1.7034 -0.6199  1.8657
   12SAPS   C23 1501   0.855   1.728   6.603  0.2482 -0.1938 -0.0849
   12SAPS   H3R 1502   0.936   1.803   6.599 -0.2671  0.3241 -2.5577
   12SAPS   H3S 1503   0.878   1.646   6.673  0.7476 -1.3280 -1.5200
   12SAPS   C24 1504   0.719   1.794   6.664 -0.0664  0.6042 -0.1133
   12SAPS   H4R 1505   0.672   1.873   6.601 -2.2784  0.4634  1.2507
   12SAPS   H4S 1506   0.748   1.851   6.754  2.5549 -1.0104  0.1557
   12SAPS   C25 1507   0.613   1.689   6.704  0.9432 -0.7648 -0.1313
   12SAPS   H5R 1508   0.562   1.648   6.615 -2.3819 -1.8474  2.0778
   12SAPS   C26 1509   0.568   1.654   6.825  0.1581  0.2255 -0.1481
   12SAPS   H6R 1510   0.497   1.570   6.832 -1.3131  1.3111 -1.4687
   12SAPS   C27 1511   0.616   1.700   6.954 -0.1346 -0.2542 -0.1745
   12SAPS   H7R 1512   0.719   1.742   6.947 -0.0204 -0.4827  0.0948
   12SAPS   H7S 1513   0.633   1.602   7.003 -0.0604 -1.7242 -2.9654
   12SAPS   C28 1514   0.518   1.799   7.021 -0.4154  1.0963 -0.0130
   12SAPS   H8R 1515   0.446   1.850   6.956 -2.0757  0.1813  1.0608
   12SAPS   C29 1516   0.514   1.818   7.153 -0.5070  0.4514  0.3040
   12SAPS   H9R 1517   0.442   1.894   7.187 -2.7532 -0.0443 -2.9557
   12SAPS  C210 1518   0.606   1.738   7.252  0.7200  0.2419 -0.0599
   12SAPS  H10R 1519   0.698   1.800   7.260  0.1973  1.0506 -0.1409
   12SAPS  H10S 1520   0.630   1.637   7.214  0.7763 -0.4497  1.7076
   12SAPS  C211 1521   0.526   1.741   7.385 -0.5038  0.3236 -0.3229
   12SAPS  H11R 1522   0.426   1.697   7.383 -0.9491  1.2472  0.7989
   12SAPS  C212 1523   0.571   1.787   7.501  0.5267  0.0586 -0.0836
   12SAPS  H12R 1524   0.502   1.775   7.586  1.4342  0.6756  0.7757
   12SAPS  C213 1525   0.706   1.841   7.530 -0.1622 -0.1001  0.0304
   12SAPS  H13R 1526   0.773   1.806   7.449 -2.7896  0.5671 -2.6006
   12SAPS  H13S 1527   0.743   1.810   7.630 -0.9179  1.2397  0.7511
   12SAPS  C214 1528   0.711   1.993   7.510  0.0157 -0.3024  0.2321
   12SAPS  H14R 1529   0.677   2.029   7.412  0.4244 -0.2930  0.0919
   12SAPS  C215 1530   0.724   2.087   7.615 -0.3783 -0.6572  0.7224
   12SAPS  H15R 1531   0.744   2.187   7.575 -2.1373 -0.6446 -0.2539
   12SAPS  C216 1532   0.742   2.069   7.762 -0.0256 -1.0681 -0.1659
   12SAPS  H16R 1533   0.750   1.962   7.792 -1.0354 -0.9202  0.6696
   12SAPS  H16S 1534   0.648   2.089   7.818  0.7577 -0.0361  0.8273
   12SAPS  C217 1535   0.854   2.151   7.825 -0.4326 -0.1220 -0.3341
   12SAPS  H17R 1536   0.930   2.156   7.744  0.0510  2.5441  0.2117
   12SAPS  H17S 1537   0.892   2.093   7.912 -1.5134 -3.2014 -1.7477
   12SAPS  C218 1538   0.822   2.295   7.866  0.2106  0.0729  0.1100
   12SAPS  H18R 1539   0.730   2.297   7.929 -0.4727  0.5690 -0.8893
   12SAPS  H18S 1540   0.802   2.354   7.774 -0.0959  1.3882  0.9975
   12SAPS  C219 1541   0.925   2.358   7.949 -0.3445  0.7674  0.4549
   12SAPS  H19R 1542   1.014   2.358   7.882 -2.0579 -0.7948 -1.9782
   12SAPS  H19S 1543   0.967   2.292   8.028  4.8228  1.4416 -1.2980
   12SAPS  C220 1544   0.894   2.497   7.992 -0.4353 -0.1573 -0.7961
   12SAPS  H20R 1545   0.978   2.552   8.038 -1.0052  0.4169 -0.4193
   12SAPS  H20S 1546   0.808   2.493   8.063 -0.0372 -0.7396 -0.3424
   12SAPS  H20T 1547   0.862   2.555   7.902  1.1815 -0.2228 -1.4432
   12SAPS   C33 1548   1.440   1.680   6.820  0.7632 -0.2531 -0.2536
   12SAPS   H3X 1549   1.542   1.714   6.794  0.3251  2.3203  0.9883
   12SAPS   H3Y 1550   1.424   1.571   6.830  0.4490 -0.2722 -0.9137
   12SAPS   C34 1551   1.421   1.714   6.970  0.8730 -0.1989 -0.4312
   12SAPS   H4X 1552   1.315   1.726   7.000  0.4971  3.2783 -2.6276
   12SAPS   H4Y 1553   1.451   1.818   6.992 -0.8676  0.4393 -0.9328
   12SAPS   C35 1554   1.504   1.624   7.070 -0.5861 -0.0852  0.0451
   12SAPS   H5X 1555   1.600   1.608   7.018 -1.9321  0.4293 -2.8177
   12SAPS   H5Y 1556   1.443   1.531   7.072 -2.4509  1.0719  0.5818
   12SAPS   C36 1557   1.510   1.676   7.216  0.5738  0.1363  0.0672
   12SAPS   H6X 1558   1.414   1.703   7.265  0.8078 -1.7690  1.7021
   12SAPS   H6Y 1559   1.572   1.768   7.217  0.3431  0.3299 -1.4505
   12SAPS   C37 1560   1.587   1.590   7.321  0.0709  0.1001 -0.3807
   12SAPS   H7X 1561   1.692   1.569   7.293 -0.1607 -1.1845 -0.3632
   12SAPS   H7Y 1562   1.538   1.490   7.323 -1.4239  0.7664 -1.3225
   12SAPS   C38 1563   1.585   1.659   7.458  0.1616  0.4489  0.6144
   12SAPS   H8X 1564   1.478   1.675   7.483 -0.6842 -2.9056 -0.3563
   12SAPS   H8Y 1565   1.633   1.758   7.438  1.8128 -0.7123 -1.6179
   12SAPS   C39 1566   1.660   1.579   7.571  0.5423 -0.4774  0.2432
   12SAPS   H9X 1567   1.765   1.558   7.541 -0.1671  0.6875 -3.4974
   12SAPS   H9Y 1568   1.603   1.483   7.573 -0.7892  0.2640 -0.8677
   12SAPS  C310 1569   1.655   1.632   7.715  0.6880  0.2631 -0.0091
   12SAPS  H10X 1570   1.707   1.549   7.769  1.6371  0.3310 -0.7907
   12SAPS  H10Y 1571   1.551   1.632   7.752 -1.1146 -1.4362 -4.3677
   12SAPS  C311 1572   1.725   1.766   7.725  0.8262 -0.4548 -0.3659
   12SAPS  H11X 1573   1.663   1.850   7.686 -0.1834 -1.3367 -0.7041
   12SAPS  H11Y 1574   1.823   1.745   7.677  1.6371  0.8449  0.6621
   12SAPS  C312 1575   1.762   1.813   7.867  0.7967  0.2244  0.2203
   12SAPS  H12X 1576   1.663   1.811   7.919  0.7454 -1.2401  0.0992
   12SAPS  H12Y 1577   1.804   1.916   7.874  2.4208 -0.3244 -0.9081
   12SAPS  C313 1578   1.851   1.713   7.939 -0.0006  0.8903 -0.8487
   12SAPS  H13X 1579   1.950   1.705   7.890  0.5251 -1.3074  0.4115
   12SAPS  H13Y 1580   1.819   1.608   7.952 -2.7585  1.6109 -1.2851
   12SAPS  C314 1581   1.877   1.761   8.088 -0.3860 -0.2139  0.9774
   12SAPS  H14X 1582   1.778   1.797   8.122 -0.8606  0.1799 -0.7500
   12SAPS  H14Y 1583   1.956   1.839   8.087  0.2605 -0.5435 -4.3256
   12SAPS  C315 1584   1.918   1.639   8.168  0.3821  0.8562 -0.5310
   12SAPS  H15X 1585   1.829   1.572   8.175  1.2446 -0.0994  2.2497
   12SAPS  H15Y 1586   1.923   1.664   8.276 -2.4890  0.3162 -0.1794
   12SAPS  C316 1587   2.048   1.569   8.130  0.5815  0.6497 -0.0422
   12SAPS  H16X 1588   2.124   1.644   8.099  0.0127  0.0023 -3.4555
   12SAPS  H16Y 1589   2.026   1.518   8.034 -0.6471  0.4185  0.3367
   12SAPS  C317 1590   2.091   1.467   8.234 -0.1487  0.3245 -0.5209
   12SAPS  H17X 1591   2.010   1.395   8.259  1.6373 -0.9760  1.7926
   12SAPS  H17Y 1592   2.121   1.510   8.332  0.5886  0.3104 -0.7391
   12SAPS  C318 1593   2.218   1.409   8.167 -0.2185 -0.1609  0.3739
   12SAPS  H18X 1594   2.266   1.326   8.225  0.6232 -1.3052 -1.8599
   12SAPS  H18Y 1595   2.301   1.479   8.142 -1.0245 -0.1247 -2.4969
   12SAPS  H18Z 1596   2.188   1.363   8.071 -0.0039  0.8369 -0.1709
   13SAPS     N 1597   0.140   5.245   5.853 -0.2777  0.5226  0.7703
   13SAPS   HN1 1598   0.238   5.274   5.867  0.3645 -1.6577  1.2122
   13SAPS   HN2 1599   0.098   5.286   5.767 -1.5663  0.1937  1.2128
   13SAPS   HN3 1600   0.090   5.268   5.941 -0.5764 -0.6384  0.9308
   13SAPS   C12 1601   0.138   5.099   5.822  0.5407  0.2888  0.4339
   13SAPS  H12A 1602   0.037   5.082   5.789  0.7123 -1.2607  0.6191
   13SAPS   C13 1603   0.237   5.063   5.713  0.1981 -0.7617 -0.1429
   13SAPS  O13A 1604   0.312   5.150   5.658 -0.1407 -0.4611 -0.3571
   13SAPS  O13B 1605   0.233   4.945   5.669 -0.7697 -0.2699 -0.0346
   13SAPS   C11 1606   0.165   5.016   5.944  0.6273 -0.6690  0.0524
   13SAPS  H11A 1607   0.273   5.024   5.969  0.5237  0.0635  0.2861
   13SAPS  H11B 1608   0.148   4.912   5.911  1.8082 -1.6089  2.2054
   13SAPS     P 1609   0.001   4.953   6.146  0.2646 -0.6676  0.3102
   13SAPS   O13 1610  -0.053   5.037   6.256 -0.6295 -0.1121 -0.0269
   13SAPS   O14 1611  -0.094   4.869   6.062 -1.1933  0.2569 -0.2327
   13SAPS   O12 1612   0.078   5.051   6.045 -0.1777  0.0099  0.4780
   13SAPS   O11 1613   0.117   4.862   6.197  0.0183  0.1187 -0.3816
   13SAPS    C1 1614   0.229   4.909   6.266  0.0145 -0.3597 -0.1478
   13SAPS    HA 1615   0.317   4.860   6.219  1.4549  1.9187  0.0115
   13SAPS    HB 1616   0.245   5.018   6.256  0.4269 -0.0227  3.0153
   13SAPS    C2 1617   0.233   4.868   6.416  0.5319  0.0939 -0.2115
   13SAPS    HS 1618   0.172   4.776   6.416  0.9428 -0.1997  0.9458
   13SAPS   O21 1619   0.165   4.976   6.482 -0.4570  0.1292  0.3694
   13SAPS   C21 1620   0.074   4.934   6.570  0.7861 -0.4441 -0.7091
   13SAPS   O22 1621   0.030   4.820   6.586  0.0115 -0.3121  0.5829
   13SAPS   C22 1622   0.024   5.053   6.648  0.2793 -0.3710 -0.3532
   13SAPS   H2R 1623   0.084   5.143   6.624 -0.6348  0.8026  1.5368
   13SAPS   H2S 1624  -0.080   5.067   6.613  0.4405  2.6823  0.0912
   13SAPS    C3 1625   0.374   4.848   6.477 -0.2704  0.0874 -0.4104
   13SAPS    HX 1626   0.422   4.948   6.489  0.7188 -0.4437  0.1925
   13SAPS    HY 1627   0.429   4.792   6.398  0.9282 -1.5945  1.5237
   13SAPS   O31 1628   0.364   4.780   6.605 -0.0234  0.2985 -0.7334
   13SAPS   C31 1629   0.344   4.645   6.609  0.3246 -0.8100 -0.2703
   13SAPS   O32 1630   0.349   4.573   6.514 -0.5419 -0.3064  0.2588
   13SAPS   C32 1631   0.312   4.588   6.748  0.1632 -0.5153  1.0767
   13SAPS   H2X 1632   0.276   4.483   6.739  3.3106 -1.6692  0.5435
   13SAPS   H2Y 1633   0.235   4.654   6.793 -1.3651 -1.4916 -0.0096
   13SAPS   C23 1634   0.047   5.016   6.797  0.1148  0.2032  0.1300
   13SAPS   H3R 1635  -0.010   4.927   6.830  3.4527 -2.3421 -0.4048
   13SAPS   H3S 1636   0.015   5.105   6.855  2.4621  1.2139 -0.0200
   13SAPS   C24 1637   0.198   4.995   6.818 -0.3392  0.0115 -0.2813
   13SAPS   H4R 1638   0.244   5.087   6.775  1.9883 -0.9652  0.0130
   13SAPS   H4S 1639   0.242   4.914   6.757  0.0307 -0.2467  0.3151
   13SAPS   C25 1640   0.245   4.976   6.959 -0.1720  0.9252 -1.5386
   13SAPS   H5R 1641   0.329   5.041   6.987 -0.3259  0.9586 -1.1342
   13SAPS   C26 1642   0.189   4.894   7.057 -0.5864 -0.3014  0.0838
   13SAPS   H6R 1643   0.249   4.902   7.149  0.9346  0.9502 -0.9566
   13SAPS   C27 1644   0.073   4.799   7.057  0.3293 -0.0088  0.3623
   13SAPS   H7R 1645   0.119   4.703   7.089  1.6756  0.6573  0.4939
   13SAPS   H7S 1646   0.040   4.775   6.954 -1.2715  2.3293  0.2636
   13SAPS   C28 1647  -0.043   4.845   7.148 -0.4510 -0.5179  0.3486
   13SAPS   H8R 1648  -0.123   4.902   7.099 -0.8847 -0.9423  0.5491
   13SAPS   C29 1649  -0.052   4.819   7.279 -0.4582 -0.1197  0.6823
   13SAPS   H9R 1650  -0.146   4.844   7.331 -1.0632  2.9101 -1.6193
   13SAPS  C210 1651   0.053   4.752   7.369 -0.0766 -0.3452 -0.7247
   13SAPS  H10R 1652   0.154   4.759   7.323  0.1147  2.3062 -0.1053
   13SAPS  H10S 1653   0.019   4.647   7.369 -0.0388 -0.3566 -1.2163
   13SAPS  C211 1654   0.053   4.810   7.505  0.2357  0.8776 -0.2750
   13SAPS  H11R 1655   0.085   4.915   7.512  1.4112  0.6702 -1.9013
   13SAPS  C212 1656   0.017   4.753   7.624  0.2554 -0.3660 -0.8095
   13SAPS  H12R 1657   0.037   4.816   7.711 -0.7059  1.1641 -1.6452
   13SAPS  C213 1658  -0.022   4.613   7.649  0.1181  0.2114  0.0269
   13SAPS  H13R 1659  -0.075   4.580   7.557 -1.2594 -0.3451  0.9877
   13SAPS  H13S 1660  -0.111   4.631   7.713 -0.5359 -2.4863 -0.0114
   13SAPS  C214 1661   0.086   4.520   7.677 -0.3013 -0.0017  0.5366
   13SAPS  H14R 1662   0.169   4.525   7.606 -2.5231  0.3271 -2.1922
   13SAPS  C215 1663   0.076   4.419   7.766  0.0613 -0.4703  0.0849
   13SAPS  H15R 1664   0.150   4.338   7.772 -2.2188 -2.5662  1.4135
   13SAPS  C216 1665  -0.037   4.394   7.859  0.1715  0.8062  0.8696
   13SAPS  H16R 1666  -0.091   4.312   7.807  3.4745 -1.0457  0.0342
   13SAPS  H16S 1667  -0.105   4.481   7.870 -0.4127  0.6102 -0.9086
   13SAPS  C217 1668  -0.001   4.345   7.998 -0.2538 -0.2734  0.2573
   13SAPS  H17R 1669   0.080   4.411   8.035 -0.1443 -1.0756  1.4872
   13SAPS  H17S 1670   0.051   4.247   7.989 -0.0219 -0.0449 -1.0733
   13SAPS  C218 1671  -0.120   4.327   8.089  0.6489  0.2199  0.1742
   13SAPS  H18R 1672  -0.172   4.236   8.053  0.1273  0.5151  0.1859
   13SAPS  H18S 1673  -0.194   4.407   8.072  0.6807  0.4971  1.2153
   13SAPS  C219 1674  -0.083   4.331   8.241  0.1718  0.4563  0.1477
   13SAPS  H19R 1675  -0.039   4.431   8.261 -3.5452  1.9826  1.5117
   13SAPS  H19S 1676  -0.003   4.254   8.239  1.6866  1.9674 -0.6037
   13SAPS  C220 1677  -0.192   4.312   8.345  0.2644 -0.4354 -0.8546
   13SAPS  H20R 1678  -0.250   4.217   8.341  0.4146 -0.5038 -1.3983
   13SAPS  H20S 1679  -0.271   4.391   8.344  1.3029  0.6242 -1.2785
   13SAPS  H20T 1680  -0.150   4.315   8.448  0.7469 -0.7996 -1.0374
   13SAPS   C33 1681   0.424   4.604   6.846  0.0702 -0.6696 -0.2045
   13SAPS   H3X 1682   0.419   4.708   6.886 -1.8681 -0.7375 -0.1534
   13SAPS   H3Y 1683   0.522   4.571   6.805 -0.4109 -1.3058 -0.8589
   13SAPS   C34 1684   0.396   4.508   6.964 -0.2844 -0.1906 -0.0943
   13SAPS   H4X 1685   0.407   4.408   6.917  2.0301  0.1755 -0.4538
   13SAPS   H4Y 1686   0.292   4.531   6.993 -0.1678  4.3052 -2.3862
   13SAPS   C35 1687   0.487   4.528   7.075 -0.2250  0.4910 -0.5485
   13SAPS   H5X 1688   0.587   4.566   7.045 -0.5873  0.0715 -2.4057
   13SAPS   H5Y 1689   0.502   4.432   7.128 -2.6915  0.1246 -0.3845
   13SAPS   C36 1690   0.436   4.618   7.187 -0.2129 -0.4928  0.0415
   13SAPS   H6X 1691   0.327   4.607   7.206 -0.1607 -1.7320 -0.3396
   13SAPS   H6Y 1692   0.437   4.725   7.155 -1.3789 -0.6278 -0.4893
   13SAPS   C37 1693   0.519   4.606   7.318  0.6338 -0.9605 -0.0659
   13SAPS   H7X 1694   0.620   4.645   7.297 -0.5882  3.3885  1.0818
   13SAPS   H7Y 1695   0.521   4.498   7.344  0.5625 -0.8273  0.5160
   13SAPS   C38 1696   0.463   4.687   7.433  0.0782  1.1161 -0.3793
   13SAPS   H8X 1697   0.357   4.657   7.450  0.4115 -0.4292 -0.8268
   13SAPS   H8Y 1698   0.467   4.794   7.407 -1.3885  1.2173 -0.2554
   13SAPS   C39 1699   0.524   4.665   7.578  0.0662 -0.1734  0.6415
   13SAPS   H9X 1700   0.634   4.674   7.589  0.0246  1.5056 -0.0647
   13SAPS   H9Y 1701   0.498   4.561   7.607  1.5403 -0.0988  2.4003
   13SAPS  C310 1702   0.452   4.757   7.684  0.2033  0.7072 -0.2269
   13SAPS  H10X 1703   0.346   4.734   7.661  0.5905  0.2696 -1.6401
   13SAPS  H10Y 1704   0.462   4.862   7.651 -0.7920 -0.1558 -3.6575
   13SAPS  C311 1705   0.508   4.735   7.828 -0.3066 -0.1012 -0.4944
   13SAPS  H11X 1706   0.467   4.822   7.883  1.7595  1.3443 -1.0842
   13SAPS  H11Y 1707   0.619   4.733   7.834 -0.3269 -0.8369 -0.3485
   13SAPS  C312 1708   0.454   4.601   7.883  0.5356  0.0960  0.0691
   13SAPS  H12X 1709   0.481   4.525   7.807 -1.0514 -1.1676  0.7093
   13SAPS  H12Y 1710   0.343   4.598   7.877  0.5322 -1.7035  0.5040
   13SAPS  C313 1711   0.486   4.555   8.022  0.5344 -0.2639 -0.0296
   13SAPS  H13X 1712   0.464   4.634   8.097  2.0871  1.6720 -1.5183
   13SAPS  H13Y 1713   0.595   4.532   8.019  0.6619  0.3263  0.0639
   13SAPS  C314 1714   0.418   4.423   8.061  0.0509  0.0967  0.5458
   13SAPS  H14X 1715   0.409   4.359   7.971  0.1194 -3.1641  2.6936
   13SAPS  H14Y 1716   0.315   4.446   8.095  0.1987  0.1575  0.9561
   13SAPS  C315 1717   0.489   4.336   8.169 -0.1223 -0.1321 -0.3145
   13SAPS  H15X 1718   0.593   4.331   8.131 -0.5295 -0.4546 -1.4088
   13SAPS  H15Y 1719   0.454   4.231   8.174  0.6109 -0.3405  1.0376
   13SAPS  C316 1720   0.483   4.399   8.307 -0.3028  0.4342  0.1390
   13SAPS  H16X 1721   0.378   4.435   8.317 -0.2476  1.0558 -1.2393
   13SAPS  H16Y 1722   0.547   4.487   8.329  1.4287 -0.9174  0.7272
   13SAPS  C317 1723   0.516   4.299   8.421  0.0106  0.9757  0.1859
   13SAPS  H17X 1724   0.621   4.264   8.427 -0.1257  0.3832 -0.6456
   13SAPS  H17Y 1725   0.458   4.207   8.397  2.1578 -0.2186 -0.6616
   13SAPS  C318 1726   0.464   4.339   8.562 -0.3035  0.4185  0.2843
   13SAPS  H18X 1727   0.475   4.252   8.630 -0.0947 -0.1920 -0.5113
   13SAPS  H18Y 1728   0.358   4.369   8.548 -0.5788  0.5490  2.4235
   13SAPS  H18Z 1729   0.527   4.418   8.607 -1.0230  1.9868 -1.3224
   14SAPS     N 1730   1.486   0.793   5.764 -0.7805 -0.3592  0.9345
   14SAPS   HN1 1731   1.408   0.750   5.817 -1.1210 -0.4005  0.4017
   14SAPS   HN2 1732   1.529   0.716   5.708 -0.5506  0.4504 -0.0494
   14SAPS   HN3 1733   1.560   0.838   5.821  1.9728 -0.9861 -1.8385
   14SAPS   C12 1734   1.424   0.889   5.664  0.0776 -0.2099 -0.4529
   14SAPS  H12A 1735   1.506   0.936   5.612  0.0407  0.9672  0.5189
   14SAPS   C13 1736   1.331   0.812   5.570 -0.0277  0.1055  0.6859
   14SAPS  O13A 1737   1.264   0.707   5.612 -0.0249 -0.1524 -0.0407
   14SAPS  O13B 1738   1.294   0.867   5.464  0.3306  0.5362 -0.0209
   14SAPS   C11 1739   1.343   0.997   5.741 -0.2700  0.3669 -0.4856
   14SAPS  H11A 1740   1.250   0.955   5.787  0.9250  0.9525  2.7352
   14SAPS  H11B 1741   1.319   1.070   5.661 -0.6833  1.3906  0.5488
   14SAPS     P 1742   1.328   1.197   5.917 -0.0292  0.0936  0.2277
   14SAPS   O13 1743   1.419   1.293   5.984 -0.2660  0.5263 -0.7336
   14SAPS   O14 1744   1.228   1.258   5.830  0.4093 -0.2577  0.8398
   14SAPS   O12 1745   1.411   1.070   5.842  0.0002 -0.6168 -0.1968
   14SAPS   O11 1746   1.249   1.128   6.032 -0.2702  0.9321 -0.2264
   14SAPS    C1 1747   1.315   1.027   6.107  0.3969  0.1213  0.3366
   14SAPS    HA 1748   1.311   0.928   6.058 -0.8531  0.0903  0.4776
   14SAPS    HB 1749   1.420   1.049   6.136 -0.4420  2.2902  1.9943
   14SAPS    C2 1750   1.246   1.012   6.249  1.2918 -0.2496  0.0806
   14SAPS    HS 1751   1.154   0.953   6.232 -0.9798  1.7897  3.8704
   14SAPS   O21 1752   1.217   1.147   6.307 -0.1291  0.5488 -0.4469
   14SAPS   C21 1753   1.123   1.144   6.402  0.1449  0.1758 -0.3358
   14SAPS   O22 1754   1.050   1.051   6.423 -0.4651 -0.3373 -0.6289
   14SAPS   C22 1755   1.117   1.271   6.484  0.1950  0.2287  0.2618
   14SAPS   H2R 1756   1.158   1.351   6.419  0.7653  0.7939  1.2868
   14SAPS   H2S 1757   1.010   1.297   6.501  0.6840  1.1955  2.0818
   14SAPS    C3 1758   1.333   0.925   6.343  0.3282  0.8805 -0.7004
   14SAPS    HX 1759   1.338   0.821   6.304 -1.8919  1.6584 -3.4194
   14SAPS    HY 1760   1.286   0.918   6.444  2.3480 -1.2101  0.1880
   14SAPS   O31 1761   1.459   0.981   6.378 -0.3229  0.0619 -0.1008
   14SAPS   C31 1762   1.569   0.934   6.325 -0.3933  0.3299  0.3730
   14SAPS   O32 1763   1.579   0.854   6.233 -0.4444 -0.1982  0.2612
   14SAPS   C32 1764   1.687   1.001   6.385 -0.3917 -0.0103 -0.6133
   14SAPS   H2X 1765   1.666   1.110   6.381 -1.7463 -0.3012 -2.3382
   14SAPS   H2Y 1766   1.762   0.977   6.308  0.1195 -2.0360  0.4421
   14SAPS   C23 1767   1.200   1.259   6.610 -0.5588 -0.7992 -0.8549
   14SAPS   H3R 1768   1.303   1.221   6.594  0.3231  0.0336  2.1728
   14SAPS   H3S 1769   1.155   1.191   6.685  0.1796 -0.6586 -0.2772
   14SAPS   C24 1770   1.223   1.404   6.673  0.7522  0.3340  0.0154
   14SAPS   H4R 1771   1.258   1.469   6.590 -1.1569  1.9045  0.3559
   14SAPS   H4S 1772   1.304   1.411   6.748 -0.2566  2.7079  0.9735
   14SAPS   C25 1773   1.088   1.468   6.706  0.4896  0.3752  0.8440
   14SAPS   H5R 1774   1.016   1.488   6.626 -0.5083  2.5980  2.2104
   14SAPS   C26 1775   1.052   1.499   6.829 -0.2953 -0.2181 -0.4455
   14SAPS   H6R 1776   0.952   1.540   6.847  0.0097  0.1935  0.3957
   14SAPS   C27 1777   1.122   1.469   6.959 -0.3911  0.4338  0.5419
   14SAPS   H7R 1778   1.135   1.560   7.022  0.5892 -0.0974  1.1089
   14SAPS   H7S 1779   1.228   1.452   6.932 -0.6881  1.6834 -1.6392
   14SAPS   C28 1780   1.056   1.361   7.045  0.2481 -0.3891  0.2014
   14SAPS   H8R 1781   0.993   1.292   6.987  1.9930  0.2788 -2.6785
   14SAPS   C29 1782   1.066   1.349   7.178  0.3891  0.1791  0.1086
   14SAPS   H9R 1783   1.017   1.261   7.223 -0.1430 -0.6204 -1.9460
   14SAPS  C210 1784   1.151   1.436   7.270  0.0404 -0.3293 -0.1284
   14SAPS  H10R 1785   1.231   1.477   7.204 -0.3560 -1.4116 -1.3411
   14SAPS  H10S 1786   1.211   1.377   7.342  1.2267  1.2518  0.2566
   14SAPS  C211 1787   1.065   1.546   7.331 -0.1448 -0.4339 -0.9023
   14SAPS  H11R 1788   0.982   1.590   7.273 -3.6124 -1.4173  2.8200
   14SAPS  C212 1789   1.063   1.582   7.455 -0.8961 -0.3591 -0.5688
   14SAPS  H12R 1790   0.991   1.660   7.484  2.9125  3.5707 -0.5745
   14SAPS  C213 1791   1.156   1.530   7.566  0.0178 -0.3813 -0.3632
   14SAPS  H13R 1792   1.255   1.538   7.515  0.5854 -1.7241  0.4828
   14SAPS  H13S 1793   1.129   1.426   7.594  1.2281 -0.9702 -1.2694
   14SAPS  C214 1794   1.156   1.637   7.672 -0.0118 -0.1024  0.5425
   14SAPS  H14R 1795   1.125   1.739   7.644 -0.9944 -0.3719  0.6074
   14SAPS  C215 1796   1.180   1.618   7.806 -0.1456 -0.0998  0.5066
   14SAPS  H15R 1797   1.175   1.707   7.870  0.3472  0.8935 -0.7971
   14SAPS  C216 1798   1.223   1.486   7.859  0.6075  0.4667  0.3616
   14SAPS  H16R 1799   1.316   1.496   7.919 -0.0332  2.7674  1.0840
   14SAPS  H16S 1800   1.243   1.411   7.780  0.1388 -1.6707  2.1595
   14SAPS  C217 1801   1.118   1.413   7.958 -0.2441  0.2954  0.2948
   14SAPS  H17R 1802   1.136   1.304   7.965  1.2495  0.5858  1.4070
   14SAPS  H17S 1803   1.015   1.437   7.925 -0.2444  2.0163  1.4020
   14SAPS  C218 1804   1.126   1.461   8.103 -0.8779  0.0515 -0.0642
   14SAPS  H18R 1805   1.112   1.571   8.114  0.4551  0.0933  1.7322
   14SAPS  H18S 1806   1.226   1.428   8.140 -1.1209 -0.1904  0.3787
   14SAPS  C219 1807   1.051   1.390   8.212 -0.1727  0.2492 -0.5990
   14SAPS  H19R 1808   1.034   1.282   8.191  0.7337  0.0640 -0.4034
   14SAPS  H19S 1809   0.944   1.418   8.225  0.0512  0.2552  1.5810
   14SAPS  C220 1810   1.113   1.405   8.354 -0.6606  0.2898 -0.3356
   14SAPS  H20R 1811   1.213   1.357   8.362 -0.6558  0.3075 -0.2893
   14SAPS  H20S 1812   1.044   1.356   8.426  0.8697 -2.2507 -0.4783
   14SAPS  H20T 1813   1.132   1.512   8.377  1.3743 -0.3586  1.3317
   14SAPS   C33 1814   1.723   0.949   6.523 -0.2901  0.0805  0.1386
   14SAPS   H3X 1815   1.760   0.845   6.510  0.8056  0.6856 -1.8297
   14SAPS   H3Y 1816   1.637   0.956   6.594 -2.3962  2.0395 -2.3792
   14SAPS   C34 1817   1.847   1.026   6.571 -0.1303  0.7194  0.2576
   14SAPS   H4X 1818   1.826   1.135   6.560 -0.8510  0.5582  0.0075
   14SAPS   H4Y 1819   1.941   1.019   6.511 -0.8844 -0.8001 -0.8232
   14SAPS   C35 1820   1.886   0.999   6.716 -0.2998 -0.5404  0.0548
   14SAPS   H5X 1821   1.897   0.890   6.734 -2.1729 -0.7364  0.1890
   14SAPS   H5Y 1822   1.802   1.026   6.783  0.6276 -0.5699  1.2657
   14SAPS   C36 1823   2.027   1.066   6.755 -0.0368  0.7382  0.2247
   14SAPS   H6X 1824   2.036   1.168   6.712 -0.3733  1.1845  1.1857
   14SAPS   H6Y 1825   2.087   0.999   6.690 -1.4844 -0.6969  0.2955
   14SAPS   C37 1826   2.063   1.051   6.904  0.1304  0.3649  0.3949
   14SAPS   H7X 1827   1.964   1.060   6.952  0.1344 -1.6859  0.8728
   14SAPS   H7Y 1828   2.138   1.125   6.939  2.9654 -1.8891 -0.5136
   14SAPS   C38 1829   2.111   0.910   6.946  0.1107  0.5495 -0.4097
   14SAPS   H8X 1830   2.189   0.871   6.877  0.7827 -1.4703  1.3623
   14SAPS   H8Y 1831   2.032   0.833   6.932  0.5740 -0.2987  1.3306
   14SAPS   C39 1832   2.160   0.896   7.090  0.3433  0.5264  0.3975
   14SAPS   H9X 1833   2.075   0.903   7.162 -1.6144  0.4066 -1.7702
   14SAPS   H9Y 1834   2.225   0.981   7.118  0.2381  1.3260 -1.6051
   14SAPS  C310 1835   2.238   0.767   7.114 -0.1006 -0.5530  0.0058
   14SAPS  H10X 1836   2.334   0.770   7.058  0.1900  0.8567  0.5295
   14SAPS  H10Y 1837   2.163   0.689   7.091 -0.0414 -1.3970  2.3655
   14SAPS  C311 1838   2.286   0.750   7.253 -0.2147  0.1704 -0.1138
   14SAPS  H11X 1839   2.194   0.751   7.316 -0.4176  1.2256 -0.4191
   14SAPS  H11Y 1840   2.365   0.824   7.277 -0.9013  1.0648 -0.5627
   14SAPS  C312 1841   2.353   0.615   7.281 -0.2991  0.3911  0.1601
   14SAPS  H12X 1842   2.408   0.579   7.191 -2.8883  2.0395 -2.2853
   14SAPS  H12Y 1843   2.269   0.542   7.286  1.5582 -1.9760 -0.9154
   14SAPS  C313 1844   2.428   0.607   7.409  0.5124 -0.3973  0.0155
   14SAPS  H13X 1845   2.505   0.686   7.407  0.2664 -0.1629 -1.3909
   14SAPS  H13Y 1846   2.479   0.508   7.401 -0.4348 -0.7492 -3.2541
   14SAPS  C314 1847   2.348   0.623   7.535  0.0512 -0.6939 -0.7620
   14SAPS  H14X 1848   2.285   0.711   7.510  1.5568  1.1612  1.5183
   14SAPS  H14Y 1849   2.411   0.656   7.621 -1.5758 -0.7030  0.4984
   14SAPS  C315 1850   2.262   0.508   7.588 -0.6795 -0.4142 -0.4953
   14SAPS  H15X 1851   2.332   0.422   7.598  0.3754  0.1000 -2.9918
   14SAPS  H15Y 1852   2.194   0.472   7.508 -1.2066  1.0257 -0.7282
   14SAPS  C316 1853   2.194   0.549   7.718  0.2453  0.2274 -0.5940
   14SAPS  H16X 1854   2.139   0.645   7.714  0.0152  0.0703 -3.0792
   14SAPS  H16Y 1855   2.279   0.568   7.787 -1.7847  2.9190  1.3625
   14SAPS  C317 1856   2.106   0.439   7.775 -0.3620 -0.0002 -0.4937
   14SAPS  H17X 1857   2.167   0.350   7.803 -0.4184  0.0650 -0.1574
   14SAPS  H17Y 1858   2.033   0.403   7.700 -0.2657 -0.7342 -0.2418
   14SAPS  C318 1859   2.021   0.495   7.887 -0.0044  0.3159 -0.2157
   14SAPS  H18X 1860   1.963   0.410   7.927  0.8105 -0.0110  0.2856
   14SAPS  H18Y 1861   1.972   0.592   7.862  0.9943  1.7147  2.7790
   14SAPS  H18Z 1862   2.084   0.530   7.971  0.0731  2.7134 -1.1840
   15SAPS     N 1863   1.747   0.301   5.551 -0.1952 -0.0447 -0.4739
   15SAPS   HN1 1864   1.698   0.306   5.459 -1.1719  0.8747  0.0774
   15SAPS   HN2 1865   1.833   0.243   5.542 -0.0863  0.1399 -0.6298
   15SAPS   HN3 1866   1.686   0.256   5.623  0.4911  0.7719  0.6399
   15SAPS   C12 1867   1.782   0.435   5.608  0.4462 -0.0433  0.2936
   15SAPS  H12A 1868   1.851   0.485   5.541 -0.4650 -0.1268 -0.7425
   15SAPS   C13 1869   1.671   0.528   5.635  0.3428  0.1143 -1.6976
   15SAPS  O13A 1870   1.552   0.503   5.609  0.0547 -0.2052 -0.3432
   15SAPS  O13B 1871   1.699   0.643   5.688  0.1831  0.5943  0.1840
   15SAPS   C11 1872   1.843   0.402   5.750 -0.8133 -0.5841  0.1943
   15SAPS  H11A 1873   1.773   0.343   5.814  0.8929  0.3900  3.1867
   15SAPS  H11B 1874   1.859   0.495   5.809  1.4552 -0.4969 -0.4658
   15SAPS     P 1875   2.109   0.374   5.755 -0.1493  0.0394  0.5762
   15SAPS   O13 1876   2.203   0.261   5.779 -0.0368  0.1535 -1.2151
   15SAPS   O14 1877   2.140   0.461   5.637  0.2788  0.1834 -0.2604
   15SAPS   O12 1878   1.964   0.320   5.745  0.2408  0.2290  0.4619
   15SAPS   O11 1879   2.097   0.465   5.883 -0.3367  0.0346 -0.0555
   15SAPS    C1 1880   2.147   0.426   6.008 -0.2993 -0.2193  0.0541
   15SAPS    HA 1881   2.251   0.387   5.999  0.2181  0.7082  1.6772
   15SAPS    HB 1882   2.156   0.514   6.075  2.0221  1.1926 -1.9525
   15SAPS    C2 1883   2.056   0.332   6.091 -0.0671 -0.0928  0.0438
   15SAPS    HS 1884   2.034   0.242   6.029  2.2300  0.8116 -2.2860
   15SAPS   O21 1885   1.936   0.408   6.120 -0.4062 -0.4025  0.1149
   15SAPS   C21 1886   1.827   0.344   6.127 -0.2567  0.6494 -0.4232
   15SAPS   O22 1887   1.810   0.222   6.131 -0.3584 -0.1789 -0.1444
   15SAPS   C22 1888   1.713   0.444   6.135  0.2326  0.2226  0.2263
   15SAPS   H2R 1889   1.763   0.539   6.163  0.2453  0.1375  0.4907
   15SAPS   H2S 1890   1.676   0.461   6.032 -2.8678  2.3619  1.5539
   15SAPS    C3 1891   2.112   0.303   6.226  0.4443  0.5680  0.1672
   15SAPS    HX 1892   2.036   0.234   6.267 -1.6137  3.4137  1.5278
   15SAPS    HY 1893   2.103   0.395   6.288  0.3184  0.1518  0.7730
   15SAPS   O31 1894   2.251   0.264   6.231 -0.1458  0.1036 -0.5829
   15SAPS   C31 1895   2.268   0.199   6.345  0.7169  0.8308 -1.3663
   15SAPS   O32 1896   2.179   0.162   6.422  0.0899 -0.1852  0.0928
   15SAPS   C32 1897   2.421   0.188   6.365  0.0499 -0.1023 -0.2926
   15SAPS   H2X 1898   2.460   0.199   6.262 -0.6878  0.0751 -0.5657
   15SAPS   H2Y 1899   2.451   0.088   6.401  2.5886  0.1841 -1.4172
   15SAPS   C23 1900   1.603   0.403   6.235  0.3039 -0.0089  0.2319
   15SAPS   H3R 1901   1.570   0.299   6.214  2.6844 -0.7035 -0.4145
   15SAPS   H3S 1902   1.518   0.475   6.235  1.3154  1.2717 -1.1506
   15SAPS   C24 1903   1.654   0.394   6.389 -0.4130 -0.7361  0.4313
   15SAPS   H4R 1904   1.758   0.356   6.395 -0.8059 -1.6725  1.5939
   15SAPS   H4S 1905   1.590   0.325   6.448  1.4127 -2.0637  0.9546
   15SAPS   C25 1906   1.641   0.525   6.456  0.2409  0.1449  0.2095
   15SAPS   H5R 1907   1.689   0.600   6.391 -0.1463  0.7490  0.6067
   15SAPS   C26 1908   1.576   0.562   6.567 -0.1956  0.2055  0.4667
   15SAPS   H6R 1909   1.598   0.658   6.615  1.8568 -0.0955  0.2039
   15SAPS   C27 1910   1.505   0.459   6.657  1.5530 -0.2252 -0.3494
   15SAPS   H7R 1911   1.568   0.368   6.670  1.5454 -0.2032 -0.1435
   15SAPS   H7S 1912   1.420   0.429   6.593  1.2130 -1.7527  0.7750
   15SAPS   C28 1913   1.454   0.525   6.789 -0.0915  0.4865  0.8716
   15SAPS   H8R 1914   1.345   0.535   6.807  0.1080 -0.5842  2.9796
   15SAPS   C29 1915   1.531   0.573   6.889 -0.4565 -0.2378 -0.3084
   15SAPS   H9R 1916   1.484   0.608   6.982 -0.5943 -0.3387 -0.3392
   15SAPS  C210 1917   1.680   0.574   6.894  0.8094  0.3129 -0.2514
   15SAPS  H10R 1918   1.717   0.524   6.802  0.4789  2.4700 -1.6420
   15SAPS  H10S 1919   1.703   0.505   6.977  0.4604 -1.1458 -1.3314
   15SAPS  C211 1920   1.732   0.712   6.911 -0.5105  0.0340 -0.2547
   15SAPS  H11R 1921   1.764   0.762   6.819  0.0719  1.3122  0.6175
   15SAPS  C212 1922   1.761   0.764   7.032 -0.2333 -0.4273  0.2524
   15SAPS  H12R 1923   1.798   0.868   7.031  0.5247 -0.5615 -4.0839
   15SAPS  C213 1924   1.738   0.704   7.171  0.5669 -0.5812  0.9227
   15SAPS  H13R 1925   1.662   0.623   7.165 -0.4396  0.4592 -2.0563
   15SAPS  H13S 1926   1.677   0.781   7.223 -0.6112  0.4030 -1.7126
   15SAPS  C214 1927   1.868   0.665   7.242  0.1454 -0.0601  0.7508
   15SAPS  H14R 1928   1.950   0.615   7.188  0.0480 -0.4066  0.9218
   15SAPS  C215 1929   1.894   0.672   7.370 -0.2635  0.7339 -0.1273
   15SAPS  H15R 1930   1.998   0.652   7.401 -0.1758 -0.9347 -1.3676
   15SAPS  C216 1931   1.804   0.724   7.482  0.1153 -0.5917  0.8932
   15SAPS  H16R 1932   1.713   0.761   7.430  0.2648 -2.6766 -0.9709
   15SAPS  H16S 1933   1.853   0.806   7.539 -0.5008  0.1696  0.3603
   15SAPS  C217 1934   1.759   0.614   7.570 -0.1504  0.2868 -0.0862
   15SAPS  H17R 1935   1.845   0.586   7.635 -1.2607  0.7895  1.6723
   15SAPS  H17S 1936   1.728   0.523   7.514  0.7055 -0.8754  1.2243
   15SAPS  C218 1937   1.645   0.664   7.661 -0.3941  1.2581  0.1245
   15SAPS  H18R 1938   1.553   0.680   7.601  1.5001  1.0881 -3.0132
   15SAPS  H18S 1939   1.678   0.758   7.710 -0.5481  2.4618 -1.9907
   15SAPS  C219 1940   1.610   0.572   7.783  0.0476 -0.0140 -0.2747
   15SAPS  H19R 1941   1.695   0.574   7.855 -0.9901  2.6316  0.9982
   15SAPS  H19S 1942   1.605   0.469   7.742  0.6664 -0.7967  1.4966
   15SAPS  C220 1943   1.474   0.622   7.849  0.0841 -0.3183 -0.2826
   15SAPS  H20R 1944   1.501   0.722   7.887 -0.7854 -0.6159  1.1966
   15SAPS  H20S 1945   1.439   0.569   7.940 -1.2209  3.3706  1.5606
   15SAPS  H20T 1946   1.389   0.621   7.777 -1.7827 -1.1281  1.8064
   15SAPS   C33 1947   2.487   0.295   6.460  0.0303 -0.6527 -0.0619
   15SAPS   H3X 1948   2.452   0.392   6.418  0.4824  0.4924  2.0666
   15SAPS   H3Y 1949   2.595   0.305   6.437 -0.1870  1.6093 -0.3785
   15SAPS   C34 1950   2.457   0.268   6.605  0.1385 -0.5210  0.3278
   15SAPS   H4X 1951   2.499   0.172   6.641 -1.6806 -0.8046  1.8527
   15SAPS   H4Y 1952   2.346   0.262   6.617  0.0407  1.1409  0.5734
   15SAPS   C35 1953   2.500   0.389   6.692  0.0842 -0.0733  0.3949
   15SAPS   H5X 1954   2.456   0.484   6.657  0.7059  0.3377  0.7124
   15SAPS   H5Y 1955   2.609   0.401   6.672 -0.3001  2.4646 -0.4569
   15SAPS   C36 1956   2.476   0.386   6.842 -0.0821 -0.7030  0.3236
   15SAPS   H6X 1957   2.374   0.426   6.856 -1.0927 -2.7263 -0.7640
   15SAPS   H6Y 1958   2.548   0.455   6.892 -1.1692  1.5758 -1.0742
   15SAPS   C37 1959   2.513   0.254   6.903  0.3419  0.1497 -0.5462
   15SAPS   H7X 1960   2.611   0.218   6.864 -0.7844 -1.5406 -1.9650
   15SAPS   H7Y 1961   2.437   0.179   6.873  0.3023 -0.5915  1.2833
   15SAPS   C38 1962   2.507   0.265   7.057 -0.5774  0.6034 -0.0770
   15SAPS   H8X 1963   2.408   0.306   7.087 -1.3580 -0.5934 -0.9117
   15SAPS   H8Y 1964   2.576   0.341   7.099  3.0035 -3.0700  1.2857
   15SAPS   C39 1965   2.544   0.127   7.116  0.6442 -0.2348 -0.1803
   15SAPS   H9X 1966   2.649   0.104   7.088  0.5163 -2.0431  0.6710
   15SAPS   H9Y 1967   2.501   0.040   7.060  0.3804 -0.1748 -0.0745
   15SAPS  C310 1968   2.522   0.100   7.264 -0.4300 -0.0015 -0.2022
   15SAPS  H10X 1969   2.533  -0.007   7.290  2.2656  0.1884 -0.2468
   15SAPS  H10Y 1970   2.419   0.127   7.296 -0.6400 -1.3210  0.2856
   15SAPS  C311 1971   2.612   0.181   7.356 -0.1179 -0.2182 -0.3364
   15SAPS  H11X 1972   2.603   0.289   7.331  2.0808  0.2086  0.4487
   15SAPS  H11Y 1973   2.723   0.176   7.347  0.2035 -0.0654  2.4736
   15SAPS  C312 1974   2.583   0.165   7.505  1.0412  0.3109  0.3987
   15SAPS  H12X 1975   2.642   0.084   7.551  1.8459  0.3039 -0.6096
   15SAPS  H12Y 1976   2.479   0.129   7.520  1.1809 -0.5804 -0.6566
   15SAPS  C313 1977   2.616   0.297   7.586  0.4090 -0.4353  0.5835
   15SAPS  H13X 1978   2.568   0.388   7.543  2.0082  0.0063 -0.3718
   15SAPS  H13Y 1979   2.725   0.318   7.578  0.4101  0.0774  1.7090
   15SAPS  C314 1980   2.576   0.277   7.736  0.5328  0.8034  0.6467
   15SAPS  H14X 1981   2.625   0.187   7.778  0.5967  1.9427  3.2456
   15SAPS  H14Y 1982   2.467   0.257   7.727  0.5546  0.0833  1.8287
   15SAPS  C315 1983   2.593   0.402   7.815 -0.7457 -0.4368  0.0935
   15SAPS  H15X 1984   2.554   0.497   7.772  2.4006  0.8859 -0.0996
   15SAPS  H15Y 1985   2.702   0.422   7.810 -0.5524 -1.2461  0.8232
   15SAPS  C316 1986   2.553   0.388   7.959 -0.6585  0.5644  0.2310
   15SAPS  H16X 1987   2.442   0.396   7.960 -0.7381 -0.4291  1.7001
   15SAPS  H16Y 1988   2.591   0.475   8.016  0.3423 -0.1208  0.6366
   15SAPS  C317 1989   2.588   0.264   8.028 -0.2951  0.2073 -0.5009
   15SAPS  H17X 1990   2.543   0.175   7.978  1.5335 -1.6021  0.8754
   15SAPS  H17Y 1991   2.549   0.277   8.132 -0.9229  2.8832 -0.9938
   15SAPS  C318 1992   2.737   0.240   8.040  0.0995 -0.1088 -0.8351
   15SAPS  H18X 1993   2.753   0.157   8.112 -3.6323 -1.9835 -1.9431
   15SAPS  H18Y 1994   2.801   0.325   8.073 -1.4967  1.0204 -0.5641
   15SAPS  H18Z 1995   2.790   0.201   7.950 -2.3574 -2.2639 -1.4643
   16SAPS     N 1996   3.524   2.081   6.460  0.0863  0.5156 -1.1275
   16SAPS   HN1 1997   3.501   2.018   6.380 -1.0837 -0.0172 -0.4127
   16SAPS   HN2 1998   3.595   2.146   6.422 -0.5401  1.4670 -0.6877
   16SAPS   HN3 1999   3.575   2.026   6.532 -0.6833 -3.8347 -3.5138
   16SAPS   C12 2000   3.393   2.140   6.508  0.5568 -0.7819 -0.6049
   16SAPS  H12A 2001   3.414   2.207   6.590 -1.3532 -0.3572 -0.4176
   16SAPS   C13 2002   3.312   2.218   6.402 -0.5939 -0.4514  0.0712
   16SAPS  O13A 2003   3.350   2.211   6.282  0.0359 -0.4693 -0.2114
   16SAPS  O13B 2004   3.223   2.290   6.447  0.6720 -0.0631  0.3030
   16SAPS   C11 2005   3.303   2.020   6.560 -0.1156  0.2161  0.4583
   16SAPS  H11A 2006   3.211   2.081   6.577 -0.3315  1.0211 -2.9958
   16SAPS  H11B 2007   3.351   1.987   6.655 -0.8009  2.8751  1.8251
   16SAPS     P 2008   3.176   1.810   6.506 -0.3768  0.0794 -0.5737
   16SAPS   O13 2009   3.041   1.872   6.512  0.0554 -0.8495  0.0543
   16SAPS   O14 2010   3.193   1.691   6.420  0.6737 -0.0296  0.0430
   16SAPS   O12 2011   3.280   1.918   6.462  0.1076  0.3794 -0.4643
   16SAPS   O11 2012   3.207   1.760   6.648  0.4895 -0.9258  0.1808
   16SAPS    C1 2013   3.332   1.693   6.669 -1.1794 -0.6365 -0.2826
   16SAPS    HA 2014   3.369   1.642   6.577  2.1058  1.2510 -0.1811
   16SAPS    HB 2015   3.411   1.767   6.696 -2.7173  0.5930  0.9996
   16SAPS    C2 2016   3.347   1.592   6.784  0.5493 -0.3145 -0.6443
   16SAPS    HS 2017   3.455   1.567   6.790  0.1994 -2.0693 -1.2303
   16SAPS   O21 2018   3.260   1.479   6.756  0.4546 -1.0262  0.1358
   16SAPS   C21 2019   3.292   1.364   6.806 -0.8387  0.2158 -0.1217
   16SAPS   O22 2020   3.389   1.338   6.878  0.2177 -0.5266  0.2842
   16SAPS   C22 2021   3.194   1.268   6.765  0.5644  0.2253  0.7807
   16SAPS   H2R 2022   3.123   1.314   6.693 -0.6012 -0.6161  1.3548
   16SAPS   H2S 2023   3.255   1.186   6.720 -1.4317 -0.7023 -0.3770
   16SAPS    C3 2024   3.309   1.666   6.919 -0.2208  0.0113  0.7966
   16SAPS    HX 2025   3.210   1.717   6.910  0.3453  1.2558  1.3118
   16SAPS    HY 2026   3.381   1.747   6.943  1.1788 -1.3824  1.4920
   16SAPS   O31 2027   3.317   1.580   7.037  0.2643  0.1402 -0.1512
   16SAPS   C31 2028   3.437   1.534   7.073 -0.3417  0.2161 -0.2845
   16SAPS   O32 2029   3.545   1.580   7.036  0.3969  0.5596 -0.2358
   16SAPS   C32 2030   3.427   1.450   7.193 -0.1536  0.4139  0.2096
   16SAPS   H2X 2031   3.352   1.370   7.173 -0.1002 -0.1617  2.0490
   16SAPS   H2Y 2032   3.379   1.503   7.278  0.3981  0.3709  0.5556
   16SAPS   C23 2033   3.096   1.209   6.878 -0.0637 -1.1628  0.5247
   16SAPS   H3R 2034   3.148   1.118   6.916  0.9913 -1.5030 -1.5719
   16SAPS   H3S 2035   3.002   1.181   6.826 -0.5437  1.3049 -0.0260
   16SAPS   C24 2036   3.069   1.316   6.986 -0.1403 -0.0601 -0.3818
   16SAPS   H4R 2037   3.048   1.410   6.929 -3.0687 -1.8174 -2.4688
   16SAPS   H4S 2038   3.162   1.338   7.043 -1.0557 -0.3520  1.2771
   16SAPS   C25 2039   2.952   1.279   7.071  0.2501 -0.4106  1.0536
   16SAPS   H5R 2040   2.860   1.278   7.010  1.1540 -0.9447 -0.3479
   16SAPS   C26 2041   2.962   1.227   7.191 -0.6021  0.1882  0.0190
   16SAPS   H6R 2042   2.868   1.209   7.245 -0.8420  0.0244 -0.4489
   16SAPS   C27 2043   3.089   1.200   7.261 -0.5921 -0.6824  0.5393
   16SAPS   H7R 2044   3.134   1.296   7.294 -0.4314 -1.2724  2.1285
   16SAPS   H7S 2045   3.162   1.160   7.187 -0.7938 -1.8228  0.9239
   16SAPS   C28 2046   3.079   1.108   7.377 -0.4804 -0.0454 -0.6942
   16SAPS   H8R 2047   3.003   1.028   7.375 -0.3697 -0.2657  1.4916
   16SAPS   C29 2048   3.142   1.120   7.501  0.9425  0.0181  0.5989
   16SAPS   H9R 2049   3.127   1.033   7.566 -0.7856 -0.0135  0.2030
   16SAPS  C210 2050   3.236   1.227   7.548  0.0664 -0.2073 -0.3690
   16SAPS  H10R 2051   3.185   1.266   7.639 -3.5922  1.1579 -2.7944
   16SAPS  H10S 2052   3.260   1.308   7.476  1.9601  0.3828  0.8529
   16SAPS  C211 2053   3.368   1.165   7.581 -0.6273  0.5316  0.5251
   16SAPS  H11R 2054   3.444   1.184   7.504  1.3347 -1.1803  1.9094
   16SAPS  C212 2055   3.404   1.098   7.692  0.4519  0.4550  0.0320
   16SAPS  H12R 2056   3.512   1.078   7.692  0.6855  1.6854 -0.6065
   16SAPS  C213 2057   3.327   1.067   7.819 -0.0020  1.1330 -0.4444
   16SAPS  H13R 2058   3.217   1.061   7.800 -0.1381  0.1014  0.5558
   16SAPS  H13S 2059   3.342   1.158   7.879 -1.1867 -0.1716  1.9735
   16SAPS  C214 2060   3.383   0.939   7.886  1.0425 -0.4760 -0.3284
   16SAPS  H14R 2061   3.398   0.853   7.819  0.6622  2.6863 -4.9179
   16SAPS  C215 2062   3.427   0.939   8.017  0.6038 -0.2523  0.7124
   16SAPS  H15R 2063   3.468   0.852   8.069  3.1666  1.7625  2.3186
   16SAPS  C216 2064   3.420   1.061   8.112  0.3788 -0.6169 -0.1195
   16SAPS  H16R 2065   3.329   1.120   8.088 -0.8536 -0.8016  3.5517
   16SAPS  H16S 2066   3.500   1.135   8.088 -0.3348 -0.4646 -2.2967
   16SAPS  C217 2067   3.406   1.031   8.264  0.0567  0.5527 -0.2083
   16SAPS  H17R 2068   3.488   0.965   8.299  0.9187  1.8934  0.4012
   16SAPS  H17S 2069   3.325   0.956   8.269  0.1853  0.4645  0.6127
   16SAPS  C218 2070   3.392   1.138   8.372 -0.2822  0.1614 -0.1204
   16SAPS  H18R 2071   3.323   1.218   8.340  1.1147  1.1460 -0.8039
   16SAPS  H18S 2072   3.490   1.191   8.366 -1.0505  1.7333  0.7828
   16SAPS  C219 2073   3.379   1.088   8.522 -0.8190 -0.3921  1.4581
   16SAPS  H19R 2074   3.357   1.167   8.597 -2.2546 -0.3396  0.9950
   16SAPS  H19S 2075   3.478   1.060   8.565  0.4085  0.2493 -0.7849
   16SAPS  C220 2076   3.266   0.986   8.528 -0.7694 -0.1990  0.2034
   16SAPS  H20R 2077   3.293   0.894   8.472  0.4469 -0.3003  0.9120
   16SAPS  H20S 2078   3.171   1.028   8.488  0.2050  1.1260 -0.8334
   16SAPS  H20T 2079   3.241   0.954   8.632 -0.8613  0.7359  0.4806
   16SAPS   C33 2080   3.561   1.391   7.250  0.5685  0.7024  1.1392
   16SAPS   H3X 2081   3.532   1.336   7.342  1.4380 -0.6271  0.6437
   16SAPS   H3Y 2082   3.641   1.467   7.265 -0.0607  1.6482 -0.1044
   16SAPS   C34 2083   3.605   1.268   7.170 -0.0216 -0.6574  0.2949
   16SAPS   H4X 2084   3.659   1.297   7.077 -0.0304 -2.4804 -0.3135
   16SAPS   H4Y 2085   3.520   1.206   7.136  1.0495 -2.3986  0.6499
   16SAPS   C35 2086   3.714   1.201   7.248  0.7078  0.3017  0.3107
   16SAPS   H5X 2087   3.786   1.262   7.306  0.8701 -0.4444  0.9081
   16SAPS   H5Y 2088   3.766   1.141   7.170 -1.5985  0.5477 -1.5393
   16SAPS   C36 2089   3.673   1.083   7.337 -0.1310  1.1303  0.1995
   16SAPS   H6X 2090   3.611   1.012   7.278  1.6325  1.1291 -1.7486
   16SAPS   H6Y 2091   3.613   1.114   7.425  0.6379  1.9108  0.4677
   16SAPS   C37 2092   3.795   0.986   7.383  0.0054 -0.0476  0.1631
   16SAPS   H7X 2093   3.863   1.057   7.435 -0.4150 -0.7840  1.7743
   16SAPS   H7Y 2094   3.847   0.961   7.288 -0.4263  1.5151 -0.5259
   16SAPS   C38 2095   3.753   0.864   7.471 -0.2605  0.2538  0.4043
   16SAPS   H8X 2096   3.830   0.784   7.462 -3.1352 -2.8334  1.4146
   16SAPS   H8Y 2097   3.664   0.824   7.418  2.9220 -2.2011 -3.7094
   16SAPS   C39 2098   3.740   0.896   7.623  0.6698  0.2430  0.6807
   16SAPS   H9X 2099   3.635   0.877   7.654 -0.4848  1.0743 -2.3241
   16SAPS   H9Y 2100   3.752   1.005   7.638 -0.3707  0.1124  2.8586
   16SAPS  C310 2101   3.828   0.802   7.706  0.0138 -0.2059 -0.0031
   16SAPS  H10X 2102   3.933   0.835   7.716 -0.5478  1.9699 -0.6695
   16SAPS  H10Y 2103   3.837   0.707   7.649  3.4337  0.8896 -1.5466
   16SAPS  C311 2104   3.768   0.772   7.844 -0.2785  0.2869 -0.6656
   16SAPS  H11X 2105   3.699   0.854   7.872 -0.5504 -0.0706 -0.2700
   16SAPS  H11Y 2106   3.858   0.760   7.908 -0.3215  0.1704 -0.6254
   16SAPS  C312 2107   3.692   0.640   7.843  0.3897 -0.2196 -0.7033
   16SAPS  H12X 2108   3.755   0.551   7.820  0.3364  0.1205 -2.2841
   16SAPS  H12Y 2109   3.616   0.644   7.762 -1.9765 -0.6947  1.4016
   16SAPS  C313 2110   3.628   0.607   7.980  0.0590  0.1699  0.3206
   16SAPS  H13X 2111   3.530   0.556   7.963 -0.1454 -0.2189  2.4427
   16SAPS  H13Y 2112   3.618   0.701   8.039 -0.4134  0.1443  0.2856
   16SAPS  C314 2113   3.709   0.515   8.071  0.3176 -0.1746  0.4567
   16SAPS  H14X 2114   3.791   0.581   8.104 -2.7661  3.6125  1.3459
   16SAPS  H14Y 2115   3.744   0.419   8.028  1.6543  0.5941 -0.2147
   16SAPS  C315 2116   3.630   0.475   8.199  0.2694 -1.3888 -0.1630
   16SAPS  H15X 2117   3.680   0.396   8.259  0.4510 -0.7815  0.5020
   16SAPS  H15Y 2118   3.529   0.435   8.177  0.2413 -0.8563 -1.0301
   16SAPS  C316 2119   3.606   0.596   8.289  0.7303  0.1486  0.3225
   16SAPS  H16X 2120   3.543   0.671   8.236 -1.1163  0.5488  2.8671
   16SAPS  H16Y 2121   3.708   0.636   8.309  2.2277 -2.8953 -0.6819
   16SAPS  C317 2122   3.522   0.566   8.415 -1.1190  0.1155  0.6611
   16SAPS  H17X 2123   3.565   0.477   8.466  0.4840 -0.7387 -2.0051
   16SAPS  H17Y 2124   3.427   0.529   8.371 -1.1626 -0.5784  1.3000
   16SAPS  C318 2125   3.496   0.678   8.515 -0.7653 -0.1006 -0.2631
   16SAPS  H18X 2126   3.589   0.711   8.566 -1.1624 -0.2694  0.5778
   16SAPS  H18Y 2127   3.437   0.643   8.602 -0.5416 -0.6994 -0.3462
   16SAPS  H18Z 2128   3.445   0.764   8.467 -0.9973 -0.1030 -0.0252
   17SAPC     N 2129   6.536   2.120  10.607 -0.0070 -0.0788  0.3772
   17SAPC   C12 2130   6.488   2.184  10.482  0.7399 -0.0754 -0.0128
   17SAPC  H12A 2131   6.527   2.284  10.466 -0.1418  0.0626 -1.4510
   17SAPC  H12B 2132   6.381   2.199  10.487  0.8040 -0.0684  2.8075
   17SAPC   C13 2133   6.538   2.217  10.722 -0.6221  0.2545 -0.6540
   17SAPC  H13A 2134   6.596   2.307  10.708 -2.0398  1.6165  1.5088
   17SAPC  H13B 2135   6.441   2.261  10.741 -0.8465  0.3373 -1.8612
   17SAPC  H13C 2136   6.568   2.167  10.813 -1.2835  0.5947 -0.2435
   17SAPC   C14 2137   6.438   2.011  10.642  0.4638 -0.2723  0.2869
   17SAPC  H14A 2138   6.335   2.045  10.641 -0.4266 -2.5347  2.8839
   17SAPC  H14B 2139   6.446   1.929  10.573  0.0626 -1.2604  1.3865
   17SAPC  H14C 2140   6.456   1.976  10.743  1.6380  0.6739  0.4249
   17SAPC   C15 2141   6.675   2.064  10.586 -0.0818 -0.1308  0.2468
   17SAPC  H15A 2142   6.667   1.968  10.538 -0.7042 -0.6199  1.2964
   17SAPC  H15B 2143   6.747   2.135  10.547 -0.9700  1.5010  1.4338
   17SAPC  H15C 2144   6.720   2.042  10.682  1.3344  2.7694  0.3639
   17SAPC   C11 2145   6.507   2.109  10.350  0.0228 -0.6918  0.2132
   17SAPC  H11A 2146   6.610   2.082  10.315 -0.5816 -2.1921 -0.5043
   17SAPC  H11B 2147   6.462   2.172  10.271  0.8893 -0.6755 -0.2850
   17SAPC     P 2148   6.446   1.873  10.236  0.1951 -0.3982 -0.3160
   17SAPC   O13 2149   6.565   1.794  10.266 -0.2928 -0.1324 -0.4399
   17SAPC   O14 2150   6.321   1.797  10.227 -0.2963 -0.1347  0.3711
   17SAPC   O12 2151   6.428   1.988  10.348  0.4268  0.2056 -0.1430
   17SAPC   O11 2152   6.472   1.946  10.102  0.2458 -0.1686 -0.1074
   17SAPC    C1 2153   6.369   2.035  10.059  0.2205  0.1684  0.5397
   17SAPC    HA 2154   6.290   1.972  10.014  2.2880 -2.2635  0.0836
   17SAPC    HB 2155   6.323   2.100  10.137 -2.6770 -0.2900 -0.6606
   17SAPC    C2 2156   6.416   2.151   9.967  0.5817  0.7531  0.1524
   17SAPC    HS 2157   6.423   2.235  10.039 -0.5509 -1.0474  2.4948
   17SAPC   O21 2158   6.322   2.176   9.858  0.0218 -0.2032 -0.4446
   17SAPC   C21 2159   6.193   2.187   9.891  0.6011  0.1892  0.5025
   17SAPC   O22 2160   6.146   2.186  10.002  0.2745  0.5287  0.1830
   17SAPC   C22 2161   6.114   2.202   9.764 -0.8435 -0.2099 -0.0245
   17SAPC   H2R 2162   6.161   2.287   9.710 -0.7270  1.6761  2.8292
   17SAPC   H2S 2163   6.131   2.113   9.698  1.4295  2.3012 -3.1657
   17SAPC    C3 2164   6.552   2.130   9.903  0.3412 -0.6098 -0.1540
   17SAPC    HX 2165   6.546   2.030   9.856  0.3896 -1.3791  1.4182
   17SAPC    HY 2166   6.635   2.130   9.976 -0.3961 -0.1748  0.6968
   17SAPC   O31 2167   6.586   2.223   9.795  0.2095  0.3758 -0.2880
   17SAPC   C31 2168   6.654   2.334   9.832 -0.3121 -0.1988 -0.0823
   17SAPC   O32 2169   6.690   2.369   9.939 -0.4458  0.0847  0.8227
   17SAPC   C32 2170   6.692   2.413   9.707  0.3591 -0.2723 -0.6270
   17SAPC   H2X 2171   6.634   2.508   9.703 -0.1106 -0.5464 -0.4161
   17SAPC   H2Y 2172   6.681   2.348   9.618  2.7959  1.0274 -1.9712
   17SAPC   C23 2173   5.971   2.245   9.780 -0.7036  0.2396 -0.0209
   17SAPC   H3R 2174   5.955   2.327   9.853 -1.7677  0.0200  0.0123
   17SAPC   H3S 2175   5.921   2.160   9.832  0.2238  0.4058  1.2101
   17SAPC   C24 2176   5.904   2.286   9.654 -0.5717  0.1672 -0.0939
   17SAPC   H4R 2177   5.967   2.359   9.599 -0.8467  1.3321  1.0609
   17SAPC   H4S 2178   5.810   2.342   9.673 -0.4924  0.8519 -1.5453
   17SAPC   C25 2179   5.870   2.170   9.562 -0.1039 -0.0407 -0.7282
   17SAPC   H5R 2180   5.819   2.088   9.615 -0.0691 -0.8475 -1.9045
   17SAPC   C26 2181   5.903   2.143   9.433 -0.7084  0.4269  0.8518
   17SAPC   H6R 2182   5.871   2.051   9.382  0.7347  0.7370 -0.6843
   17SAPC   C27 2183   5.982   2.231   9.342  0.5550 -0.5177 -0.5537
   17SAPC   H7R 2184   5.937   2.329   9.318 -2.9682 -2.0416 -0.7830
   17SAPC   H7S 2185   5.983   2.183   9.242 -0.4306  2.4194 -2.0810
   17SAPC   C28 2186   6.122   2.252   9.393  0.1254 -0.0221  0.5988
   17SAPC   H8R 2187   6.138   2.241   9.501  2.7567 -1.7923  0.1135
   17SAPC   C29 2188   6.233   2.269   9.312 -0.0884  0.2730  0.2531
   17SAPC   H9R 2189   6.335   2.291   9.347  0.3662  0.7303 -1.2803
   17SAPC  C210 2190   6.235   2.274   9.162  0.0593  0.3179 -0.3493
   17SAPC  H10R 2191   6.131   2.283   9.124 -0.0479 -0.3234 -0.2331
   17SAPC  H10S 2192   6.271   2.173   9.131 -1.2402  0.5158 -2.6531
   17SAPC  C211 2193   6.311   2.384   9.107 -0.6351 -0.1260 -0.5319
   17SAPC  H11R 2194   6.420   2.378   9.107 -0.4029  2.7233  1.2328
   17SAPC  C212 2195   6.258   2.503   9.070  0.5158 -0.1038  0.2939
   17SAPC  H12R 2196   6.326   2.581   9.034 -1.0942  1.0261 -0.4104
   17SAPC  C213 2197   6.113   2.542   9.091  0.0495 -0.6831  0.3104
   17SAPC  H13R 2198   6.072   2.496   9.183 -1.3677 -2.4101 -1.0978
   17SAPC  H13S 2199   6.052   2.488   9.015 -0.7442  1.0424 -0.3434
   17SAPC  C214 2200   6.102   2.695   9.084 -0.1789 -0.1715 -0.6467
   17SAPC  H14R 2201   6.133   2.747   9.177  1.0287 -1.5278 -0.2437
   17SAPC  C215 2202   6.061   2.769   8.983 -0.7447 -0.0819  0.7729
   17SAPC  H15R 2203   6.038   2.876   8.992 -1.4321 -0.2483  1.1066
   17SAPC  C216 2204   6.011   2.717   8.858  0.4368  0.7362  0.0744
   17SAPC  H16R 2205   6.040   2.612   8.836 -0.7080  0.3375  0.3756
   17SAPC  H16S 2206   6.048   2.779   8.774 -1.3156 -0.6759 -1.8508
   17SAPC  C217 2207   5.857   2.710   8.852 -0.0792 -0.1339  0.5217
   17SAPC  H17R 2208   5.823   2.815   8.846 -0.6545 -0.2691  1.2402
   17SAPC  H17S 2209   5.817   2.669   8.947 -1.6783  0.5451  0.1690
   17SAPC  C218 2210   5.809   2.642   8.722  0.7479 -0.0180 -0.0957
   17SAPC  H18R 2211   5.699   2.649   8.719  0.8081  0.7532 -0.5268
   17SAPC  H18S 2212   5.827   2.532   8.729 -1.5325 -0.4105  0.2037
   17SAPC  C219 2213   5.871   2.692   8.590 -0.8209 -0.9604  0.9694
   17SAPC  H19R 2214   5.974   2.654   8.576 -0.2754  0.8839 -0.3312
   17SAPC  H19S 2215   5.864   2.800   8.567  1.6666 -1.0853 -0.8022
   17SAPC  C220 2216   5.795   2.626   8.471  0.1576 -0.4589  0.1789
   17SAPC  H20R 2217   5.808   2.515   8.474  0.4350 -0.4290  0.1111
   17SAPC  H20S 2218   5.840   2.669   8.379  1.1379 -2.3364 -0.2730
   17SAPC  H20T 2219   5.691   2.666   8.471 -0.7474 -2.1579 -4.8534
   17SAPC   C33 2220   6.840   2.454   9.706 -0.0121  0.4868  0.3048
   17SAPC   H3X 2221   6.902   2.363   9.711  0.4328  0.7701 -0.0611
   17SAPC   H3Y 2222   6.865   2.508   9.800  3.3940 -0.4838  0.0750
   17SAPC   C34 2223   6.884   2.540   9.581 -0.0961 -0.1128 -0.8270
   17SAPC   H4X 2224   6.980   2.581   9.616 -0.0922 -0.5713 -0.2928
   17SAPC   H4Y 2225   6.815   2.625   9.562  0.3748  0.5837  0.4852
   17SAPC   C35 2226   6.907   2.461   9.454  0.2878  0.0759  0.4945
   17SAPC   H5X 2227   6.813   2.407   9.433 -0.8756  1.1061  2.7043
   17SAPC   H5Y 2228   6.989   2.391   9.482  0.2903  0.5114  1.6441
   17SAPC   C36 2229   6.961   2.548   9.343 -0.8102  0.0915 -0.5705
   17SAPC   H6X 2230   6.906   2.644   9.341 -2.6741 -0.8722  0.9219
   17SAPC   H6Y 2231   6.931   2.502   9.246 -1.2184 -0.3922 -0.2204
   17SAPC   C37 2232   7.111   2.581   9.350  0.2428  0.0734 -0.5048
   17SAPC   H7X 2233   7.166   2.487   9.371 -0.6812 -0.1555  1.0851
   17SAPC   H7Y 2234   7.137   2.654   9.429  0.1376  0.1237 -0.5181
   17SAPC   C38 2235   7.154   2.637   9.211 -0.3795 -0.3116 -0.2940
   17SAPC   H8X 2236   7.115   2.741   9.214 -2.3554 -0.9645 -1.5484
   17SAPC   H8Y 2237   7.099   2.585   9.130 -0.9054 -1.3821  0.7239
   17SAPC   C39 2238   7.304   2.629   9.202  0.2274  0.0969  0.1786
   17SAPC   H9X 2239   7.329   2.520   9.207 -0.9218 -0.1809  0.2187
   17SAPC   H9Y 2240   7.336   2.690   9.288 -1.5299  0.3639  0.6673
   17SAPC  C310 2241   7.372   2.672   9.069  0.4785  0.2777 -0.0684
   17SAPC  H10X 2242   7.483   2.671   9.076  0.4821 -0.2554 -0.1377
   17SAPC  H10Y 2243   7.344   2.778   9.049  0.6426 -0.0914 -2.6252
   17SAPC  C311 2244   7.323   2.603   8.944 -0.1382 -0.3251  0.1304
   17SAPC  H11X 2245   7.212   2.591   8.941  0.1486 -3.8669 -1.4853
   17SAPC  H11Y 2246   7.367   2.501   8.943 -2.7153 -1.5463  0.4941
   17SAPC  C312 2247   7.385   2.675   8.824  0.5090 -0.6505  0.7121
   17SAPC  H12X 2248   7.360   2.608   8.739  0.1921  1.1285 -0.6626
   17SAPC  H12Y 2249   7.496   2.675   8.837  0.4913  1.3115  1.1921
   17SAPC  C313 2250   7.325   2.815   8.797 -0.0361 -0.0220  0.1283
   17SAPC  H13X 2251   7.367   2.896   8.860  1.2496  0.9647 -1.8691
   17SAPC  H13Y 2252   7.217   2.820   8.824  0.0328  1.6202  0.2456
   17SAPC  C314 2253   7.322   2.852   8.647 -0.9589  0.1439  0.0471
   17SAPC  H14X 2254   7.334   2.755   8.594 -0.8033  1.3338 -2.2394
   17SAPC  H14Y 2255   7.409   2.918   8.626 -0.3881 -0.3213  0.9108
   17SAPC  C315 2256   7.192   2.903   8.601  0.0619 -0.6906  0.1971
   17SAPC  H15X 2257   7.160   2.992   8.659  0.3814 -0.2143 -0.3419
   17SAPC  H15Y 2258   7.119   2.822   8.624  0.2762 -0.4140  2.0352
   17SAPC  C316 2259   7.191   2.936   8.445 -0.1726  0.9603  0.2797
   17SAPC  H16X 2260   7.082   2.947   8.424 -0.3740  0.4605  1.0358
   17SAPC  H16Y 2261   7.249   2.862   8.386 -0.2379  1.5428 -0.5404
   17SAPC  C317 2262   7.273   3.059   8.417  0.3040  0.8474 -0.3404
   17SAPC  H17X 2263   7.379   3.027   8.426  0.2044  0.7547  0.6112
   17SAPC  H17Y 2264   7.246   3.131   8.497 -0.6710 -0.1733  0.2960
   17SAPC  C318 2265   7.249   3.129   8.280 -0.3845  0.9508  0.2897
   17SAPC  H18X 2266   7.315   3.081   8.204  0.5485  1.2630  0.8873
   17SAPC  H18Y 2267   7.140   3.134   8.262 -0.7214 -2.4977  0.6540
   17SAPC  H18Z 2268   7.285   3.233   8.293 -1.8166  1.4721  0.2106
   18SAPC     N 2269   0.421   2.714  10.323 -0.4373  0.0885 -0.1703
   18SAPC   C12 2270   0.350   2.578  10.357 -0.1767 -0.6176  0.8317
   18SAPC  H12A 2271   0.246   2.605  10.363 -0.0882 -0.6474  4.2231
   18SAPC  H12B 2272   0.372   2.552  10.459  1.5292  0.1681  0.6929
   18SAPC   C13 2273   0.388   2.757  10.184 -0.0314 -0.0174  0.0150
   18SAPC  H13A 2274   0.449   2.707  10.110  1.8875  2.6164 -0.3140
   18SAPC  H13B 2275   0.283   2.751  10.156  1.0252 -1.2919 -4.6606
   18SAPC  H13C 2276   0.410   2.861  10.168 -1.8646  0.6286  1.3921
   18SAPC   C14 2277   0.389   2.829  10.420 -0.6912 -0.1970 -0.4231
   18SAPC  H14A 2278   0.412   2.796  10.520 -0.0037 -2.0784 -1.1654
   18SAPC  H14B 2279   0.440   2.920  10.393 -0.8698  0.3385  0.9688
   18SAPC  H14C 2280   0.285   2.860  10.425 -0.7306 -0.4736  1.9743
   18SAPC   C15 2281   0.570   2.700  10.332 -0.1623  0.5910  0.1189
   18SAPC  H15A 2282   0.620   2.796  10.325  2.2600 -0.5786  0.4035
   18SAPC  H15B 2283   0.604   2.676  10.431 -0.4399 -1.1676 -0.1774
   18SAPC  H15C 2284   0.617   2.630  10.264  0.7268  0.5625  0.7380
   18SAPC   C11 2285   0.369   2.456  10.265  0.0440  0.0659 -0.1103
   18SAPC  H11A 2286   0.333   2.490  10.166 -0.6642  0.4751  0.2757
   18SAPC  H11B 2287   0.303   2.377  10.307 -2.2640  2.6009  1.3620
   18SAPC     P 2288   0.584   2.348  10.375  0.0232 -0.4438 -0.3630
   18SAPC   O13 2289   0.727   2.359  10.344 -0.4187  0.1309 -0.4991
   18SAPC   O14 2290   0.556   2.428  10.500  0.1264 -0.3338 -0.0659
   18SAPC   O12 2291   0.502   2.405  10.251  0.2430  0.2447  0.1693
   18SAPC   O11 2292   0.547   2.195  10.398 -0.2707  0.1831  0.0136
   18SAPC    C1 2293   0.590   2.093  10.306 -1.1648 -0.0496  0.0137
   18SAPC    HA 2294   0.684   2.125  10.257 -1.0843 -1.2069 -0.6076
   18SAPC    HB 2295   0.602   1.997  10.359  0.9425 -0.3334 -0.8709
   18SAPC    C2 2296   0.490   2.061  10.192 -0.9381 -0.3640  0.2668
   18SAPC    HS 2297   0.470   2.155  10.138 -1.8514 -0.0822  1.0612
   18SAPC   O21 2298   0.363   2.018  10.251 -0.7460 -0.8128  0.2771
   18SAPC   C21 2299   0.255   2.062  10.183 -0.0633  0.4880  0.6400
   18SAPC   O22 2300   0.255   2.137  10.089 -0.7169 -0.4212 -0.8800
   18SAPC   C22 2301   0.139   1.999  10.263  0.2106  0.6177  0.4315
   18SAPC   H2R 2302   0.179   1.911  10.317 -1.2258 -0.3308 -0.0134
   18SAPC   H2S 2303   0.127   2.077  10.341  0.7439 -0.0041  1.1504
   18SAPC    C3 2304   0.558   1.944  10.110 -0.2242  0.6100 -0.1363
   18SAPC    HX 2305   0.487   1.892  10.042  0.4571 -2.6862  1.4875
   18SAPC    HY 2306   0.590   1.862  10.177 -0.1477  1.9959  1.5905
   18SAPC   O31 2307   0.660   2.002  10.033 -0.1538 -0.0308 -0.2154
   18SAPC   C31 2308   0.708   1.923   9.941 -0.2364  0.2059  0.0705
   18SAPC   O32 2309   0.656   1.827   9.889 -0.1241  0.1002  0.1773
   18SAPC   C32 2310   0.839   1.985   9.901  0.0685  0.6802  0.4515
   18SAPC   H2X 2311   0.911   1.961   9.982  0.2559 -0.5659 -0.0590
   18SAPC   H2Y 2312   0.832   2.093   9.872 -0.5706 -0.0768 -2.5857
   18SAPC   C23 2313   0.015   1.975  10.177 -0.0447  0.4991  0.2420
   18SAPC   H3R 2314   0.017   2.062  10.109  2.3310  0.9533  0.7920
   18SAPC   H3S 2315  -0.075   1.983  10.242 -1.0396  3.0241 -1.3242
   18SAPC   C24 2316   0.015   1.842  10.099 -0.8694  0.0393 -0.9703
   18SAPC   H4R 2317  -0.009   1.762  10.172  0.8515  0.2226 -0.1526
   18SAPC   H4S 2318   0.120   1.821  10.069 -0.8762  0.2387 -1.1330
   18SAPC   C25 2319  -0.071   1.843   9.974 -0.0274 -0.4059  0.3238
   18SAPC   H5R 2320  -0.180   1.845   9.989  0.1602 -2.1048  2.5158
   18SAPC   C26 2321  -0.032   1.819   9.844 -0.7676  0.3363 -0.4580
   18SAPC   H6R 2322  -0.107   1.843   9.768 -1.7912  1.2139  0.7929
   18SAPC   C27 2323   0.114   1.790   9.798 -0.4907 -0.1711  0.9643
   18SAPC   H7R 2324   0.108   1.733   9.703 -1.1853 -0.6901  1.3093
   18SAPC   H7S 2325   0.175   1.728   9.867  2.8687  2.6620  0.8232
   18SAPC   C28 2326   0.194   1.918   9.775 -0.9358  1.2197  0.3702
   18SAPC   H8R 2327   0.258   1.947   9.859 -1.0769  3.5211 -0.2699
   18SAPC   C29 2328   0.202   1.989   9.669  0.2918  0.5136  0.3044
   18SAPC   H9R 2329   0.265   2.079   9.678  1.1071  0.1516 -1.3707
   18SAPC  C210 2330   0.130   1.964   9.546  0.8291  0.6135 -0.2321
   18SAPC  H10R 2331   0.089   1.861   9.547  0.2265  0.8325  1.5972
   18SAPC  H10S 2332   0.204   1.963   9.463  0.1151 -1.7427 -0.9033
   18SAPC  C211 2333   0.021   2.056   9.525 -0.0003  0.7190  0.3182
   18SAPC  H11R 2334  -0.039   2.074   9.615 -0.9929 -3.1560  0.6261
   18SAPC  C212 2335  -0.014   2.110   9.402  0.6998  0.4554  0.3379
   18SAPC  H12R 2336  -0.106   2.168   9.382  1.6657  0.8131 -4.2735
   18SAPC  C213 2337   0.053   2.101   9.272  0.6314 -0.4295 -0.0519
   18SAPC  H13R 2338  -0.019   2.125   9.191 -0.7628 -0.1536  1.2213
   18SAPC  H13S 2339   0.088   1.998   9.250  4.5343  0.2293  2.0588
   18SAPC  C214 2340   0.178   2.177   9.272  0.2722  0.2777 -0.0309
   18SAPC  H14R 2341   0.206   2.221   9.369  0.9725  0.4315 -0.2942
   18SAPC  C215 2342   0.247   2.214   9.162 -0.3084  0.7580  0.0814
   18SAPC  H15R 2343   0.335   2.280   9.167  0.9753 -0.8200 -0.8723
   18SAPC  C216 2344   0.223   2.176   9.017  0.2695  0.4120 -0.0245
   18SAPC  H16R 2345   0.115   2.170   8.988  0.3796 -2.5550 -0.1991
   18SAPC  H16S 2346   0.262   2.072   9.024 -0.1159  0.3512  1.5570
   18SAPC  C217 2347   0.307   2.246   8.910 -0.0204  0.1341 -0.2387
   18SAPC  H17R 2348   0.409   2.261   8.953  0.9250 -1.2058 -1.8768
   18SAPC  H17S 2349   0.285   2.353   8.893  0.6455  0.8551  2.7472
   18SAPC  C218 2350   0.317   2.168   8.774  0.1406 -0.1010  0.8578
   18SAPC  H18R 2351   0.227   2.202   8.719  1.3176  0.9611 -0.4799
   18SAPC  H18S 2352   0.312   2.057   8.787 -0.8860 -0.1074  0.4637
   18SAPC  C219 2353   0.430   2.212   8.681  0.0154 -0.1557 -0.7135
   18SAPC  H19R 2354   0.518   2.225   8.747 -0.8509  0.5905  0.3434
   18SAPC  H19S 2355   0.418   2.314   8.637 -0.7970 -0.0386 -0.2566
   18SAPC  C220 2356   0.457   2.121   8.564  0.0306  0.1042  0.2095
   18SAPC  H20R 2357   0.382   2.125   8.482  1.7467  2.4105 -1.4025
   18SAPC  H20S 2358   0.464   2.019   8.606 -0.8998 -0.5098 -1.0522
   18SAPC  H20T 2359   0.560   2.144   8.528  0.5089 -0.3876  1.2303
   18SAPC   C33 2360   0.908   1.921   9.774  0.2991 -0.0559 -0.2783
   18SAPC   H3X 2361   0.842   1.952   9.690 -0.5640  1.8460  1.0121
   18SAPC   H3Y 2362   0.907   1.810   9.779  0.6670 -0.2294 -2.8207
   18SAPC   C34 2363   1.055   1.968   9.751 -0.3439  0.4042  0.4978
   18SAPC   H4X 2364   1.105   1.974   9.850 -0.5161 -1.3707  0.7411
   18SAPC   H4Y 2365   1.064   2.072   9.714  1.2248 -0.1551 -0.7586
   18SAPC   C35 2366   1.143   1.871   9.670 -0.1688  0.5239 -0.5499
   18SAPC   H5X 2367   1.129   1.765   9.701  0.3615  0.3994 -0.7382
   18SAPC   H5Y 2368   1.248   1.902   9.685 -0.2296 -0.4157  2.8003
   18SAPC   C36 2369   1.117   1.888   9.516  0.6344  0.0824  0.6907
   18SAPC   H6X 2370   1.095   1.995   9.491 -0.1754 -0.2825 -0.2310
   18SAPC   H6Y 2371   1.024   1.839   9.481  1.5952 -1.4066  0.1129
   18SAPC   C37 2372   1.229   1.841   9.432 -0.2109  0.0932 -1.1332
   18SAPC   H7X 2373   1.251   1.733   9.448 -1.2234 -0.2631 -2.0128
   18SAPC   H7Y 2374   1.319   1.897   9.466 -1.1296  0.9236 -0.0190
   18SAPC   C38 2375   1.223   1.860   9.276  0.2546  0.3386  0.7881
   18SAPC   H8X 2376   1.230   1.968   9.252 -0.2740  0.2983  0.4306
   18SAPC   H8Y 2377   1.124   1.815   9.250  0.5631 -0.0782  0.3110
   18SAPC   C39 2378   1.327   1.770   9.199 -0.6133 -0.1726 -0.3281
   18SAPC   H9X 2379   1.295   1.668   9.229 -1.8138 -1.1230 -4.2883
   18SAPC   H9Y 2380   1.431   1.789   9.234 -0.3719 -0.8717 -0.6569
   18SAPC  C310 2381   1.320   1.794   9.047  0.0891 -0.7884 -0.1740
   18SAPC  H10X 2382   1.327   1.903   9.028 -1.4961 -1.0795 -3.0192
   18SAPC  H10Y 2383   1.219   1.761   9.015  0.3010 -1.4806 -0.1628
   18SAPC  C311 2384   1.423   1.717   8.967 -0.0254  0.5750  0.2198
   18SAPC  H11X 2385   1.411   1.608   8.987 -1.3890  0.5879 -0.3790
   18SAPC  H11Y 2386   1.533   1.732   8.977  0.1857 -1.2276  1.0124
   18SAPC  C312 2387   1.399   1.719   8.819 -0.2637  0.3878  0.0038
   18SAPC  H12X 2388   1.387   1.827   8.794 -1.0546  0.2236 -0.3311
   18SAPC  H12Y 2389   1.304   1.665   8.799 -0.0829 -0.1922  0.6844
   18SAPC  C313 2390   1.521   1.657   8.734 -0.5445 -0.3055 -0.2577
   18SAPC  H13X 2391   1.531   1.550   8.761 -0.0268 -0.5833 -1.4814
   18SAPC  H13Y 2392   1.615   1.703   8.769 -0.5958  0.3820 -1.0057
   18SAPC  C314 2393   1.498   1.660   8.578 -0.1335  0.0896 -0.1212
   18SAPC  H14X 2394   1.484   1.761   8.536 -1.6432  0.1092  0.3706
   18SAPC  H14Y 2395   1.402   1.604   8.570  1.1115 -2.0047 -1.3552
   18SAPC  C315 2396   1.610   1.579   8.500  0.1474 -0.5103  0.4415
   18SAPC  H15X 2397   1.646   1.490   8.556  0.9189 -0.2308  0.3902
   18SAPC  H15Y 2398   1.686   1.655   8.473 -1.5267  1.7496  1.7067
   18SAPC  C316 2399   1.551   1.525   8.366  0.1985  1.0606 -0.4235
   18SAPC  H16X 2400   1.458   1.467   8.383  1.7221 -1.8038 -1.1053
   18SAPC  H16Y 2401   1.613   1.440   8.330  0.0598 -0.2324  2.1777
   18SAPC  C317 2402   1.544   1.634   8.255 -0.0587 -0.2771  0.2127
   18SAPC  H17X 2403   1.647   1.675   8.267  0.2623 -0.7748 -0.7543
   18SAPC  H17Y 2404   1.469   1.709   8.289 -0.9763 -1.0688 -0.0391
   18SAPC  C318 2405   1.515   1.583   8.117  0.4959 -0.5395 -0.2218
   18SAPC  H18X 2406   1.611   1.548   8.072  1.5165 -1.2148  2.3000
   18SAPC  H18Y 2407   1.464   1.652   8.047 -1.2994 -1.9242 -0.3463
   18SAPC  H18Z 2408   1.452   1.492   8.117 -0.8677  0.3658  1.1079
   19SAPC     N 2409   0.801   4.247  10.337 -0.1370  0.0119 -0.1942
   19SAPC   C12 2410   0.848   4.147  10.230 -0.6201 -0.1618 -0.4566
   19SAPC  H12A 2411   0.856   4.209  10.142  2.3714  1.9187  1.1443
   19SAPC  H12B 2412   0.775   4.069  10.212  2.1725 -3.2719  0.6846
   19SAPC   C13 2413   0.921   4.326  10.382 -0.1144 -0.6586 -0.0800
   19SAPC  H13A 2414   0.881   4.404  10.443 -1.1616 -1.0820 -0.1977
   19SAPC  H13B 2415   0.998   4.266  10.429  0.1536 -0.0587  0.2454
   19SAPC  H13C 2416   0.960   4.378  10.296  0.2273  0.7507  0.9070
   19SAPC   C14 2417   0.695   4.330  10.277 -0.3691 -0.6622  0.0918
   19SAPC  H14A 2418   0.653   4.392  10.354  2.5328  2.5436 -0.6454
   19SAPC  H14B 2419   0.731   4.404  10.208 -0.2423 -0.5170  0.3112
   19SAPC  H14C 2420   0.616   4.271  10.234 -1.0774 -0.4187  1.0379
   19SAPC   C15 2421   0.747   4.155  10.448 -0.3033 -0.3412 -0.0751
   19SAPC  H15A 2422   0.660   4.104  10.409  0.8389 -0.5278 -2.6389
   19SAPC  H15B 2423   0.814   4.071  10.465  0.7943  0.4167 -0.5417
   19SAPC  H15C 2424   0.740   4.222  10.532  0.7229 -0.6337  0.2593
   19SAPC   C11 2425   0.983   4.072  10.232  0.4909  0.3044  0.4862
   19SAPC  H11A 2426   1.067   4.143  10.246  0.1143  0.9304 -0.3097
   19SAPC  H11B 2427   0.996   4.017  10.137 -1.9025  0.3038  0.0838
   19SAPC     P 2428   0.924   3.837  10.352 -0.0481  0.0748 -0.3529
   19SAPC   O13 2429   1.031   3.746  10.396  0.3441  0.7364  0.7781
   19SAPC   O14 2430   0.809   3.842  10.447 -0.3446 -0.0244  0.5122
   19SAPC   O12 2431   0.993   3.982  10.338 -0.0053 -0.2057  0.2601
   19SAPC   O11 2432   0.873   3.811  10.209  0.0006 -0.2189  0.3780
   19SAPC    C1 2433   0.950   3.721  10.120  1.1953 -0.1390  0.3777
   19SAPC    HA 2434   1.054   3.712  10.159  0.8159 -1.1230  1.1889
   19SAPC    HB 2435   0.907   3.619  10.119  0.1727  0.2698  0.7930
   19SAPC    C2 2436   0.943   3.758   9.974  0.2231  0.2240  0.6197
   19SAPC    HS 2437   1.013   3.840   9.950 -0.4391  0.2773 -1.3261
   19SAPC   O21 2438   0.810   3.790   9.934 -0.4253 -0.5775  0.0700
   19SAPC   C21 2439   0.781   3.912   9.902 -0.0355 -0.0613 -0.5466
   19SAPC   O22 2440   0.865   4.000   9.901 -0.0065 -0.6185  0.3243
   19SAPC   C22 2441   0.629   3.927   9.875 -0.3059  0.4420 -0.0300
   19SAPC   H2R 2442   0.566   3.883   9.954 -2.6164 -0.8357 -2.4295
   19SAPC   H2S 2443   0.616   4.037   9.877 -1.7450  0.2770  0.7136
   19SAPC    C3 2444   0.998   3.637   9.889  0.2658  0.3993  0.1852
   19SAPC    HX 2445   0.951   3.546   9.931  0.6958  0.3114  0.4816
   19SAPC    HY 2446   1.108   3.640   9.904  0.3693  1.4310 -0.5984
   19SAPC   O31 2447   0.965   3.667   9.750  0.0708  0.7914 -0.0921
   19SAPC   C31 2448   0.903   3.570   9.688 -0.5899  0.3987 -0.1450
   19SAPC   O32 2449   0.888   3.459   9.738 -0.0140  0.3474 -0.1489
   19SAPC   C32 2450   0.847   3.607   9.551  0.0979 -0.0082  1.1068
   19SAPC   H2X 2451   0.930   3.672   9.515 -0.1308 -0.9800 -1.3675
   19SAPC   H2Y 2452   0.757   3.670   9.568  0.7292  0.8136  1.4691
   19SAPC   C23 2453   0.585   3.871   9.741 -0.6134 -0.0371 -0.0375
   19SAPC   H3R 2454   0.482   3.913   9.732 -0.6956 -0.1937  0.1748
   19SAPC   H3S 2455   0.591   3.760   9.739  1.9557  0.0392  0.5347
   19SAPC   C24 2456   0.644   3.940   9.619  0.1766 -0.1497  0.0905
   19SAPC   H4R 2457   0.752   3.916   9.615 -0.0514 -1.0710 -1.3263
   19SAPC   H4S 2458   0.641   4.051   9.624  0.7867 -0.0483 -1.2951
   19SAPC   C25 2459   0.578   3.900   9.489 -0.6991  0.1971 -0.1670
   19SAPC   H5R 2460   0.469   3.884   9.499 -0.7089  0.2447 -0.1967
   19SAPC   C26 2461   0.630   3.881   9.362  0.1339  0.8418 -0.0913
   19SAPC   H6R 2462   0.564   3.869   9.275  1.3861  0.4063 -1.0015
   19SAPC   C27 2463   0.776   3.891   9.316  0.1558 -0.0673  0.4726
   19SAPC   H7R 2464   0.806   3.812   9.244 -0.6912 -0.6786  0.7900
   19SAPC   H7S 2465   0.846   3.880   9.401 -3.4926  2.1923  4.0936
   19SAPC   C28 2466   0.788   4.031   9.264  0.5670  0.2899  0.1244
   19SAPC   H8R 2467   0.814   4.106   9.341 -2.1609  0.4834  0.9668
   19SAPC   C29 2468   0.784   4.065   9.133 -0.4000 -0.5237 -0.3074
   19SAPC   H9R 2469   0.787   4.174   9.117 -0.7645 -0.1836  1.6620
   19SAPC  C210 2470   0.753   3.971   9.018 -0.3258  0.3112 -0.5682
   19SAPC  H10R 2471   0.768   3.864   9.045  0.5826  0.9061  1.5057
   19SAPC  H10S 2472   0.820   3.984   8.930  1.0368 -2.6859 -0.1236
   19SAPC  C211 2473   0.610   3.987   8.976  0.6556 -0.1820 -0.9435
   19SAPC  H11R 2474   0.554   4.075   9.010 -1.7824 -1.8776 -0.3011
   19SAPC  C212 2475   0.528   3.894   8.919  0.4514  0.4315 -0.2440
   19SAPC  H12R 2476   0.429   3.919   8.879  1.1575  0.4478 -2.1138
   19SAPC  C213 2477   0.565   3.750   8.880  0.3101  0.5530 -0.4145
   19SAPC  H13R 2478   0.474   3.697   8.915  1.3925  0.0333  1.7694
   19SAPC  H13S 2479   0.638   3.705   8.950 -0.1500 -1.4247 -1.1554
   19SAPC  C214 2480   0.617   3.724   8.742  0.0556  0.4750  0.6052
   19SAPC  H14R 2481   0.715   3.763   8.711  0.3827 -0.3439  0.5963
   19SAPC  C215 2482   0.547   3.685   8.636  0.0223  0.6334  0.2557
   19SAPC  H15R 2483   0.604   3.673   8.542 -1.0245 -3.4915 -0.0674
   19SAPC  C216 2484   0.403   3.657   8.616  0.0594 -0.2669  0.4873
   19SAPC  H16R 2485   0.346   3.746   8.580 -0.8338 -1.2775 -0.7028
   19SAPC  H16S 2486   0.356   3.632   8.713  1.2272  0.1026  1.1607
   19SAPC  C217 2487   0.381   3.549   8.514 -0.3554  0.2549  0.3062
   19SAPC  H17R 2488   0.435   3.458   8.547  0.3250  0.7418  0.5489
   19SAPC  H17S 2489   0.427   3.571   8.415 -0.6112 -1.3705 -0.2088
   19SAPC  C218 2490   0.232   3.524   8.478  0.1870  0.1220 -0.0728
   19SAPC  H18R 2491   0.231   3.462   8.385  0.0413  1.0134 -0.6736
   19SAPC  H18S 2492   0.170   3.615   8.465 -1.8341 -1.0232  1.0848
   19SAPC  C219 2493   0.155   3.442   8.586 -0.2030  0.9484 -0.5813
   19SAPC  H19R 2494   0.179   3.492   8.683 -1.3451 -0.8349  0.6825
   19SAPC  H19S 2495   0.207   3.345   8.601 -1.9581  0.3326  2.6345
   19SAPC  C220 2496   0.005   3.416   8.569  0.1083 -0.0351  0.3248
   19SAPC  H20R 2497  -0.017   3.342   8.489 -1.2062 -1.3363  1.8156
   19SAPC  H20S 2498  -0.037   3.513   8.537  2.8437  1.0158 -0.4150
   19SAPC  H20T 2499  -0.036   3.385   8.668 -0.9964 -4.6816 -1.3474
   19SAPC   C33 2500   0.825   3.482   9.471  0.3972  0.2486  0.7523
   19SAPC   H3X 2501   0.741   3.425   9.517 -0.6796  1.7651  0.7632
   19SAPC   H3Y 2502   0.911   3.413   9.473 -0.0927 -0.5244 -1.6096
   19SAPC   C34 2503   0.785   3.514   9.321 -0.6892  0.8224 -0.0364
   19SAPC   H4X 2504   0.868   3.584   9.296  1.3495 -1.5711 -0.2764
   19SAPC   H4Y 2505   0.687   3.567   9.315 -1.0085  0.3710  1.0197
   19SAPC   C35 2506   0.797   3.397   9.224  0.0303  0.1856  0.2323
   19SAPC   H5X 2507   0.729   3.422   9.140 -0.6514  0.1047  0.7543
   19SAPC   H5Y 2508   0.766   3.301   9.268  2.4511 -0.5527  0.5019
   19SAPC   C36 2509   0.923   3.374   9.162 -0.6375 -0.5552  0.0323
   19SAPC   H6X 2510   0.929   3.269   9.126  1.9932  0.0191 -1.4566
   19SAPC   H6Y 2511   1.000   3.373   9.242 -0.1010  0.3798 -0.4544
   19SAPC   C37 2512   0.964   3.475   9.052  0.0323  0.0831 -0.1839
   19SAPC   H7X 2513   0.965   3.576   9.100  0.7055 -0.2585  0.5519
   19SAPC   H7Y 2514   0.878   3.493   8.984  1.3479  4.2516 -1.0900
   19SAPC   C38 2515   1.095   3.451   8.982 -0.6208 -0.6458  0.0290
   19SAPC   H8X 2516   1.177   3.425   9.053 -0.4495  0.1743  0.1411
   19SAPC   H8Y 2517   1.123   3.550   8.943  0.3673 -0.9883 -0.1620
   19SAPC   C39 2518   1.086   3.347   8.865 -0.1080 -0.7459  0.0769
   19SAPC   H9X 2519   1.017   3.383   8.786  1.3348 -2.8522 -2.2983
   19SAPC   H9Y 2520   1.048   3.253   8.911 -0.7403 -0.2582  0.5804
   19SAPC  C310 2521   1.219   3.329   8.797  0.5810 -0.7322  0.2826
   19SAPC  H10X 2522   1.275   3.273   8.874  2.5878  0.6579 -0.1089
   19SAPC  H10Y 2523   1.272   3.426   8.783 -0.1832 -0.1463  1.3246
   19SAPC  C311 2524   1.218   3.251   8.663  0.4727 -0.2885  0.4903
   19SAPC  H11X 2525   1.188   3.322   8.583 -0.4764 -2.5258 -1.2582
   19SAPC  H11Y 2526   1.147   3.166   8.673  0.8669 -0.6483  0.2761
   19SAPC  C312 2527   1.359   3.189   8.627  0.6504 -0.2826 -0.4538
   19SAPC  H12X 2528   1.441   3.255   8.663  1.1787 -1.0612 -0.2013
   19SAPC  H12Y 2529   1.377   3.178   8.518  1.9775 -3.2331 -0.0134
   19SAPC  C313 2530   1.386   3.055   8.695  0.2943  0.1234 -0.0090
   19SAPC  H13X 2531   1.289   3.004   8.679  0.2337 -0.1202  1.0435
   19SAPC  H13Y 2532   1.408   3.060   8.804  2.0316  2.6986 -0.3771
   19SAPC  C314 2533   1.498   2.966   8.626  0.0838 -0.5114 -0.3832
   19SAPC  H14X 2534   1.596   3.014   8.645  0.5676 -1.2503 -0.9655
   19SAPC  H14Y 2535   1.482   2.973   8.517  1.1254  1.4187 -0.4514
   19SAPC  C315 2536   1.501   2.823   8.677 -0.0522  0.1189  0.1794
   19SAPC  H15X 2537   1.412   2.769   8.639 -0.4403  0.2595  0.8675
   19SAPC  H15Y 2538   1.492   2.819   8.788 -2.3925 -0.4634  0.0330
   19SAPC  C316 2539   1.622   2.747   8.618 -0.4698  0.0954 -0.1633
   19SAPC  H16X 2540   1.715   2.802   8.644 -0.1671  0.6089 -2.1750
   19SAPC  H16Y 2541   1.615   2.756   8.507 -0.6587 -0.7725 -0.2361
   19SAPC  C317 2542   1.622   2.595   8.658  0.0089 -0.3821  0.2420
   19SAPC  H17X 2543   1.526   2.544   8.640  0.0322  0.0265 -1.1143
   19SAPC  H17Y 2544   1.634   2.603   8.769 -1.1069  0.8624  0.2877
   19SAPC  C318 2545   1.740   2.530   8.573  0.0977 -0.6824 -0.7525
   19SAPC  H18X 2546   1.714   2.549   8.467  0.5272  1.9025 -0.4523
   19SAPC  H18Y 2547   1.734   2.421   8.594 -5.1868 -0.3865  0.6955
   19SAPC  H18Z 2548   1.836   2.577   8.604 -0.7266  1.5678 -1.4338
   20SAPC     N 2549   0.666   0.705  11.205  0.5006 -0.0973 -0.0241
   20SAPC   C12 2550   0.767   0.688  11.095 -0.8440 -0.2560  0.2565
   20SAPC  H12A 2551   0.857   0.644  11.136 -0.4636  1.2937  1.1622
   20SAPC  H12B 2552   0.804   0.783  11.061 -0.4192 -0.0240  1.3428
   20SAPC   C13 2553   0.702   0.815  11.298 -0.6298  0.2355  0.8700
   20SAPC  H13A 2554   0.621   0.853  11.359 -0.2186  1.7361  0.5203
   20SAPC  H13B 2555   0.784   0.794  11.367  1.9166  1.0756 -1.6948
   20SAPC  H13C 2556   0.756   0.886  11.237  1.8124 -2.5247 -0.4599
   20SAPC   C14 2557   0.533   0.734  11.152 -0.1352  0.4079 -0.0206
   20SAPC  H14A 2558   0.494   0.652  11.094 -2.2338 -0.0233  1.8515
   20SAPC  H14B 2559   0.457   0.753  11.226 -0.8460  0.4421 -0.7487
   20SAPC  H14C 2560   0.525   0.814  11.080 -0.0200 -1.9859 -2.8927
   20SAPC   C15 2561   0.661   0.579  11.286 -0.1144  0.1883  0.1185
   20SAPC  H15A 2562   0.757   0.572  11.335 -0.0896 -1.4895 -0.1314
   20SAPC  H15B 2563   0.597   0.593  11.372  0.4806 -2.8983  1.1780
   20SAPC  H15C 2564   0.626   0.489  11.237 -2.0522  0.6224  0.6124
   20SAPC   C11 2565   0.716   0.607  10.971  0.0713  0.2551 -0.0474
   20SAPC  H11A 2566   0.806   0.597  10.907  1.2342 -2.8369  1.8594
   20SAPC  H11B 2567   0.649   0.665  10.903  2.3086 -0.8777 -3.4875
   20SAPC     P 2568   0.534   0.427  10.945 -0.0903  0.5777  0.1798
   20SAPC   O13 2569   0.515   0.290  10.998 -0.2043  0.7077 -0.1286
   20SAPC   O14 2570   0.423   0.521  10.963  0.0683 -0.1320 -0.3502
   20SAPC   O12 2571   0.670   0.479  11.004  0.1225  0.1615 -0.4243
   20SAPC   O11 2572   0.562   0.427  10.784  0.0565 -0.2025 -0.3097
   20SAPC    C1 2573   0.574   0.295  10.718  0.1011  0.4747 -0.3829
   20SAPC    HA 2574   0.669   0.250  10.756 -0.1439  0.7998  0.6501
   20SAPC    HB 2575   0.496   0.220  10.741  0.7285 -0.8339 -2.3000
   20SAPC    C2 2576   0.602   0.298  10.563  0.2324  0.1759 -0.2894
   20SAPC    HS 2577   0.705   0.337  10.546  0.3769 -0.2090 -0.2978
   20SAPC   O21 2578   0.500   0.377  10.490  0.2336  0.0756 -0.4438
   20SAPC   C21 2579   0.537   0.461  10.395 -0.3569 -0.5123 -0.4717
   20SAPC   O22 2580   0.653   0.502  10.377  0.1421  0.6466 -0.0793
   20SAPC   C22 2581   0.411   0.517  10.331 -0.2676 -0.0465 -0.0768
   20SAPC   H2R 2582   0.337   0.435  10.342 -1.2058  0.6674 -0.8323
   20SAPC   H2S 2583   0.385   0.599  10.402  0.8848 -0.2499  0.5969
   20SAPC    C3 2584   0.607   0.154  10.511 -0.0179 -0.8495  1.3927
   20SAPC    HX 2585   0.506   0.115  10.535 -0.3070 -1.1627 -0.1864
   20SAPC    HY 2586   0.688   0.091  10.554  2.4836  0.8520 -0.4772
   20SAPC   O31 2587   0.648   0.151  10.371  0.0989 -0.0408  0.2091
   20SAPC   C31 2588   0.552   0.148  10.275  0.2707  0.1268 -0.7145
   20SAPC   O32 2589   0.433   0.155  10.302  0.1943 -0.4726 -0.0482
   20SAPC   C32 2590   0.617   0.130  10.140 -0.9837  0.1553  0.8591
   20SAPC   H2X 2591   0.634   0.021  10.131 -3.4659 -0.2002 -0.6589
   20SAPC   H2Y 2592   0.712   0.188  10.136 -0.1061 -1.2936 -0.1647
   20SAPC   C23 2593   0.428   0.551  10.182 -0.0046  0.1914  0.3527
   20SAPC   H3R 2594   0.508   0.488  10.138  0.2888 -0.7980  2.2203
   20SAPC   H3S 2595   0.450   0.660  10.183  0.7134  0.1268 -1.8332
   20SAPC   C24 2596   0.305   0.537  10.098 -0.1860  0.4223 -0.5608
   20SAPC   H4R 2597   0.273   0.431  10.093  1.3076 -0.2554  2.3430
   20SAPC   H4S 2598   0.339   0.553   9.993 -1.5652 -2.8933 -1.6495
   20SAPC   C25 2599   0.191   0.624  10.136  0.1307 -0.4438  0.5993
   20SAPC   H5R 2600   0.171   0.626  10.244 -0.8839  1.3058  0.4237
   20SAPC   C26 2601   0.117   0.694  10.046  0.3595  0.1493 -0.1702
   20SAPC   H6R 2602   0.036   0.756  10.086  1.5438 -0.2007  3.0465
   20SAPC   C27 2603   0.135   0.696   9.899  0.2999 -0.7362  0.4217
   20SAPC   H7R 2604   0.054   0.646   9.841  0.4882  0.6840 -1.1556
   20SAPC   H7S 2605   0.223   0.642   9.857  0.6523  1.0589 -1.2949
   20SAPC   C28 2606   0.141   0.836   9.843 -0.3432  0.5604 -0.4034
   20SAPC   H8R 2607   0.171   0.913   9.915  0.1575  0.3281 -0.3620
   20SAPC   C29 2608   0.137   0.868   9.711  0.3015 -0.1040  0.3022
   20SAPC   H9R 2609   0.132   0.973   9.681 -0.7326 -0.7248 -1.8460
   20SAPC  C210 2610   0.131   0.769   9.594 -0.4061 -0.1968 -0.4487
   20SAPC  H10R 2611   0.064   0.815   9.519  0.0319  3.7767  1.3481
   20SAPC  H10S 2612   0.080   0.677   9.630  1.4388 -0.4706  1.7515
   20SAPC  C211 2613   0.269   0.737   9.531  0.7191 -0.9366 -0.2323
   20SAPC  H11R 2614   0.347   0.701   9.600  2.5607  1.4719 -0.8916
   20SAPC  C212 2615   0.306   0.740   9.401 -0.2127  0.4484 -0.0406
   20SAPC  H12R 2616   0.409   0.708   9.383  0.1140 -0.0265  2.3387
   20SAPC  C213 2617   0.216   0.780   9.286  0.5806 -0.2416 -0.0198
   20SAPC  H13R 2618   0.256   0.877   9.250 -0.5700  0.3678  0.2889
   20SAPC  H13S 2619   0.110   0.776   9.317  1.6851 -1.5423  4.2385
   20SAPC  C214 2620   0.251   0.679   9.177 -0.2329  0.0533 -1.1380
   20SAPC  H14R 2621   0.173   0.605   9.155 -1.8450  1.5406 -0.6146
   20SAPC  C215 2622   0.359   0.681   9.099  0.0646  0.0633  0.1067
   20SAPC  H15R 2623   0.376   0.593   9.035 -0.8426  0.6660 -0.9902
   20SAPC  C216 2624   0.475   0.777   9.091  0.1037 -0.4325 -0.1038
   20SAPC  H16R 2625   0.457   0.862   9.160 -0.1195 -0.9984  0.5530
   20SAPC  H16S 2626   0.488   0.812   8.987  0.6559 -1.0519 -0.2496
   20SAPC  C217 2627   0.611   0.721   9.142 -0.7044 -0.0808 -0.2020
   20SAPC  H17R 2628   0.621   0.692   9.249 -2.9348 -0.1804  0.0152
   20SAPC  H17S 2629   0.679   0.807   9.126 -1.1370  0.1691 -0.7177
   20SAPC  C218 2630   0.676   0.610   9.053  0.3140  0.3227 -0.7672
   20SAPC  H18R 2631   0.613   0.521   9.074 -1.2743  1.5466 -0.1796
   20SAPC  H18S 2632   0.779   0.592   9.090  0.4980 -0.6404 -1.6937
   20SAPC  C219 2633   0.686   0.634   8.904  0.8014  0.3604 -0.1462
   20SAPC  H19R 2634   0.677   0.744   8.892 -3.4446  0.3895  1.6236
   20SAPC  H19S 2635   0.591   0.590   8.867  1.8272 -0.0052 -2.5356
   20SAPC  C220 2636   0.806   0.574   8.841 -0.3109  0.5491 -0.4281
   20SAPC  H20R 2637   0.897   0.637   8.850 -0.1057  0.2082 -0.0976
   20SAPC  H20S 2638   0.795   0.550   8.733 -0.7522 -1.6357  0.0573
   20SAPC  H20T 2639   0.827   0.472   8.881  0.6887  1.0764  0.4435
   20SAPC   C33 2640   0.528   0.168  10.021  0.8372 -0.6441 -0.4691
   20SAPC   H3X 2641   0.509   0.277  10.035  1.5564 -0.4922 -0.6505
   20SAPC   H3Y 2642   0.428   0.124  10.043  0.8412  0.3492  1.8373
   20SAPC   C34 2643   0.569   0.135   9.884 -0.4282  0.6341  0.2893
   20SAPC   H4X 2644   0.618   0.035   9.876  0.5862  0.9053  2.4941
   20SAPC   H4Y 2645   0.646   0.209   9.853  1.1485 -1.3043 -0.6668
   20SAPC   C35 2646   0.461   0.148   9.769 -0.0793 -1.3553  0.4372
   20SAPC   H5X 2647   0.430   0.255   9.767 -0.6140 -1.5142 -0.1377
   20SAPC   H5Y 2648   0.378   0.077   9.788  0.5018 -2.3758 -0.6776
   20SAPC   C36 2649   0.526   0.131   9.633 -0.0362 -0.3491  0.0620
   20SAPC   H6X 2650   0.547   0.023   9.625  1.6884  0.0132 -0.7170
   20SAPC   H6Y 2651   0.628   0.174   9.628  0.9385 -2.6232 -0.8875
   20SAPC   C37 2652   0.446   0.179   9.512 -0.1670 -0.2081 -0.7532
   20SAPC   H7X 2653   0.448   0.290   9.519 -1.0099 -0.2022 -0.4369
   20SAPC   H7Y 2654   0.345   0.136   9.527  0.6624 -1.5083  1.6267
   20SAPC   C38 2655   0.514   0.140   9.383 -0.3486 -0.6035  1.1788
   20SAPC   H8X 2656   0.546   0.034   9.390  0.7601 -0.4631 -1.0582
   20SAPC   H8Y 2657   0.616   0.186   9.383  0.5214 -2.4236  0.4317
   20SAPC   C39 2658   0.433   0.147   9.254 -0.3227 -0.4232 -0.1499
   20SAPC   H9X 2659   0.331   0.119   9.289 -1.3882  3.4752  0.2447
   20SAPC   H9Y 2660   0.472   0.066   9.188 -0.3032 -0.9602  0.5039
   20SAPC  C310 2661   0.433   0.280   9.178 -0.4708  0.7303  0.0111
   20SAPC  H10X 2662   0.535   0.304   9.141 -0.2084  0.2171  0.3855
   20SAPC  H10Y 2663   0.389   0.352   9.250 -3.9893 -1.2684  0.1004
   20SAPC  C311 2664   0.327   0.278   9.065 -0.1348  0.4535 -0.2441
   20SAPC  H11X 2665   0.307   0.381   9.028  1.0123 -0.2984 -3.2666
   20SAPC  H11Y 2666   0.228   0.240   9.097  0.5946 -1.2319  0.1208
   20SAPC  C312 2667   0.372   0.193   8.943  0.0589 -0.6360  0.6451
   20SAPC  H12X 2668   0.285   0.163   8.881  0.3638 -1.2428  0.5031
   20SAPC  H12Y 2669   0.411   0.101   8.992  0.6261  0.0176  1.4624
   20SAPC  C313 2670   0.489   0.245   8.856 -0.0320 -0.2287 -0.9049
   20SAPC  H13X 2671   0.578   0.274   8.915 -0.8692  0.5075  0.0282
   20SAPC  H13Y 2672   0.464   0.345   8.815  2.6029  1.7447  1.8644
   20SAPC  C314 2673   0.540   0.142   8.753  0.0472 -0.3930  0.0220
   20SAPC  H14X 2674   0.567   0.045   8.799  0.7509 -1.1867 -1.9757
   20SAPC  H14Y 2675   0.635   0.184   8.714 -0.1708  0.7200  0.6276
   20SAPC  C315 2676   0.443   0.107   8.651  0.3482  0.1375  0.5880
   20SAPC  H15X 2677   0.412   0.202   8.603 -0.7523 -0.1868  0.6481
   20SAPC  H15Y 2678   0.350   0.067   8.694  0.9662 -2.9416 -0.6643
   20SAPC  C316 2679   0.503  -0.000   8.553 -0.1659 -0.3725 -0.6420
   20SAPC  H16X 2680   0.512  -0.098   8.605  0.9217  1.4711  2.9553
   20SAPC  H16Y 2681   0.608   0.031   8.536  0.3630 -2.1375 -0.8075
   20SAPC  C317 2682   0.433  -0.009   8.417  0.6532  0.4952  0.7244
   20SAPC  H17X 2683   0.513  -0.054   8.354  1.4552  1.3796  1.0974
   20SAPC  H17Y 2684   0.396   0.088   8.378 -3.0551 -0.2443  1.9962
   20SAPC  C318 2685   0.307  -0.102   8.412  0.1432 -0.3992 -0.3008
   20SAPC  H18X 2686   0.237  -0.068   8.333  2.3968  0.8804 -1.8696
   20SAPC  H18Y 2687   0.251  -0.089   8.507 -1.2378  0.8446 -1.2480
   20SAPC  H18Z 2688   0.342  -0.206   8.395  0.4938 -0.9470  2.9972
   21SAPC     N 2689   0.937   6.073  11.012  0.1440  0.5524  0.2872
   21SAPC   C12 2690   0.790   6.051  10.977  0.7147  0.7155 -0.7693
   21SAPC  H12A 2691   0.728   6.114  11.040  1.3267  0.6713 -0.1143
   21SAPC  H12B 2692   0.764   5.955  11.019  0.4310  0.4352 -1.5666
   21SAPC   C13 2693   0.964   6.066  11.162  1.0724 -0.4895 -1.1136
   21SAPC  H13A 2694   0.912   6.143  11.217  0.6593 -1.8404  0.4491
   21SAPC  H13B 2695   0.940   5.968  11.199 -1.6213  0.7151  0.6482
   21SAPC  H13C 2696   1.068   6.071  11.190  0.5556 -0.0659  0.9180
   21SAPC   C14 2697   1.032   5.970  10.955  0.3391 -0.1674  0.0942
   21SAPC  H14A 2698   1.004   5.874  10.995 -3.3542  1.1581  1.0824
   21SAPC  H14B 2699   1.032   5.969  10.847 -0.9065  2.1654  0.0066
   21SAPC  H14C 2700   1.136   5.978  10.984 -0.0554 -1.5249  2.1021
   21SAPC   C15 2701   0.985   6.209  10.976 -0.1403 -0.8515  0.2651
   21SAPC  H15A 2702   1.088   6.219  11.007  0.4668 -0.8574 -1.6323
   21SAPC  H15B 2703   0.988   6.224  10.869  3.1764 -2.8443 -0.0609
   21SAPC  H15C 2704   0.947   6.289  11.038  1.3322 -1.1576  1.6229
   21SAPC   C11 2705   0.745   6.049  10.828  0.0380 -1.3699  0.5879
   21SAPC  H11A 2706   0.637   6.028  10.809 -0.0935  0.7425 -1.5229
   21SAPC  H11B 2707   0.806   5.972  10.777  0.6640 -0.3483 -0.2517
   21SAPC     P 2708   0.700   6.298  10.776 -0.1697 -0.1493 -0.0420
   21SAPC   O13 2709   0.683   6.327  10.922  0.3396  0.1093  0.1965
   21SAPC   O14 2710   0.776   6.402  10.703  0.8327  0.0391  0.3037
   21SAPC   O12 2711   0.787   6.165  10.758  0.1774 -1.4781  0.0081
   21SAPC   O11 2712   0.564   6.266  10.703 -0.0759  0.1392  0.0410
   21SAPC    C1 2713   0.553   6.210  10.578 -0.2348  0.4993  0.4758
   21SAPC    HA 2714   0.649   6.204  10.522 -0.9912 -3.0098 -0.7311
   21SAPC    HB 2715   0.514   6.106  10.586  0.1279  0.2469 -0.8390
   21SAPC    C2 2716   0.459   6.292  10.485 -1.1852 -0.5277 -0.7838
   21SAPC    HS 2717   0.355   6.304  10.521 -0.4371  0.1692  1.2659
   21SAPC   O21 2718   0.470   6.230  10.353 -0.4559  0.4333  0.4433
   21SAPC   C21 2719   0.364   6.246  10.276  0.5492 -0.1612  0.5948
   21SAPC   O22 2720   0.267   6.312  10.304 -0.3738  0.9122  0.1199
   21SAPC   C22 2721   0.374   6.174  10.142  1.0401 -0.0073 -0.2025
   21SAPC   H2R 2722   0.298   6.223  10.078  0.2135  0.3510  1.0321
   21SAPC   H2S 2723   0.474   6.206  10.105 -0.8784  3.2617 -3.2313
   21SAPC    C3 2724   0.514   6.435  10.485 -0.6230  0.2482 -0.1017
   21SAPC    HX 2725   0.619   6.425  10.449 -0.3482 -0.8195  0.9375
   21SAPC    HY 2726   0.526   6.480  10.586  2.3813  0.9691 -0.6689
   21SAPC   O31 2727   0.440   6.525  10.401  0.0875 -0.3115  0.0693
   21SAPC   C31 2728   0.343   6.595  10.467 -0.0431  0.2545 -0.3997
   21SAPC   O32 2729   0.310   6.568  10.582 -0.1814 -0.5534  0.0142
   21SAPC   C32 2730   0.266   6.694  10.374  0.1937  1.1930  0.1219
   21SAPC   H2X 2731   0.262   6.792  10.427 -3.0850 -0.5223  3.5904
   21SAPC   H2Y 2732   0.161   6.656  10.374  0.1231  1.0873  3.2414
   21SAPC   C23 2733   0.353   6.020  10.140 -0.7000 -0.3684 -0.1434
   21SAPC   H3R 2734   0.257   5.995  10.188 -1.2733 -0.6047 -1.3672
   21SAPC   H3S 2735   0.436   5.962  10.186 -1.4570 -3.6072 -2.4883
   21SAPC   C24 2736   0.347   5.961   9.999 -0.0397  0.0061  0.4647
   21SAPC   H4R 2737   0.365   5.852  10.005 -2.8846 -0.7519 -2.2387
   21SAPC   H4S 2738   0.441   6.001   9.954  0.5075  0.1114  1.6782
   21SAPC   C25 2739   0.221   5.989   9.922  0.4699 -0.0048 -0.0898
   21SAPC   H5R 2740   0.130   5.952   9.971 -0.5511  2.6575  0.2017
   21SAPC   C26 2741   0.203   6.071   9.817 -0.3083 -0.2535  0.0230
   21SAPC   H6R 2742   0.098   6.071   9.785 -0.5873 -0.0240  0.9358
   21SAPC   C27 2743   0.306   6.163   9.746  0.0966 -0.3658 -0.0636
   21SAPC   H7R 2744   0.369   6.208   9.826 -2.1702  1.4119  0.8302
   21SAPC   H7S 2745   0.254   6.251   9.703  2.0945  2.0384  2.0798
   21SAPC   C28 2746   0.398   6.085   9.651 -0.6396 -0.0241 -0.3729
   21SAPC   H8R 2747   0.475   6.030   9.708 -0.3667  2.2427  1.5998
   21SAPC   C29 2748   0.379   6.058   9.522  0.8412 -0.4066  0.8145
   21SAPC   H9R 2749   0.447   5.996   9.462 -0.8873  0.2693 -2.0474
   21SAPC  C210 2750   0.273   6.131   9.438  0.1807 -0.8682 -0.7935
   21SAPC  H10R 2751   0.297   6.138   9.329 -1.0805  3.0777 -0.9754
   21SAPC  H10S 2752   0.270   6.237   9.470  1.3133 -1.6589  2.2801
   21SAPC  C211 2753   0.137   6.063   9.441 -0.4869  0.0303 -0.5367
   21SAPC  H11R 2754   0.103   6.043   9.543  1.8753  0.6520  0.4236
   21SAPC  C212 2755   0.061   6.007   9.344 -0.0192  0.0991  0.1042
   21SAPC  H12R 2756  -0.042   5.977   9.370 -0.3294  0.4496 -0.6717
   21SAPC  C213 2757   0.112   6.012   9.204  0.2636  0.1270  0.5152
   21SAPC  H13R 2758   0.221   5.995   9.192  0.9067  2.5674  2.1744
   21SAPC  H13S 2759   0.114   6.120   9.177 -0.2844 -0.0067 -0.0830
   21SAPC  C214 2760   0.025   5.923   9.114  0.8510  0.1717 -0.4842
   21SAPC  H14R 2761  -0.069   5.886   9.158  0.1346  0.0328 -2.0602
   21SAPC  C215 2762   0.058   5.886   8.988  0.3879  0.6547 -0.5560
   21SAPC  H15R 2763  -0.012   5.820   8.935 -2.8035  0.6917  3.1415
   21SAPC  C216 2764   0.189   5.928   8.919  0.2558 -0.3072 -0.2968
   21SAPC  H16R 2765   0.225   6.020   8.969  1.0103 -0.5697 -0.3531
   21SAPC  H16S 2766   0.177   5.962   8.814  1.7875 -2.2050 -1.1514
   21SAPC  C217 2767   0.292   5.821   8.919 -0.2930  0.4016  0.2410
   21SAPC  H17R 2768   0.258   5.728   8.868 -1.4286  1.0878 -0.2724
   21SAPC  H17S 2769   0.330   5.796   9.021  2.4222  3.0750  0.0477
   21SAPC  C218 2770   0.421   5.869   8.838  0.0055 -0.7353 -0.2503
   21SAPC  H18R 2771   0.394   5.893   8.733  0.3623 -2.0005 -0.6411
   21SAPC  H18S 2772   0.498   5.790   8.824 -0.0905 -0.6069 -1.5849
   21SAPC  C219 2773   0.489   5.998   8.899  0.5635  0.7197 -0.0614
   21SAPC  H19R 2774   0.429   6.091   8.897  0.9584  0.9969  0.7688
   21SAPC  H19S 2775   0.577   6.021   8.835  0.6973 -0.6947 -0.4109
   21SAPC  C220 2776   0.532   5.971   9.045  0.0137  0.2370  0.6209
   21SAPC  H20R 2777   0.601   6.051   9.078 -0.7806  1.0865  0.2529
   21SAPC  H20S 2778   0.580   5.871   9.040 -3.2297 -1.3992 -2.0938
   21SAPC  H20T 2779   0.454   5.969   9.125 -0.5495  0.5880  0.0921
   21SAPC   C33 2780   0.329   6.714  10.236 -0.1331 -0.1987 -0.1473
   21SAPC   H3X 2781   0.434   6.745  10.259 -1.1439  1.1875  3.3123
   21SAPC   H3Y 2782   0.279   6.791  10.175 -0.2608 -0.4643 -0.3774
   21SAPC   C34 2783   0.337   6.595  10.141  0.4287  0.7743  0.3120
   21SAPC   H4X 2784   0.234   6.554  10.133  0.6138  0.3940 -0.1569
   21SAPC   H4Y 2785   0.405   6.515  10.177 -0.6282 -1.0261 -1.4930
   21SAPC   C35 2786   0.390   6.640  10.007 -0.7006 -0.6373 -0.4771
   21SAPC   H5X 2787   0.499   6.662  10.014 -0.5103 -1.6804  0.0139
   21SAPC   H5Y 2788   0.338   6.735   9.983 -1.5216 -0.3353  2.1212
   21SAPC   C36 2789   0.365   6.543   9.888  0.1153 -1.2225  0.2303
   21SAPC   H6X 2790   0.260   6.508   9.899 -0.4467 -0.1735 -1.3944
   21SAPC   H6Y 2791   0.435   6.457   9.894  1.6974 -0.1080 -1.1827
   21SAPC   C37 2792   0.372   6.626   9.761 -0.1863 -0.9516 -0.5504
   21SAPC   H7X 2793   0.470   6.677   9.759 -1.2556  1.2492  0.1493
   21SAPC   H7Y 2794   0.299   6.709   9.767  0.2203 -0.6290  0.0104
   21SAPC   C38 2795   0.347   6.538   9.643 -0.0625 -0.1136  1.2705
   21SAPC   H8X 2796   0.255   6.479   9.664 -0.8292  1.0728  1.3683
   21SAPC   H8Y 2797   0.431   6.469   9.621  0.5637  1.2214 -0.7506
   21SAPC   C39 2798   0.304   6.621   9.516 -0.1480  0.9739  0.5138
   21SAPC   H9X 2799   0.384   6.698   9.504  1.3986 -0.6690 -0.1224
   21SAPC   H9Y 2800   0.201   6.662   9.517 -1.1761 -1.3735 -1.3763
   21SAPC  C310 2801   0.310   6.550   9.385 -0.7063 -0.1551 -0.6131
   21SAPC  H10X 2802   0.255   6.454   9.392  0.2629 -0.8158 -1.6709
   21SAPC  H10Y 2803   0.417   6.520   9.372 -0.3691  0.8622 -0.2976
   21SAPC  C311 2804   0.261   6.643   9.272  0.7122 -0.3683 -0.0546
   21SAPC  H11X 2805   0.314   6.740   9.259 -0.4218  0.1427 -1.0730
   21SAPC  H11Y 2806   0.157   6.672   9.299  0.9285  0.3730  0.0065
   21SAPC  C312 2807   0.251   6.600   9.126  0.2100 -0.0810 -0.1486
   21SAPC  H12X 2808   0.190   6.508   9.123 -0.0146  0.0150  1.1549
   21SAPC  H12Y 2809   0.347   6.584   9.071  0.2375  1.8581 -0.7574
   21SAPC  C313 2810   0.166   6.695   9.049 -0.3950 -0.2663  0.0208
   21SAPC  H13X 2811   0.181   6.801   9.078 -0.3623 -0.1596 -0.3893
   21SAPC  H13Y 2812   0.064   6.680   9.091 -0.5103  0.2970 -0.0395
   21SAPC  C314 2813   0.161   6.688   8.897 -0.1060  1.2663  0.3377
   21SAPC  H14X 2814   0.263   6.703   8.855 -0.3138  1.2868 -0.1636
   21SAPC  H14Y 2815   0.103   6.775   8.858  2.0749  1.7713 -2.1061
   21SAPC  C315 2816   0.085   6.562   8.842 -0.5919 -0.4651  0.4097
   21SAPC  H15X 2817  -0.019   6.553   8.880 -1.0482  1.6090 -0.2415
   21SAPC  H15Y 2818   0.137   6.474   8.886  1.3165 -0.4929 -1.7216
   21SAPC  C316 2819   0.070   6.549   8.689 -0.4499  0.8199  0.4602
   21SAPC  H16X 2820   0.164   6.590   8.647  0.5830 -0.8326  1.0675
   21SAPC  H16Y 2821  -0.016   6.607   8.649  0.7262  0.6296 -2.5844
   21SAPC  C317 2822   0.065   6.402   8.638 -0.1942  0.0329 -0.3982
   21SAPC  H17X 2823  -0.025   6.357   8.686 -1.3244 -0.2967 -2.7136
   21SAPC  H17Y 2824   0.153   6.350   8.681  0.1538  0.0888 -1.0395
   21SAPC  C318 2825   0.074   6.403   8.484  0.0626  0.2407 -0.3644
   21SAPC  H18X 2826   0.062   6.298   8.449  0.8414 -0.2746  0.8349
   21SAPC  H18Y 2827   0.176   6.435   8.453  0.8650  0.1143  1.9425
   21SAPC  H18Z 2828  -0.003   6.455   8.424  0.9481 -0.2831 -2.0222
   22SAPC     N 2829   0.284   4.733  10.626  0.2550 -0.0148 -0.3839
   22SAPC   C12 2830   0.390   4.635  10.573  0.0040 -0.0461  0.7008
   22SAPC  H12A 2831   0.339   4.569  10.505  0.9288 -1.7171  1.5841
   22SAPC  H12B 2832   0.425   4.571  10.652  1.3967 -1.4953 -1.0202
   22SAPC   C13 2833   0.346   4.812  10.731 -0.7372 -0.1979 -0.2307
   22SAPC  H13A 2834   0.429   4.873  10.701  0.3660 -0.3856  2.2077
   22SAPC  H13B 2835   0.276   4.887  10.766 -0.9684  0.3848 -1.8794
   22SAPC  H13C 2836   0.360   4.750  10.818  0.7369  0.3462 -0.0476
   22SAPC   C14 2837   0.229   4.823  10.520 -0.3036  0.2962 -0.2940
   22SAPC  H14A 2838   0.286   4.908  10.484  0.9924 -0.0724  0.7729
   22SAPC  H14B 2839   0.188   4.758  10.445 -2.1647  0.0711  0.8544
   22SAPC  H14C 2840   0.143   4.870  10.565  0.3905  2.1945 -0.8391
   22SAPC   C15 2841   0.164   4.665  10.689 -0.4860 -1.2706  0.1316
   22SAPC  H15A 2842   0.085   4.653  10.616  0.2105  0.9172 -1.0377
   22SAPC  H15B 2843   0.176   4.564  10.727  0.9432 -1.2503 -0.2388
   22SAPC  H15C 2844   0.128   4.727  10.770  1.3891 -0.7165  0.5856
   22SAPC   C11 2845   0.508   4.708  10.513 -0.4479  0.1302  0.2923
   22SAPC  H11A 2846   0.538   4.785  10.588 -3.6734  0.9410  0.8861
   22SAPC  H11B 2847   0.481   4.765  10.422  2.4913 -1.3094 -1.6428
   22SAPC     P 2848   0.723   4.574  10.597  0.0278 -0.0563 -0.6082
   22SAPC   O13 2849   0.710   4.660  10.721  0.6329  0.1770  0.0831
   22SAPC   O14 2850   0.719   4.429  10.631 -0.1279 -0.2470  0.3360
   22SAPC   O12 2851   0.609   4.605  10.487  0.3200  0.6027 -0.0254
   22SAPC   O11 2852   0.865   4.598  10.534 -0.3169  0.0581 -0.2411
   22SAPC    C1 2853   0.911   4.732  10.498 -0.2942 -0.6026  0.5187
   22SAPC    HA 2854   0.834   4.807  10.527  1.8000  0.7959  2.9061
   22SAPC    HB 2855   1.001   4.760  10.557 -1.7481  0.6003  2.2687
   22SAPC    C2 2856   0.939   4.737  10.340  0.5361  0.4979 -0.3761
   22SAPC    HS 2857   1.003   4.647  10.324  1.4491  0.8404  1.1051
   22SAPC   O21 2858   0.998   4.865  10.311 -0.7458  0.0799 -0.8490
   22SAPC   C21 2859   1.081   4.864  10.208  0.5233  0.8644  0.6030
   22SAPC   O22 2860   1.128   4.765  10.151 -0.0216 -0.3788  0.4371
   22SAPC   C22 2861   1.104   5.005  10.153  0.2219 -0.4182 -0.7225
   22SAPC   H2R 2862   1.005   5.055  10.161  1.3563  1.9336 -0.4372
   22SAPC   H2S 2863   1.178   5.052  10.222 -0.7696 -0.2424  0.2418
   22SAPC    C3 2864   0.807   4.729  10.251  0.5763  0.0850 -0.2118
   22SAPC    HX 2865   0.737   4.807  10.288  0.1627 -0.7814  0.8837
   22SAPC    HY 2866   0.755   4.634  10.276 -0.0681  0.1557 -1.2413
   22SAPC   O31 2867   0.822   4.759  10.107 -0.0110 -0.5067 -0.0540
   22SAPC   C31 2868   0.823   4.650  10.034  0.4442  0.1376  0.9554
   22SAPC   O32 2869   0.821   4.535  10.080 -0.0342 -0.0070  0.4306
   22SAPC   C32 2870   0.812   4.677   9.888 -0.1677  0.0362  0.4920
   22SAPC   H2X 2871   0.736   4.756   9.871 -1.0834 -0.7773  0.7345
   22SAPC   H2Y 2872   0.773   4.587   9.837 -1.3156  0.9186 -0.2561
   22SAPC   C23 2873   1.171   5.011  10.019 -0.0001  0.5754 -0.4021
   22SAPC   H3R 2874   1.131   4.942   9.941 -1.4826  1.3456 -0.3698
   22SAPC   H3S 2875   1.280   4.995  10.033 -0.0873  1.1738  1.1733
   22SAPC   C24 2876   1.158   5.153   9.967 -0.2292  0.1729  0.7293
   22SAPC   H4R 2877   1.053   5.179   9.992  0.1408  0.9460  1.5365
   22SAPC   H4S 2878   1.167   5.156   9.857  1.0969 -2.7809  0.6526
   22SAPC   C25 2879   1.245   5.260  10.027  0.0122  0.7396 -0.1479
   22SAPC   H5R 2880   1.282   5.237  10.128 -0.4485 -1.9116 -0.5013
   22SAPC   C26 2881   1.264   5.377   9.967 -0.5754 -0.6560  0.8055
   22SAPC   H6R 2882   1.323   5.455  10.019 -1.5207  0.3361  0.4324
   22SAPC   C27 2883   1.200   5.417   9.836 -0.7010  0.7866  0.0241
   22SAPC   H7R 2884   1.242   5.344   9.763 -0.8183 -1.0636  1.7187
   22SAPC   H7S 2885   1.254   5.501   9.788  1.7050 -1.4430 -1.4841
   22SAPC   C28 2886   1.052   5.424   9.823 -0.4251 -0.0177 -0.4295
   22SAPC   H8R 2887   0.987   5.440   9.911 -1.7752 -1.6384 -1.0847
   22SAPC   C29 2888   0.981   5.395   9.707 -0.4998  0.2603 -0.5373
   22SAPC   H9R 2889   0.873   5.417   9.710 -0.7091 -0.8781  1.9105
   22SAPC  C210 2890   1.025   5.336   9.577  0.4565  0.0790  0.5401
   22SAPC  H10R 2891   1.102   5.399   9.528  2.2135 -2.6958 -0.5238
   22SAPC  H10S 2892   0.939   5.343   9.507  1.1255 -1.6793 -0.5194
   22SAPC  C211 2893   1.077   5.194   9.580 -0.0005 -0.9562  0.2535
   22SAPC  H11R 2894   1.101   5.155   9.680  2.0411 -0.9473 -0.1962
   22SAPC  C212 2895   1.074   5.110   9.476 -0.1480  0.5064 -0.2952
   22SAPC  H12R 2896   1.127   5.014   9.487 -1.4568 -0.0072  1.9969
   22SAPC  C213 2897   1.032   5.138   9.333 -0.4176 -0.0213  0.0013
   22SAPC  H13R 2898   1.014   5.246   9.315  0.0404  0.0943  0.2011
   22SAPC  H13S 2899   0.932   5.095   9.314  0.1851 -1.3094 -0.4391
   22SAPC  C214 2900   1.145   5.078   9.236  0.1479  0.8945  0.1025
   22SAPC  H14R 2901   1.228   5.145   9.209  1.5375 -1.8266 -3.1595
   22SAPC  C215 2902   1.154   4.951   9.186 -0.5546 -0.4250 -0.3495
   22SAPC  H15R 2903   1.246   4.917   9.138 -2.3911 -2.4586 -2.6965
   22SAPC  C216 2904   1.055   4.842   9.209  0.2051 -0.4770  0.0232
   22SAPC  H16R 2905   0.986   4.861   9.294 -0.4236 -3.0924  0.1762
   22SAPC  H16S 2906   1.110   4.749   9.234 -0.3422 -1.6508 -2.7672
   22SAPC  C217 2907   0.982   4.810   9.073  0.0139  0.2030 -0.8382
   22SAPC  H17R 2908   0.918   4.720   9.084  0.8062 -0.1317  1.5914
   22SAPC  H17S 2909   1.057   4.789   8.993  1.1322  3.5721 -0.8362
   22SAPC  C218 2910   0.897   4.927   9.021 -0.5798  0.6211  0.5137
   22SAPC  H18R 2911   0.947   5.026   9.015 -0.0349  0.3934  1.1763
   22SAPC  H18S 2912   0.820   4.954   9.096 -0.1261  1.3160  0.7401
   22SAPC  C219 2913   0.818   4.900   8.885 -0.3405  0.1185 -0.9241
   22SAPC  H19R 2914   0.768   4.997   8.864 -1.0813 -0.4270 -1.7352
   22SAPC  H19S 2915   0.743   4.819   8.892  0.8323 -0.9342 -0.1097
   22SAPC  C220 2916   0.896   4.867   8.764 -1.1191 -0.0457  0.3856
   22SAPC  H20R 2917   0.964   4.951   8.739 -1.4168 -0.0528 -0.4634
   22SAPC  H20S 2918   0.827   4.856   8.678 -2.0534 -3.4108  1.4137
   22SAPC  H20T 2919   0.953   4.772   8.779  0.5610  1.0649  1.3988
   22SAPC   C33 2920   0.949   4.709   9.817  0.7731  0.4035  0.0169
   22SAPC   H3X 2921   1.045   4.686   9.869  0.6363 -0.7012 -0.1962
   22SAPC   H3Y 2922   0.952   4.820   9.823 -0.7266  0.4522  5.8792
   22SAPC   C34 2923   0.950   4.651   9.683 -1.1174 -0.9545  0.7477
   22SAPC   H4X 2924   0.849   4.659   9.637 -0.8624  0.5402  0.3736
   22SAPC   H4Y 2925   0.983   4.546   9.668  2.4173  0.0058  0.7698
   22SAPC   C35 2926   1.053   4.723   9.591 -0.0982  0.4676  0.0417
   22SAPC   H5X 2927   1.020   4.829   9.590  1.5585  1.0440 -2.4378
   22SAPC   H5Y 2928   1.047   4.696   9.484 -1.3339  0.6962  0.0403
   22SAPC   C36 2929   1.196   4.708   9.632  0.0958  0.0290  0.1657
   22SAPC   H6X 2930   1.246   4.631   9.571 -1.0930 -1.2573  0.7682
   22SAPC   H6Y 2931   1.216   4.667   9.734 -1.3865  0.1506  0.5224
   22SAPC   C37 2932   1.267   4.847   9.622  0.4136 -0.5333  0.3140
   22SAPC   H7X 2933   1.203   4.923   9.672  1.7588  1.2534 -0.5546
   22SAPC   H7Y 2934   1.269   4.862   9.512 -2.7921 -0.4974  0.1613
   22SAPC   C38 2935   1.405   4.858   9.689 -0.1301 -0.2365  0.8558
   22SAPC   H8X 2936   1.401   4.811   9.790  2.2629  1.4119  1.8124
   22SAPC   H8Y 2937   1.436   4.963   9.705 -0.5756 -0.2390  1.8116
   22SAPC   C39 2938   1.525   4.810   9.609  0.4905 -0.1364 -0.6801
   22SAPC   H9X 2939   1.510   4.713   9.556 -0.5631  0.7095 -2.0095
   22SAPC   H9Y 2940   1.621   4.822   9.663 -0.7780  1.7991  1.2693
   22SAPC  C310 2941   1.538   4.902   9.481  0.5732  0.5619 -0.6610
   22SAPC  H10X 2942   1.528   5.006   9.518  2.1214  1.1153 -1.7146
   22SAPC  H10Y 2943   1.456   4.868   9.414 -0.5405 -0.5830  1.1907
   22SAPC  C311 2944   1.672   4.893   9.401  0.1010  0.2288  0.4581
   22SAPC  H11X 2945   1.673   4.793   9.353  0.2259  1.6247 -2.7233
   22SAPC  H11Y 2946   1.760   4.900   9.468  0.6578 -2.6357  0.1436
   22SAPC  C312 2947   1.681   5.003   9.290  0.2144 -0.2046 -0.4551
   22SAPC  H12X 2948   1.784   4.993   9.248  0.4828  0.4342  0.0390
   22SAPC  H12Y 2949   1.693   5.103   9.336  1.9390 -1.0447  1.0568
   22SAPC  C313 2950   1.564   5.006   9.194  0.6194 -0.6104  0.3260
   22SAPC  H13X 2951   1.476   5.054   9.243 -0.3434 -0.8901 -1.0589
   22SAPC  H13Y 2952   1.530   4.906   9.160  0.3102 -0.5368  0.4086
   22SAPC  C314 2953   1.599   5.084   9.067  0.3405  0.7666  0.0959
   22SAPC  H14X 2954   1.687   5.036   9.020 -0.1368  0.3763 -0.4164
   22SAPC  H14Y 2955   1.625   5.188   9.096  0.1533  0.8904 -0.1771
   22SAPC  C315 2956   1.476   5.076   8.975 -0.0809  0.2005  0.1441
   22SAPC  H15X 2957   1.503   5.154   8.901  0.5840 -0.2054 -0.0418
   22SAPC  H15Y 2958   1.389   5.119   9.030 -0.0144  2.9829 -1.7272
   22SAPC  C316 2959   1.448   4.947   8.901  0.6944 -1.3641  0.6750
   22SAPC  H16X 2960   1.460   4.855   8.962  1.2168 -0.0867  2.6081
   22SAPC  H16Y 2961   1.510   4.937   8.809  0.0590  2.7048 -0.3884
   22SAPC  C317 2962   1.307   4.945   8.838 -0.4216 -0.0801  0.3550
   22SAPC  H17X 2963   1.298   5.029   8.766  3.1375 -0.8083 -1.1548
   22SAPC  H17Y 2964   1.231   4.960   8.917 -0.0539 -1.3930  0.9869
   22SAPC  C318 2965   1.284   4.811   8.775  0.3092  0.3644 -0.2147
   22SAPC  H18X 2966   1.309   4.729   8.845 -0.7049  0.1286 -0.1106
   22SAPC  H18Y 2967   1.345   4.796   8.684  0.5674 -1.1192  0.1795
   22SAPC  H18Z 2968   1.179   4.799   8.739  0.8254 -0.6874 -1.4210
   23SAPC     N 2969   2.747   5.240  10.939  0.1226  0.3687  0.4910
   23SAPC   C12 2970   2.808   5.211  10.804 -0.6950  0.0356 -1.1192
   23SAPC  H12A 2971   2.860   5.117  10.815 -1.1809 -0.0821  0.4498
   23SAPC  H12B 2972   2.875   5.294  10.787 -0.0637 -0.8687 -3.5128
   23SAPC   C13 2973   2.671   5.121  10.989 -1.2856 -0.2289 -0.1321
   23SAPC  H13A 2974   2.571   5.106  10.951 -1.2385 -0.2483 -0.2479
   23SAPC  H13B 2975   2.727   5.029  10.976 -0.5452 -0.2930  2.7842
   23SAPC  H13C 2976   2.661   5.125  11.097  2.0352 -0.1051  0.2698
   23SAPC   C14 2977   2.861   5.261  11.033 -0.0356  0.6287  0.1227
   23SAPC  H14A 2978   2.894   5.161  11.059  1.3925  0.7737 -0.9932
   23SAPC  H14B 2979   2.946   5.306  10.983 -0.5125  0.9039 -0.4609
   23SAPC  H14C 2980   2.831   5.320  11.118 -1.3693  0.5060 -0.2421
   23SAPC   C15 2981   2.657   5.355  10.931 -0.2962  0.2266  0.6740
   23SAPC  H15A 2982   2.717   5.443  10.917  2.0727 -1.2388  1.0236
   23SAPC  H15B 2983   2.588   5.341  10.849 -0.4055  0.6613  0.6892
   23SAPC  H15C 2984   2.591   5.366  11.016 -0.7547  1.4955  0.1690
   23SAPC   C11 2985   2.714   5.207  10.684 -0.5647  0.3225  0.9221
   23SAPC  H11A 2986   2.775   5.204  10.591  0.6990  2.2890  1.6217
   23SAPC  H11B 2987   2.663   5.305  10.684  0.9701  1.1855  2.3431
   23SAPC     P 2988   2.675   4.952  10.620 -0.2716 -0.0738  0.3073
   23SAPC   O13 2989   2.757   4.887  10.721  0.4600  0.2487  0.2631
   23SAPC   O14 2990   2.553   4.877  10.581  0.2811 -0.0511 -0.4796
   23SAPC   O12 2991   2.633   5.094  10.683 -0.1937  0.3463 -0.4116
   23SAPC   O11 2992   2.762   4.990  10.495  0.4013  1.1007  0.0713
   23SAPC    C1 2993   2.703   5.000  10.360  0.2243 -0.2529 -0.1446
   23SAPC    HA 2994   2.686   4.897  10.321  0.1380 -0.3756  0.2075
   23SAPC    HB 2995   2.605   5.053  10.357  0.7211  0.8482  1.7307
   23SAPC    C2 2996   2.799   5.064  10.255  0.2004 -0.1736 -0.7053
   23SAPC    HS 2997   2.808   5.174  10.264 -0.3419 -0.1175 -0.8550
   23SAPC   O21 2998   2.763   5.024  10.125  0.1956 -0.1507 -0.0929
   23SAPC   C21 2999   2.666   5.099  10.074 -0.2533  0.1793  0.6373
   23SAPC   O22 3000   2.610   5.192  10.129 -0.0699 -0.0163 -0.0645
   23SAPC   C22 3001   2.641   5.043   9.929 -0.1191  0.1884  0.1170
   23SAPC   H2R 3002   2.738   5.020   9.879 -1.2727  0.0523 -2.1834
   23SAPC   H2S 3003   2.589   4.945   9.934 -0.9306  0.4787 -1.7656
   23SAPC    C3 3004   2.938   5.003  10.281 -0.0530  0.2269  0.2012
   23SAPC    HX 3005   2.932   4.893  10.285 -0.4789  0.2353 -0.1718
   23SAPC    HY 3006   2.976   5.049  10.375 -0.2592 -2.2339  1.5499
   23SAPC   O31 3007   3.018   5.037  10.169 -0.2274 -0.7215  0.3434
   23SAPC   C31 3008   3.152   5.033  10.188 -0.0580  0.2587 -0.4399
   23SAPC   O32 3009   3.204   4.973  10.277 -0.6504 -0.4291  0.3358
   23SAPC   C32 3010   3.222   5.105  10.075  0.0541 -0.0048  0.1294
   23SAPC   H2X 3011   3.330   5.084  10.083 -0.1439 -0.5818  1.7041
   23SAPC   H2Y 3012   3.210   5.215  10.088  0.9992  0.5446 -2.9452
   23SAPC   C23 3013   2.562   5.137   9.843  0.4025  0.5952  0.3495
   23SAPC   H3R 3014   2.621   5.231   9.834  0.6282  0.2922 -1.9679
   23SAPC   H3S 3015   2.459   5.149   9.882 -0.6271 -1.8422 -1.4115
   23SAPC   C24 3016   2.538   5.090   9.691 -0.2146  0.7402 -0.6858
   23SAPC   H4R 3017   2.631   5.055   9.641 -1.1384 -1.4422 -0.9841
   23SAPC   H4S 3018   2.496   5.172   9.628 -1.8350 -1.4537 -2.6543
   23SAPC   C25 3019   2.447   4.966   9.683 -0.5181 -0.6226 -0.5914
   23SAPC   H5R 3020   2.436   4.900   9.771 -1.6015  1.0657  0.5852
   23SAPC   C26 3021   2.400   4.913   9.564 -0.0515 -0.2894  0.6393
   23SAPC   H6R 3022   2.351   4.815   9.571 -0.3736 -0.2708 -0.9850
   23SAPC   C27 3023   2.425   4.964   9.426  0.5017 -0.2283 -0.7427
   23SAPC   H7R 3024   2.421   5.075   9.435  1.1446 -0.2510 -0.0533
   23SAPC   H7S 3025   2.346   4.930   9.356  0.0025 -2.3386  0.7542
   23SAPC   C28 3026   2.561   4.935   9.370 -0.5313  0.5490 -0.3698
   23SAPC   H8R 3027   2.648   4.958   9.434  0.2438 -0.0204 -1.1777
   23SAPC   C29 3028   2.586   4.872   9.257 -0.4210  0.2489 -0.0445
   23SAPC   H9R 3029   2.690   4.837   9.253 -0.2417  0.8517 -1.0945
   23SAPC  C210 3030   2.493   4.827   9.145 -0.6538 -0.0391  0.0196
   23SAPC  H10R 3031   2.420   4.906   9.119  1.1641  1.4065 -0.9441
   23SAPC  H10S 3032   2.438   4.748   9.200  1.8800 -1.5546  0.5560
   23SAPC  C211 3033   2.546   4.757   9.015  0.1819 -0.0385 -0.3912
   23SAPC  H11R 3034   2.630   4.689   9.034 -0.3787 -0.8486 -0.7889
   23SAPC  C212 3035   2.519   4.787   8.888 -0.3935  0.0755 -0.2295
   23SAPC  H12R 3036   2.585   4.737   8.814 -0.3869 -3.0188  1.6904
   23SAPC  C213 3037   2.417   4.886   8.830 -0.0273  0.3941  0.5064
   23SAPC  H13R 3038   2.473   4.977   8.800  1.7593 -1.9212 -4.3296
   23SAPC  H13S 3039   2.355   4.916   8.917 -1.3054  0.4807 -0.4124
   23SAPC  C214 3040   2.341   4.837   8.703  0.2117  0.2716 -0.5349
   23SAPC  H14R 3041   2.247   4.786   8.730 -0.0738  1.0424 -0.0322
   23SAPC  C215 3042   2.374   4.865   8.575 -0.1590  0.1510  0.4517
   23SAPC  H15R 3043   2.322   4.811   8.495 -0.3451 -1.8211  1.8234
   23SAPC  C216 3044   2.493   4.948   8.526  0.2787  0.2884 -0.8449
   23SAPC  H16R 3045   2.553   4.982   8.613  0.0851 -2.1144  0.2964
   23SAPC  H16S 3046   2.455   5.038   8.473 -0.6263 -0.9342 -2.3533
   23SAPC  C217 3047   2.586   4.879   8.436 -0.4942  0.8274  0.5026
   23SAPC  H17R 3048   2.528   4.824   8.359 -1.6832  3.0369 -0.2755
   23SAPC  H17S 3049   2.648   4.807   8.494 -0.2350 -0.2676 -1.0595
   23SAPC  C218 3050   2.680   4.970   8.357  0.3262 -0.2276 -0.4482
   23SAPC  H18R 3051   2.621   5.056   8.317 -0.5459 -1.5729 -2.1952
   23SAPC  H18S 3052   2.706   4.906   8.270 -1.8417 -2.2944  0.3099
   23SAPC  C219 3053   2.811   5.018   8.426  1.0525 -0.3167 -0.0843
   23SAPC  H19R 3054   2.819   4.998   8.535  2.5428  2.3364  0.3665
   23SAPC  H19S 3055   2.816   5.128   8.411  1.4297 -0.2353  0.5707
   23SAPC  C220 3056   2.931   4.942   8.369  0.4624 -0.4245 -0.2181
   23SAPC  H20R 3057   2.930   4.975   8.263  1.1530  0.6218  0.0912
   23SAPC  H20S 3058   2.929   4.831   8.380 -1.6932 -0.5950 -1.6383
   23SAPC  H20T 3059   3.022   4.987   8.412  0.6829  1.3386 -2.3315
   23SAPC   C33 3060   3.171   5.046   9.938  0.1640  0.8118 -0.4452
   23SAPC   H3X 3061   3.215   5.099   9.850  0.6912 -0.4295 -0.9618
   23SAPC   H3Y 3062   3.061   5.062   9.935  0.3693  2.4549 -0.0115
   23SAPC   C34 3063   3.216   4.895   9.925 -0.2399 -0.4985 -0.4845
   23SAPC   H4X 3064   3.163   4.835  10.002  0.1115 -0.3759 -0.1421
   23SAPC   H4Y 3065   3.321   4.871   9.951  0.1572 -0.6390 -2.0954
   23SAPC   C35 3066   3.177   4.844   9.789  0.1726 -1.0092 -0.1195
   23SAPC   H5X 3067   3.209   4.919   9.713 -1.0940  1.0896  1.3305
   23SAPC   H5Y 3068   3.066   4.840   9.779 -0.0865  2.7758 -0.1600
   23SAPC   C36 3069   3.240   4.710   9.760  0.2771  0.3377 -0.0495
   23SAPC   H6X 3070   3.196   4.640   9.834  0.3631 -1.2741 -1.4644
   23SAPC   H6Y 3071   3.349   4.720   9.778  0.3083  0.8327 -0.4640
   23SAPC   C37 3072   3.233   4.647   9.616  0.0260 -0.0427  0.8971
   23SAPC   H7X 3073   3.283   4.713   9.542 -1.2626  0.3384  0.3322
   23SAPC   H7Y 3074   3.126   4.635   9.588 -0.5017  3.1143  1.2633
   23SAPC   C38 3075   3.297   4.511   9.609 -0.4833  0.4966 -0.4518
   23SAPC   H8X 3076   3.236   4.443   9.672 -0.7348 -1.2042 -2.4114
   23SAPC   H8Y 3077   3.404   4.516   9.639 -0.7042  0.9280  0.2940
   23SAPC   C39 3078   3.289   4.440   9.471  0.2827 -0.7041 -0.6853
   23SAPC   H9X 3079   3.188   4.469   9.433 -0.4967 -1.3197  0.8353
   23SAPC   H9Y 3080   3.303   4.332   9.490  0.3620 -0.3049  1.8887
   23SAPC  C310 3081   3.396   4.489   9.374  0.2332  0.5762  0.0695
   23SAPC  H10X 3082   3.490   4.429   9.372  0.8068  1.4766 -1.7812
   23SAPC  H10Y 3083   3.426   4.596   9.376  0.6456  0.4588  0.6299
   23SAPC  C311 3084   3.336   4.469   9.230  0.1526 -0.2627 -0.0711
   23SAPC  H11X 3085   3.230   4.501   9.230 -0.0322 -0.8228  0.9615
   23SAPC  H11Y 3086   3.344   4.363   9.197  2.3870 -0.5141  1.0637
   23SAPC  C312 3087   3.423   4.553   9.132  0.1615 -0.0516 -0.3593
   23SAPC  H12X 3088   3.526   4.527   9.165 -0.9129 -0.8672  2.5958
   23SAPC  H12Y 3089   3.411   4.657   9.169  1.8081 -0.5154  1.6573
   23SAPC  C313 3090   3.400   4.528   8.984  0.6330  0.7769 -0.5497
   23SAPC  H13X 3091   3.399   4.417   8.975 -1.3188  0.8700 -2.4912
   23SAPC  H13Y 3092   3.487   4.572   8.930  1.4404  1.1391  1.0150
   23SAPC  C314 3093   3.264   4.579   8.934  0.0784  0.5606 -0.3911
   23SAPC  H14X 3094   3.238   4.681   8.972 -1.4739  0.5443 -1.3297
   23SAPC  H14Y 3095   3.184   4.516   8.977  0.5966 -0.5719 -1.0576
   23SAPC  C315 3096   3.240   4.568   8.780 -0.7508 -0.0599 -0.0042
   23SAPC  H15X 3097   3.282   4.468   8.758 -0.2067  0.4092 -1.1688
   23SAPC  H15Y 3098   3.310   4.644   8.738  0.4379 -0.2194  1.5818
   23SAPC  C316 3099   3.097   4.589   8.743  0.7829 -0.0002 -0.0947
   23SAPC  H16X 3100   3.049   4.685   8.771  0.3731 -0.4339  0.7218
   23SAPC  H16Y 3101   3.038   4.514   8.801  0.1117  1.0570  0.6228
   23SAPC  C317 3102   3.074   4.578   8.588 -0.3583 -0.7717 -0.2387
   23SAPC  H17X 3103   2.967   4.582   8.559 -0.4798 -0.5016  0.2534
   23SAPC  H17Y 3104   3.110   4.481   8.547 -0.3171 -0.3309 -1.2867
   23SAPC  C318 3105   3.143   4.692   8.509 -0.1246 -0.2601 -0.5855
   23SAPC  H18X 3106   3.253   4.688   8.493  0.1244  0.3751  0.8153
   23SAPC  H18Y 3107   3.124   4.790   8.559 -1.5797 -1.1979  0.8040
   23SAPC  H18Z 3108   3.106   4.688   8.404  0.4249 -2.4618 -0.7499
   24SAPC     N 3109   4.350   0.306  11.013 -0.1215 -0.3447 -0.9569
   24SAPC   C12 3110   4.309   0.242  10.878 -0.3186 -0.1419  0.3352
   24SAPC  H12A 3111   4.345   0.140  10.882  3.1766  0.9135 -0.5546
   24SAPC  H12B 3112   4.369   0.282  10.798 -3.2407  1.0101 -1.4421
   24SAPC   C13 3113   4.304   0.446  11.013  0.0262 -0.6734  0.1502
   24SAPC  H13A 3114   4.347   0.494  10.927 -2.0551 -0.1097 -0.6278
   24SAPC  H13B 3115   4.197   0.453  11.005  0.0773 -1.0236 -1.1201
   24SAPC  H13C 3116   4.328   0.506  11.100 -2.6926  1.4804 -0.4315
   24SAPC   C14 3117   4.284   0.246  11.127  0.4992 -0.2242 -0.0197
   24SAPC  H14A 3118   4.300   0.139  11.135  1.1913 -0.2358 -1.3082
   24SAPC  H14B 3119   4.317   0.295  11.218  2.2253 -1.8605  0.2809
   24SAPC  H14C 3120   4.177   0.263  11.127  0.4257 -0.2141 -3.0089
   24SAPC   C15 3121   4.500   0.303  11.038 -0.0989 -0.2426  0.3652
   24SAPC  H15A 3122   4.542   0.203  11.040  1.4050  0.3680  1.8287
   24SAPC  H15B 3123   4.551   0.358  10.961 -0.9858 -1.1975 -0.9546
   24SAPC  H15C 3124   4.522   0.359  11.128  1.5964  0.8101 -0.6524
   24SAPC   C11 3125   4.165   0.254  10.819  0.6123  0.0396 -0.2931
   24SAPC  H11A 3126   4.162   0.206  10.719 -2.0011  2.7023 -1.6611
   24SAPC  H11B 3127   4.153   0.364  10.806 -2.5470 -0.1418  0.1315
   24SAPC     P 3128   4.016   0.050  10.888 -0.1777  0.1332  0.1195
   24SAPC   O13 3129   4.124  -0.009  10.804 -0.1627  0.2397 -0.7306
   24SAPC   O14 3130   3.996  -0.012  11.019 -0.1808  0.4353  0.1484
   24SAPC   O12 3131   4.067   0.197  10.908 -0.2917 -0.3798  0.0436
   24SAPC   O11 3132   3.881   0.054  10.802 -0.2363 -1.3620 -0.1109
   24SAPC    C1 3133   3.796   0.170  10.810 -0.0424 -0.2017  0.1204
   24SAPC    HA 3134   3.698   0.150  10.858 -1.2151  3.0252 -0.6568
   24SAPC    HB 3135   3.842   0.256  10.864  2.0576 -1.0132 -0.3070
   24SAPC    C2 3136   3.764   0.227  10.667  0.4841  0.0121  0.2547
   24SAPC    HS 3137   3.693   0.312  10.674 -0.7344 -1.1181  2.8647
   24SAPC   O21 3138   3.709   0.117  10.589 -0.2016 -0.2748 -0.7139
   24SAPC   C21 3139   3.630   0.159  10.499  0.4291  0.2197 -0.0255
   24SAPC   O22 3140   3.561   0.260  10.488 -0.9744  0.1030 -0.2277
   24SAPC   C22 3141   3.638   0.049  10.394 -0.2888 -0.3406 -0.7040
   24SAPC   H2R 3142   3.740   0.058  10.349  0.4233 -0.3955  0.8175
   24SAPC   H2S 3143   3.628  -0.042  10.457  0.3781 -0.7606 -1.1905
   24SAPC    C3 3144   3.892   0.282  10.599 -0.3733 -0.5171 -0.5169
   24SAPC    HX 3145   3.958   0.195  10.578  0.4527  0.3281 -1.5511
   24SAPC    HY 3146   3.937   0.347  10.677 -1.0669 -0.1850 -0.3794
   24SAPC   O31 3147   3.858   0.350  10.473 -0.0909  0.1283  0.3011
   24SAPC   C31 3148   3.964   0.358  10.396  0.4519 -0.2199  0.3170
   24SAPC   O32 3149   4.077   0.317  10.416  0.0994 -0.4329 -0.7659
   24SAPC   C32 3150   3.906   0.422  10.265 -1.1029  0.3370  0.3647
   24SAPC   H2X 3151   3.858   0.521  10.278 -1.6696  0.0388  0.6065
   24SAPC   H2Y 3152   3.819   0.363  10.229 -0.3858  0.1949 -1.2085
   24SAPC   C23 3153   3.526   0.044  10.292  0.1710  0.2240  0.2107
   24SAPC   H3R 3154   3.432   0.064  10.348 -0.0554 -0.7785  0.2053
   24SAPC   H3S 3155   3.519  -0.057  10.247  0.2015 -0.0395  0.7776
   24SAPC   C24 3156   3.531   0.146  10.183  0.3948  0.5777  0.1687
   24SAPC   H4R 3157   3.567   0.248  10.205 -3.0133  1.9960 -0.2063
   24SAPC   H4S 3158   3.430   0.167  10.140 -0.5759 -1.8156  1.1041
   24SAPC   C25 3159   3.611   0.096  10.062  0.5626  0.0888 -0.0953
   24SAPC   H5R 3160   3.719   0.105  10.076  0.6337 -1.1488  0.2654
   24SAPC   C26 3161   3.568   0.063   9.935  0.3366  0.1822  0.7553
   24SAPC   H6R 3162   3.645   0.017   9.871 -0.0917  0.5365 -0.0163
   24SAPC   C27 3163   3.422   0.068   9.877 -0.2647 -0.5874  0.1488
   24SAPC   H7R 3164   3.421   0.169   9.832  3.7798 -0.1766  0.6062
   24SAPC   H7S 3165   3.342   0.065   9.954 -1.7325 -0.9989 -1.3281
   24SAPC   C28 3166   3.385  -0.040   9.769 -0.0989 -0.1041  0.1673
   24SAPC   H8R 3167   3.320  -0.122   9.802  0.8469 -0.4994  1.1204
   24SAPC   C29 3168   3.429  -0.048   9.645  0.5224  0.1135 -0.2299
   24SAPC   H9R 3169   3.395  -0.133   9.584 -0.6564 -0.0178  0.5818
   24SAPC  C210 3170   3.529   0.055   9.596  0.7093 -0.1957 -0.1712
   24SAPC  H10R 3171   3.628   0.038   9.645 -0.9631 -0.4459  3.4183
   24SAPC  H10S 3172   3.493   0.154   9.630 -1.1698 -1.0660  0.5061
   24SAPC  C211 3173   3.537   0.040   9.445 -0.5411 -0.2445 -0.1155
   24SAPC  H11R 3174   3.461   0.088   9.381 -0.4682  0.2469  0.1602
   24SAPC  C212 3175   3.634  -0.032   9.384 -0.1644  1.0971 -0.0566
   24SAPC  H12R 3176   3.639  -0.045   9.275  0.4265 -1.4171  0.1978
   24SAPC  C213 3177   3.748  -0.110   9.447 -0.0485 -0.5302  0.4043
   24SAPC  H13R 3178   3.756  -0.206   9.392 -0.9850 -0.5121  0.2182
   24SAPC  H13S 3179   3.712  -0.138   9.548  1.5926  0.9383  1.4657
   24SAPC  C214 3180   3.880  -0.036   9.455  0.0562 -0.1652  0.5254
   24SAPC  H14R 3181   3.898   0.037   9.375  4.3696  0.0218  1.4234
   24SAPC  C215 3182   3.977  -0.056   9.547  0.3301 -0.6286  0.9330
   24SAPC  H15R 3183   4.063   0.013   9.546  0.1234 -0.3508 -0.8524
   24SAPC  C216 3184   3.976  -0.148   9.662  0.4601  0.9150  1.1567
   24SAPC  H16R 3185   4.067  -0.208   9.682 -0.3075 -0.8041 -0.1728
   24SAPC  H16S 3186   3.894  -0.224   9.659 -1.4571  2.8592  1.7913
   24SAPC  C217 3187   3.974  -0.068   9.797 -0.0038  0.6157  0.6989
   24SAPC  H17R 3188   3.880  -0.008   9.798  0.3709  1.2450 -0.1435
   24SAPC  H17S 3189   4.048   0.015   9.799  0.4970  0.1718  1.9696
   24SAPC  C218 3190   3.993  -0.160   9.921  0.0567  0.2576  0.0112
   24SAPC  H18R 3191   4.083  -0.220   9.897 -0.0208  0.2507 -0.2639
   24SAPC  H18S 3192   3.914  -0.238   9.930 -0.5254  0.8904  0.4701
   24SAPC  C219 3193   4.009  -0.084  10.051 -0.2230 -0.2242  0.2648
   24SAPC  H19R 3194   3.921  -0.030  10.092  1.2241  2.1707  0.3676
   24SAPC  H19S 3195   4.080  -0.002  10.028 -1.0250  0.4938  0.2802
   24SAPC  C220 3196   4.070  -0.180  10.171 -0.7379 -0.0402  0.1577
   24SAPC  H20R 3197   4.008  -0.271  10.179  0.3389 -0.6681  1.7459
   24SAPC  H20S 3198   4.056  -0.121  10.264  0.3117  2.5401 -1.1958
   24SAPC  H20T 3199   4.176  -0.199  10.144 -0.2679  1.3429  0.9134
   24SAPC   C33 3200   4.000   0.414  10.138  0.1326  0.0810  0.1369
   24SAPC   H3X 3201   4.068   0.326  10.133 -0.3128 -0.2295 -0.6601
   24SAPC   H3Y 3202   4.067   0.502  10.131  1.2823 -0.8067 -0.2980
   24SAPC   C34 3203   3.917   0.414  10.006 -0.1793 -0.1452 -0.7433
   24SAPC   H4X 3204   3.841   0.495  10.004 -0.4606 -0.3974 -0.4025
   24SAPC   H4Y 3205   3.857   0.320  10.006 -1.0591  0.3921  0.6759
   24SAPC   C35 3206   4.005   0.402   9.877 -0.6071  0.0885 -0.0178
   24SAPC   H5X 3207   4.077   0.318   9.878  1.2739  1.6338 -0.3692
   24SAPC   H5Y 3208   4.065   0.495   9.871  1.3358 -1.1318 -0.4399
   24SAPC   C36 3209   3.921   0.373   9.756  0.6848 -0.1350 -0.1048
   24SAPC   H6X 3210   3.855   0.463   9.750 -0.3991 -0.8809  0.3306
   24SAPC   H6Y 3211   3.854   0.285   9.767 -1.2370  0.9877 -1.9453
   24SAPC   C37 3212   3.992   0.356   9.623  0.3469  0.2687  0.1703
   24SAPC   H7X 3213   4.054   0.264   9.627  1.0746  0.7422 -0.1499
   24SAPC   H7Y 3214   4.060   0.440   9.596  2.9046 -1.8098 -0.2779
   24SAPC   C38 3215   3.889   0.349   9.510 -0.0720 -0.0992  0.9035
   24SAPC   H8X 3216   3.837   0.447   9.505 -0.4256 -0.3629 -2.1687
   24SAPC   H8Y 3217   3.827   0.257   9.517  0.9000 -0.9605 -1.0553
   24SAPC   C39 3218   3.964   0.329   9.377 -0.4350 -0.4716  0.3366
   24SAPC   H9X 3219   4.012   0.229   9.379  3.2704  1.1279  1.6605
   24SAPC   H9Y 3220   4.047   0.401   9.396 -2.0066  1.2863  0.8152
   24SAPC  C310 3221   3.888   0.378   9.252  0.3623  0.1402  0.3622
   24SAPC  H10X 3222   3.802   0.310   9.231  0.4899  0.1031 -0.0539
   24SAPC  H10Y 3223   3.952   0.371   9.162 -0.7289 -0.4186 -0.3989
   24SAPC  C311 3224   3.822   0.520   9.245 -0.2351  0.1032 -0.2679
   24SAPC  H11X 3225   3.903   0.593   9.267 -0.3071 -0.1671  0.9780
   24SAPC  H11Y 3226   3.751   0.536   9.329  0.7653  2.5542  0.1840
   24SAPC  C312 3227   3.735   0.549   9.119  0.7945 -0.0950  0.0049
   24SAPC  H12X 3228   3.685   0.648   9.122 -0.7924 -0.8667 -0.2350
   24SAPC  H12Y 3229   3.659   0.471   9.101  0.6726 -0.1522  0.7547
   24SAPC  C313 3230   3.821   0.553   8.985  0.1353 -1.3815  0.2072
   24SAPC  H13X 3231   3.852   0.447   8.981 -1.4128 -1.8177 -1.3670
   24SAPC  H13Y 3232   3.901   0.629   8.999 -0.7203  0.1108 -2.3784
   24SAPC  C314 3233   3.757   0.581   8.851  0.5149  0.1337  0.0280
   24SAPC  H14X 3234   3.712   0.683   8.848 -0.6630 -0.3961 -1.6259
   24SAPC  H14Y 3235   3.670   0.517   8.824  0.4529  0.3335 -0.2540
   24SAPC  C315 3236   3.857   0.580   8.742  0.2819 -0.1114 -0.2614
   24SAPC  H15X 3237   3.952   0.629   8.770  0.5914  1.4326 -3.5096
   24SAPC  H15Y 3238   3.814   0.648   8.665 -3.6422 -0.4014  1.4253
   24SAPC  C316 3239   3.870   0.446   8.665  0.0947  0.1854 -0.1109
   24SAPC  H16X 3240   3.772   0.409   8.627  0.9198 -1.1671 -1.0109
   24SAPC  H16Y 3241   3.919   0.371   8.731  2.8524  1.2580 -0.8101
   24SAPC  C317 3242   3.966   0.465   8.549 -0.4137  0.0013  0.6911
   24SAPC  H17X 3243   4.048   0.535   8.574 -0.1568  0.2830 -0.8536
   24SAPC  H17Y 3244   3.925   0.523   8.464  0.8707  0.4880  0.3865
   24SAPC  C318 3245   4.010   0.330   8.495 -0.1049  0.1921 -0.2778
   24SAPC  H18X 3246   4.030   0.252   8.572 -0.5056  2.0696  1.8189
   24SAPC  H18Y 3247   4.110   0.350   8.450  0.7668  1.5438  2.0947
   24SAPC  H18Z 3248   3.939   0.295   8.417  1.2033  0.5132 -1.6490
   25SAPC     N 3249   0.312   0.383   5.667 -0.1393 -0.0986  0.1164
   25SAPC   C12 3250   0.312   0.252   5.747 -0.1344 -0.2028 -0.5963
   25SAPC  H12A 3251   0.413   0.215   5.734 -0.7697 -1.3997 -2.5420
   25SAPC  H12B 3252   0.252   0.179   5.695  0.5500  0.1675 -1.9633
   25SAPC   C13 3253   0.397   0.476   5.745 -0.1302 -0.2234 -0.4420
   25SAPC  H13A 3254   0.350   0.503   5.839 -0.3582 -0.2100 -0.5607
   25SAPC  H13B 3255   0.495   0.436   5.766  0.1960  0.8757  0.2617
   25SAPC  H13C 3256   0.413   0.571   5.695  0.2665 -0.4533 -0.7600
   25SAPC   C14 3257   0.364   0.357   5.533  0.4302 -0.8653  1.0900
   25SAPC  H14A 3258   0.436   0.277   5.544  0.4205 -0.8557  1.2301
   25SAPC  H14B 3259   0.277   0.328   5.478 -0.9840  0.6087  2.4490
   25SAPC  H14C 3260   0.407   0.447   5.491  0.1409 -0.3367  1.8957
   25SAPC   C15 3261   0.175   0.448   5.673 -0.2756 -0.3212  0.3786
   25SAPC  H15A 3262   0.141   0.443   5.775  0.1862  0.3418  0.5703
   25SAPC  H15B 3263   0.166   0.553   5.652  1.5912 -0.7167 -3.1855
   25SAPC  H15C 3264   0.097   0.400   5.616  1.0429 -1.0630 -0.9058
   25SAPC   C11 3265   0.281   0.254   5.899 -0.4959  0.5407  0.3999
   25SAPC  H11A 3266   0.354   0.328   5.938  1.2855 -1.3012  0.7730
   25SAPC  H11B 3267   0.307   0.155   5.943  0.9628  1.3497  1.4375
   25SAPC     P 3268   0.021   0.187   5.921  0.2507 -0.2142 -0.2929
   25SAPC   O13 3269  -0.109   0.250   5.955 -0.2441  0.2815  0.0956
   25SAPC   O14 3270   0.032   0.091   5.804 -0.7515 -0.0490 -0.1530
   25SAPC   O12 3271   0.144   0.289   5.923 -0.0449  0.0400  0.3795
   25SAPC   O11 3272   0.072   0.091   6.042 -0.1712  0.3437  0.1042
   25SAPC    C1 3273   0.054   0.122   6.180 -0.1635 -0.0752  0.1156
   25SAPC    HA 3274   0.031   0.230   6.194 -1.0112 -0.1403 -0.6655
   25SAPC    HB 3275  -0.037   0.064   6.205 -1.4450 -0.1074 -3.8354
   25SAPC    C2 3276   0.174   0.075   6.262  0.0055 -0.1292  0.2836
   25SAPC    HS 3277   0.272   0.091   6.214  0.3874  0.0352  1.1059
   25SAPC   O21 3278   0.150  -0.067   6.287 -0.4285  0.4162  0.0829
   25SAPC   C21 3279   0.253  -0.133   6.339 -0.2425  0.2804  0.4553
   25SAPC   O22 3280   0.369  -0.092   6.343  1.0380 -0.3149 -0.3692
   25SAPC   C22 3281   0.211  -0.265   6.392  0.5254  0.5119  0.4486
   25SAPC   H2R 3282   0.101  -0.270   6.410  0.8315 -0.4513  2.2502
   25SAPC   H2S 3283   0.242  -0.335   6.312  0.3593 -0.1000  0.9108
   25SAPC    C3 3284   0.181   0.157   6.394  0.6739 -0.0673 -0.3813
   25SAPC    HX 3285   0.213   0.257   6.356  2.3325 -1.3613 -2.6617
   25SAPC    HY 3286   0.269   0.119   6.450  0.5741  0.1941 -0.0400
   25SAPC   O31 3287   0.066   0.143   6.484  0.4384  0.0769  0.0072
   25SAPC   C31 3288   0.014   0.254   6.523 -0.1045  0.0834  0.4708
   25SAPC   O32 3289   0.045   0.366   6.484 -0.5442  0.1131  0.8289
   25SAPC   C32 3290  -0.084   0.234   6.631 -0.5094 -0.1931 -0.2660
   25SAPC   H2X 3291  -0.130   0.133   6.627 -0.5324 -0.1547 -1.3080
   25SAPC   H2Y 3292  -0.162   0.308   6.602 -0.6940 -0.3717 -0.2246
   25SAPC   C23 3293   0.262  -0.301   6.535  0.0937 -0.3422 -0.1086
   25SAPC   H3R 3294   0.373  -0.297   6.522  0.4783  0.3033  2.6744
   25SAPC   H3S 3295   0.230  -0.405   6.558  1.6310 -0.5879  1.0719
   25SAPC   C24 3296   0.221  -0.205   6.644  0.1041 -0.2840 -0.3439
   25SAPC   H4R 3297   0.114  -0.210   6.672 -0.4170 -0.8348 -2.2903
   25SAPC   H4S 3298   0.243  -0.103   6.604 -1.4969  0.6335  0.9934
   25SAPC   C25 3299   0.313  -0.242   6.760  0.4675  0.9682  0.2511
   25SAPC   H5R 3300   0.292  -0.338   6.808  3.4533 -0.2937 -0.7488
   25SAPC   C26 3301   0.412  -0.164   6.814 -0.4388  0.2589 -0.6485
   25SAPC   H6R 3302   0.472  -0.204   6.898 -0.0648  0.3670 -0.8634
   25SAPC   C27 3303   0.455  -0.029   6.764  0.3196 -0.0115  0.3702
   25SAPC   H7R 3304   0.478  -0.039   6.656 -0.6410 -0.6005  0.2152
   25SAPC   H7S 3305   0.546   0.001   6.821  1.0507 -1.5400  0.0528
   25SAPC   C28 3306   0.357   0.088   6.792 -0.0351  0.4416 -0.0593
   25SAPC   H8R 3307   0.289   0.123   6.713 -0.7987 -1.5558 -0.3293
   25SAPC   C29 3308   0.343   0.147   6.913 -0.2312  0.1537  0.1213
   25SAPC   H9R 3309   0.272   0.231   6.923  0.8035  0.9276  1.4076
   25SAPC  C210 3310   0.433   0.116   7.039  0.8692  0.1209 -0.1492
   25SAPC  H10R 3311   0.531   0.078   7.001  0.0322  0.9552 -3.4973
   25SAPC  H10S 3312   0.383   0.032   7.092 -0.9643 -0.0885 -2.0439
   25SAPC  C211 3313   0.451   0.232   7.125  0.1252  0.0174 -0.2301
   25SAPC  H11R 3314   0.448   0.331   7.077  1.4544  1.1812  1.9504
   25SAPC  C212 3315   0.493   0.239   7.256  0.3121 -1.1109 -0.2577
   25SAPC  H12R 3316   0.513   0.339   7.299  2.1697 -0.8563 -1.5628
   25SAPC  C213 3317   0.525   0.130   7.350  0.4398 -0.4135 -0.7062
   25SAPC  H13R 3318   0.491   0.036   7.302  0.4289 -0.6965 -0.1458
   25SAPC  H13S 3319   0.454   0.143   7.434 -0.2794 -0.2978 -1.3245
   25SAPC  C214 3320   0.668   0.118   7.391 -0.4630  0.1014 -0.2747
   25SAPC  H14R 3321   0.741   0.103   7.310 -0.3482 -0.2221 -0.1152
   25SAPC  C215 3322   0.702   0.092   7.517  0.3379 -0.5080  0.2841
   25SAPC  H15R 3323   0.809   0.106   7.539  0.5679  0.9376 -1.4732
   25SAPC  C216 3324   0.600   0.087   7.636  0.3620  0.0244  0.5863
   25SAPC  H16R 3325   0.574  -0.017   7.664 -2.1670  0.2132 -0.8051
   25SAPC  H16S 3326   0.510   0.148   7.616  1.0750  1.4192  1.4741
   25SAPC  C217 3327   0.651   0.155   7.763 -0.2602  0.8128 -0.1919
   25SAPC  H17R 3328   0.644   0.266   7.757  0.8747  0.8737 -0.6877
   25SAPC  H17S 3329   0.758   0.125   7.771 -1.1392 -2.1740  2.1552
   25SAPC  C218 3330   0.582   0.088   7.874  0.7593 -0.7415 -0.3355
   25SAPC  H18R 3331   0.630  -0.010   7.891  0.8740 -0.8789 -1.3697
   25SAPC  H18S 3332   0.477   0.081   7.839  1.4304  0.0297 -2.6773
   25SAPC  C219 3333   0.588   0.165   8.006 -0.0658 -0.4934  0.4655
   25SAPC  H19R 3334   0.558   0.272   7.999  0.7944 -0.1838  1.1444
   25SAPC  H19S 3335   0.697   0.174   8.028  0.8705 -1.3906 -3.1640
   25SAPC  C220 3336   0.521   0.084   8.113 -0.5490  0.5636 -0.4303
   25SAPC  H20R 3337   0.535   0.124   8.216 -2.6510  0.7199 -0.1587
   25SAPC  H20S 3338   0.576  -0.013   8.113  1.2615  1.5608 -0.2547
   25SAPC  H20T 3339   0.411   0.080   8.098 -0.4549 -2.0837 -0.9424
   25SAPC   C33 3340  -0.041   0.244   6.781 -0.8338  0.1308 -0.0627
   25SAPC   H3X 3341  -0.008   0.347   6.805  4.5156 -1.5743  1.5604
   25SAPC   H3Y 3342   0.048   0.177   6.790 -1.2517 -0.8280 -2.3152
   25SAPC   C34 3343  -0.154   0.208   6.879  0.5503  0.4649  0.1531
   25SAPC   H4X 3344  -0.192   0.105   6.860  0.7454  0.5435 -0.6780
   25SAPC   H4Y 3345  -0.234   0.278   6.848 -1.9596 -2.9902 -1.7988
   25SAPC   C35 3346  -0.126   0.232   7.030 -0.5642  1.0710  0.2111
   25SAPC   H5X 3347  -0.217   0.250   7.091 -0.5234  1.1373  0.2523
   25SAPC   H5Y 3348  -0.073   0.329   7.026  1.9814 -0.2362 -0.1355
   25SAPC   C36 3349  -0.033   0.121   7.098  0.0095 -0.0755  0.1366
   25SAPC   H6X 3350   0.061   0.134   7.042 -1.0285  0.5820 -1.5249
   25SAPC   H6Y 3351  -0.080   0.021   7.085 -0.6269  0.1582  0.5751
   25SAPC   C37 3352   0.005   0.145   7.244  0.5558  0.0181 -0.2464
   25SAPC   H7X 3353  -0.097   0.148   7.289  0.3903  3.0444 -0.6517
   25SAPC   H7Y 3354   0.044   0.247   7.265 -0.8331  0.3618  0.9019
   25SAPC   C38 3355   0.078   0.031   7.305 -0.5565  0.5153  0.5031
   25SAPC   H8X 3356   0.187   0.038   7.286 -0.1855 -2.8714  0.7899
   25SAPC   H8Y 3357   0.043  -0.069   7.270  1.7357 -0.5736  1.1626
   25SAPC   C39 3358   0.055   0.038   7.459 -0.1938  0.6102 -0.1490
   25SAPC   H9X 3359   0.106  -0.051   7.501  1.3330  1.1336 -0.8008
   25SAPC   H9Y 3360  -0.053   0.042   7.483 -0.1841 -0.5065  0.1717
   25SAPC  C310 3361   0.134   0.161   7.517  0.1770  1.1841  0.1819
   25SAPC  H10X 3362   0.081   0.255   7.490  2.4752  2.3091 -0.6178
   25SAPC  H10Y 3363   0.237   0.160   7.475  0.3827 -3.4539  0.2819
   25SAPC  C311 3364   0.117   0.155   7.665  0.0210 -0.6834 -0.1507
   25SAPC  H11X 3365   0.154   0.053   7.690  0.6846 -0.0087  1.8559
   25SAPC  H11Y 3366   0.011   0.167   7.693  0.0402 -1.3819  0.2516
   25SAPC  C312 3367   0.195   0.263   7.732 -0.1001  0.5011  0.2097
   25SAPC  H12X 3368   0.163   0.361   7.692 -1.3116 -0.1003 -0.3335
   25SAPC  H12Y 3369   0.301   0.251   7.701 -0.8178 -2.6870 -1.5121
   25SAPC  C313 3370   0.189   0.267   7.879  0.2845 -0.8653  0.2101
   25SAPC  H13X 3371   0.186   0.168   7.930  0.1789  0.0945  2.1786
   25SAPC  H13Y 3372   0.088   0.307   7.901  1.3579  2.0591  0.2358
   25SAPC  C314 3373   0.282   0.374   7.931 -0.0857  0.0318 -0.2118
   25SAPC  H14X 3374   0.293   0.460   7.862 -0.6424 -0.4415 -0.9052
   25SAPC  H14Y 3375   0.381   0.325   7.943  0.5667  1.6008  1.0972
   25SAPC  C315 3376   0.230   0.420   8.062 -0.1327 -0.3682 -0.8135
   25SAPC  H15X 3377   0.190   0.332   8.116 -1.2345 -0.6832 -2.0679
   25SAPC  H15Y 3378   0.156   0.496   8.029  1.2858  1.4317 -0.0206
   25SAPC  C316 3379   0.330   0.490   8.154  0.5105 -0.5087 -0.4593
   25SAPC  H16X 3380   0.339   0.597   8.125 -1.7775 -0.1567 -0.0518
   25SAPC  H16Y 3381   0.428   0.441   8.135 -0.2143 -2.2691  0.1504
   25SAPC  C317 3382   0.298   0.496   8.305 -0.0673 -0.4947 -0.1775
   25SAPC  H17X 3383   0.359   0.573   8.357  0.2289 -0.4821 -0.5438
   25SAPC  H17Y 3384   0.323   0.402   8.358 -1.2115 -1.7866 -1.8092
   25SAPC  C318 3385   0.154   0.528   8.346  0.1641  0.2908 -0.1448
   25SAPC  H18X 3386   0.076   0.500   8.273  0.3416 -1.8522  0.4387
   25SAPC  H18Y 3387   0.141   0.639   8.349  1.8373  0.5079  0.0956
   25SAPC  H18Z 3388   0.135   0.482   8.445 -0.2812 -0.6645 -0.6601
   26SAPC     N 3389   5.715   0.967   6.172 -0.0003 -0.1528 -0.5906
   26SAPC   C12 3390   5.705   0.919   6.312 -0.4775  0.3802 -0.0402
   26SAPC  H12A 3391   5.674   0.815   6.308 -0.1173  0.2946 -0.6367
   26SAPC  H12B 3392   5.624   0.958   6.372  0.3011  1.2574  0.4641
   26SAPC   C13 3393   5.755   1.110   6.166 -0.0465  0.2269  0.4540
   26SAPC  H13A 3394   5.807   1.132   6.074 -1.2948  1.4402  0.0027
   26SAPC  H13B 3395   5.668   1.173   6.173  0.5225  1.2004 -0.8784
   26SAPC  H13C 3396   5.818   1.131   6.252  0.0663 -0.4723  0.5486
   26SAPC   C14 3397   5.798   0.875   6.084  0.3740  0.1907  0.1856
   26SAPC  H14A 3398   5.754   0.776   6.085  2.0836 -0.5986  0.5250
   26SAPC  H14B 3399   5.798   0.907   5.981  1.5240 -0.4019 -0.0099
   26SAPC  H14C 3400   5.900   0.877   6.118  0.4955 -0.2480 -0.1420
   26SAPC   C15 3401   5.581   0.961   6.102  0.3059  0.1190  0.0260
   26SAPC  H15A 3402   5.545   0.862   6.080 -2.4793  0.8497  0.8677
   26SAPC  H15B 3403   5.497   1.002   6.157  1.7743  2.1450  0.8781
   26SAPC  H15C 3404   5.578   1.019   6.011  1.9691  0.7300  0.3366
   26SAPC   C11 3405   5.829   0.924   6.403 -0.2942  0.0832 -0.3022
   26SAPC  H11A 3406   5.805   0.887   6.505 -0.5708  0.4594 -0.2316
   26SAPC  H11B 3407   5.867   1.027   6.418  0.3226 -0.1686 -0.1172
   26SAPC     P 3408   5.974   0.712   6.416 -0.0593  0.0907 -0.0008
   26SAPC   O13 3409   5.864   0.641   6.485 -0.3811  0.5976 -0.5535
   26SAPC   O14 3410   6.058   0.637   6.314 -0.8738  0.0368  0.7108
   26SAPC   O12 3411   5.928   0.844   6.340 -0.0536  0.1221  0.1158
   26SAPC   O11 3412   6.071   0.766   6.530 -0.0689  0.2200  0.4819
   26SAPC    C1 3413   6.187   0.840   6.497 -0.5508  0.9828 -0.0113
   26SAPC    HA 3414   6.255   0.781   6.432 -0.6589 -0.8201  1.4197
   26SAPC    HB 3415   6.155   0.934   6.447 -3.4957  1.0268  1.7243
   26SAPC    C2 3416   6.270   0.878   6.623  0.6134 -0.5921 -0.1486
   26SAPC    HS 3417   6.362   0.933   6.594  0.6372 -0.6077 -0.1015
   26SAPC   O21 3418   6.297   0.766   6.699 -0.3009 -0.1634  0.0933
   26SAPC   C21 3419   6.381   0.683   6.633  0.6655 -0.0523 -0.9228
   26SAPC   O22 3420   6.445   0.711   6.537 -0.4210 -0.1909 -0.6905
   26SAPC   C22 3421   6.371   0.549   6.710  0.1177 -0.0679  0.0456
   26SAPC   H2R 3422   6.282   0.539   6.776 -0.4012  0.8487 -0.5048
   26SAPC   H2S 3423   6.358   0.483   6.622  0.0203 -0.1258  0.1029
   26SAPC    C3 3424   6.194   0.990   6.704  0.4021 -0.6886  0.2562
   26SAPC    HX 3425   6.099   0.934   6.721  0.3960 -2.0047 -3.2772
   26SAPC    HY 3426   6.177   1.082   6.643 -1.4216 -0.8913  0.3869
   26SAPC   O31 3427   6.268   1.020   6.826  0.3763 -0.2320 -0.4483
   26SAPC   C31 3428   6.235   0.950   6.932 -0.0312  0.4757  0.2273
   26SAPC   O32 3429   6.149   0.868   6.938 -0.3593  0.3935 -0.0272
   26SAPC   C32 3430   6.321   1.000   7.054  0.2997 -0.2828  0.6935
   26SAPC   H2X 3431   6.343   1.108   7.038 -1.0073 -0.1939 -0.6789
   26SAPC   H2Y 3432   6.416   0.943   7.058  0.1734 -0.7405 -1.5426
   26SAPC   C23 3433   6.504   0.518   6.785 -0.0770  0.4628 -0.3012
   26SAPC   H3R 3434   6.588   0.493   6.717  0.3355 -0.9888  0.6807
   26SAPC   H3S 3435   6.467   0.422   6.827  1.4032  0.1309  0.3268
   26SAPC   C24 3436   6.530   0.610   6.910 -0.1830 -0.5212 -0.0199
   26SAPC   H4R 3437   6.556   0.704   6.856 -2.6515 -0.8642 -1.9983
   26SAPC   H4S 3438   6.617   0.562   6.960  0.7816  0.9865 -0.1849
   26SAPC   C25 3439   6.413   0.637   6.991 -0.5860  0.5427  0.2013
   26SAPC   H5R 3440   6.327   0.672   6.933 -0.7383  0.2260  0.2380
   26SAPC   C26 3441   6.401   0.608   7.118 -0.1004  0.3131 -0.0703
   26SAPC   H6R 3442   6.303   0.635   7.160 -0.4458 -2.2164  0.9274
   26SAPC   C27 3443   6.498   0.540   7.212  0.7509 -0.2569  0.5151
   26SAPC   H7R 3444   6.568   0.469   7.162 -0.9444 -1.8423  0.2894
   26SAPC   H7S 3445   6.442   0.477   7.284 -2.3945  1.6408 -0.0634
   26SAPC   C28 3446   6.584   0.641   7.285  0.4535 -0.0065  0.1261
   26SAPC   H8R 3447   6.634   0.714   7.221 -2.6341  2.3489  0.1673
   26SAPC   C29 3448   6.581   0.645   7.416  0.2099 -0.4028 -0.0625
   26SAPC   H9R 3449   6.652   0.712   7.468  0.2826 -0.0823 -0.5665
   26SAPC  C210 3450   6.483   0.565   7.508 -0.0586 -0.3958  0.6144
   26SAPC  H10R 3451   6.392   0.533   7.451  0.9267 -1.1042 -0.6120
   26SAPC  H10S 3452   6.446   0.639   7.581  0.3865 -1.0059  1.4707
   26SAPC  C211 3453   6.540   0.458   7.584 -1.0382  0.6761 -0.9139
   26SAPC  H11R 3454   6.550   0.361   7.533 -0.2112  0.6192 -0.6556
   26SAPC  C212 3455   6.592   0.450   7.714 -0.3520  0.4695 -0.5452
   26SAPC  H12R 3456   6.630   0.352   7.746  0.4203  0.3385 -1.7765
   26SAPC  C213 3457   6.603   0.566   7.815 -0.4585  0.2997 -0.0444
   26SAPC  H13R 3458   6.618   0.654   7.750  0.6490  0.3708  0.2946
   26SAPC  H13S 3459   6.705   0.551   7.854 -0.6406 -0.4426  0.1639
   26SAPC  C214 3460   6.490   0.576   7.920 -0.3139  0.6292 -0.3303
   26SAPC  H14R 3461   6.415   0.496   7.923  0.4517 -0.0829  0.4625
   26SAPC  C215 3462   6.481   0.666   8.011 -0.0435  0.0213  0.0852
   26SAPC  H15R 3463   6.390   0.665   8.073  2.1413 -2.6673  3.7064
   26SAPC  C216 3464   6.573   0.774   8.047  0.2236 -0.9313  0.1044
   26SAPC  H16R 3465   6.522   0.873   8.047  0.4907 -0.7948 -0.2308
   26SAPC  H16S 3466   6.651   0.783   7.969 -0.6566  1.6444 -0.6009
   26SAPC  C217 3467   6.644   0.764   8.183  0.4981  0.5779 -0.5601
   26SAPC  H17R 3468   6.732   0.697   8.174  2.1166  2.3155  1.2798
   26SAPC  H17S 3469   6.576   0.728   8.263  0.2376 -1.4370 -1.6098
   26SAPC  C218 3470   6.693   0.905   8.238 -0.1489 -0.2667  0.7372
   26SAPC  H18R 3471   6.602   0.967   8.256 -0.5485 -1.2232  2.0927
   26SAPC  H18S 3472   6.756   0.951   8.158  1.5180 -0.6623  1.7698
   26SAPC  C219 3473   6.779   0.893   8.363 -0.2277  0.4121  0.0515
   26SAPC  H19R 3474   6.747   0.802   8.418  1.7971 -0.3223  0.0949
   26SAPC  H19S 3475   6.748   0.975   8.432 -1.7814 -0.8679  0.9442
   26SAPC  C220 3476   6.930   0.898   8.329 -0.2229 -0.1318 -0.0517
   26SAPC  H20R 3477   6.965   1.003   8.316  2.6696 -1.1951 -2.0005
   26SAPC  H20S 3478   6.940   0.847   8.230 -4.7414 -0.3138 -0.6018
   26SAPC  H20T 3479   6.987   0.839   8.405  0.0401  0.5785  0.3077
   26SAPC   C33 3480   6.262   0.980   7.194  0.8501 -0.1815  0.5355
   26SAPC   H3X 3481   6.226   0.875   7.206 -0.1307  0.0575 -0.2352
   26SAPC   H3Y 3482   6.178   1.052   7.204  1.0610  0.5842 -2.3370
   26SAPC   C34 3483   6.369   0.986   7.305  0.2909 -0.4676  0.6786
   26SAPC   H4X 3484   6.465   1.032   7.273 -0.2224 -1.3776 -2.4387
   26SAPC   H4Y 3485   6.404   0.887   7.342  3.1787 -0.2391 -1.1679
   26SAPC   C35 3486   6.311   1.072   7.416  0.1728 -0.7143 -0.5279
   26SAPC   H5X 3487   6.371   1.040   7.504 -2.2647 -1.4879  0.9284
   26SAPC   H5Y 3488   6.203   1.068   7.440  0.0585  4.3799  1.0689
   26SAPC   C36 3489   6.332   1.226   7.401 -0.6587  1.0438 -0.2685
   26SAPC   H6X 3490   6.279   1.272   7.315  1.2163  0.5538 -1.7526
   26SAPC   H6Y 3491   6.441   1.231   7.384 -0.1363 -2.2919  1.3507
   26SAPC   C37 3492   6.299   1.304   7.525  0.5587  0.7128 -0.0441
   26SAPC   H7X 3493   6.359   1.247   7.600  1.3045  1.3417 -0.1520
   26SAPC   H7Y 3494   6.194   1.293   7.558  0.5854  3.6154  1.2666
   26SAPC   C38 3495   6.341   1.451   7.529  0.4276  0.2696 -0.3911
   26SAPC   H8X 3496   6.272   1.509   7.465 -0.9903 -0.5906  0.3210
   26SAPC   H8Y 3497   6.447   1.462   7.497  1.1140  3.4479  2.3660
   26SAPC   C39 3498   6.332   1.491   7.675  0.1939 -0.0044  0.7422
   26SAPC   H9X 3499   6.408   1.432   7.731  0.0795  0.8048  1.7843
   26SAPC   H9Y 3500   6.235   1.467   7.723  0.4314 -0.2026  1.1312
   26SAPC  C310 3501   6.353   1.641   7.683  0.2257 -0.3265 -0.2582
   26SAPC  H10X 3502   6.266   1.694   7.638  0.8619  1.2209  0.2385
   26SAPC  H10Y 3503   6.445   1.667   7.625  0.6608 -0.9743  0.1359
   26SAPC  C311 3504   6.385   1.699   7.828  0.4849  0.2486  0.4790
   26SAPC  H11X 3505   6.388   1.809   7.810 -0.5251  0.8364  3.4189
   26SAPC  H11Y 3506   6.485   1.662   7.862  0.6751 -0.7932 -1.1089
   26SAPC  C312 3507   6.267   1.668   7.919  0.0661 -0.2440 -0.5275
   26SAPC  H12X 3508   6.237   1.561   7.929  0.3407 -0.2647  0.1254
   26SAPC  H12Y 3509   6.173   1.708   7.875 -1.8317 -2.9813  0.7099
   26SAPC  C313 3510   6.286   1.719   8.063  0.1549  0.3854 -0.3170
   26SAPC  H13X 3511   6.299   1.828   8.045  1.9941  0.1877 -0.3930
   26SAPC  H13Y 3512   6.385   1.685   8.100 -0.8004 -1.9638  0.2453
   26SAPC  C314 3513   6.179   1.677   8.168 -0.8845 -0.1493  0.3759
   26SAPC  H14X 3514   6.169   1.567   8.180 -1.3459 -0.0927  0.5653
   26SAPC  H14Y 3515   6.077   1.696   8.128 -0.4121 -2.3801 -2.1980
   26SAPC  C315 3516   6.206   1.742   8.302  0.1636  0.4390  0.5553
   26SAPC  H15X 3517   6.205   1.853   8.294  0.6041  0.3367 -1.5767
   26SAPC  H15Y 3518   6.306   1.717   8.345  1.3083  2.0593 -0.9962
   26SAPC  C316 3519   6.099   1.707   8.403 -0.4626  0.4232  0.0992
   26SAPC  H16X 3520   6.094   1.598   8.426 -0.0730 -0.0369 -1.7790
   26SAPC  H16Y 3521   6.003   1.729   8.352 -0.5588 -0.8218 -0.3011
   26SAPC  C317 3522   6.116   1.786   8.537 -0.2158  0.1695  0.6022
   26SAPC  H17X 3523   6.014   1.774   8.581 -0.6921  0.9531 -0.2501
   26SAPC  H17Y 3524   6.127   1.894   8.517 -2.4146  0.2342 -0.6708
   26SAPC  C318 3525   6.231   1.729   8.619 -0.2632  0.2885  0.0182
   26SAPC  H18X 3526   6.254   1.792   8.708 -2.2571 -0.4365  1.1101
   26SAPC  H18Y 3527   6.313   1.704   8.548 -2.3850 -2.1271 -1.7609
   26SAPC  H18Z 3528   6.206   1.630   8.663  0.5542  0.2845  0.4888
   27SAPC     N 3529   3.620   0.333   6.359 -0.4081  0.2897 -0.3635
   27SAPC   C12 3530   3.751   0.257   6.395 -0.1126  0.3064 -0.0151
   27SAPC  H12A 3531   3.824   0.271   6.317 -0.4860  2.0121 -0.1002
   27SAPC  H12B 3532   3.726   0.152   6.399  1.8951 -0.2945 -1.6071
   27SAPC   C13 3533   3.516   0.323   6.464  0.1784  0.0069  0.7678
   27SAPC  H13A 3534   3.512   0.225   6.509  2.0885 -0.0088  0.9838
   27SAPC  H13B 3535   3.536   0.380   6.553 -0.5625 -1.0540  1.6390
   27SAPC  H13C 3536   3.414   0.338   6.432  0.1710  0.4611  0.9952
   27SAPC   C14 3537   3.653   0.477   6.329  0.2077  0.3169 -0.2688
   27SAPC  H14A 3538   3.559   0.520   6.299 -1.3510 -2.3960  0.4003
   27SAPC  H14B 3539   3.677   0.507   6.430 -3.6095 -1.7325  1.4801
   27SAPC  H14C 3540   3.738   0.493   6.265  0.7214  0.2736  0.3819
   27SAPC   C15 3541   3.568   0.283   6.225  0.0835 -0.1599  0.5433
   27SAPC  H15A 3542   3.635   0.305   6.143 -1.5667  0.2368 -0.7529
   27SAPC  H15B 3543   3.550   0.177   6.224  0.1531 -0.1707  0.2063
   27SAPC  H15C 3544   3.472   0.320   6.192  0.1439 -1.6483 -1.4429
   27SAPC   C11 3545   3.822   0.289   6.528  0.6256 -0.4726  0.7291
   27SAPC  H11A 3546   3.850   0.396   6.518  0.5051 -0.5284 -0.3550
   27SAPC  H11B 3547   3.913   0.227   6.539  0.0552 -1.5288 -0.2825
   27SAPC     P 3548   3.699   0.140   6.703  0.0604 -0.5919 -0.1656
   27SAPC   O13 3549   3.572   0.157   6.778  0.0084 -0.2524  0.2570
   27SAPC   O14 3550   3.696   0.041   6.594  0.3517  0.6777  0.4584
   27SAPC   O12 3551   3.740   0.273   6.638 -0.0910  0.0170  0.0593
   27SAPC   O11 3552   3.807   0.106   6.806 -0.3649 -0.0040 -0.2196
   27SAPC    C1 3553   3.863   0.205   6.891  0.1293 -0.2137 -0.1729
   27SAPC    HA 3554   3.838   0.304   6.847  0.3823 -0.3315 -0.5914
   27SAPC    HB 3555   3.812   0.198   6.989 -1.3974  0.3945 -0.8862
   27SAPC    C2 3556   4.019   0.186   6.903 -0.1190  0.6999  0.4282
   27SAPC    HS 3557   4.057   0.190   6.799 -1.9085 -0.7897 -0.3297
   27SAPC   O21 3558   4.050   0.066   6.976  0.3241 -0.2986  0.1215
   27SAPC   C21 3559   4.063  -0.039   6.890  0.3187  0.1697 -0.2345
   27SAPC   O22 3560   4.056  -0.030   6.765 -0.5229 -0.7802 -0.5664
   27SAPC   C22 3561   4.080  -0.163   6.969 -0.1392  0.1982  0.1570
   27SAPC   H2R 3562   4.139  -0.139   7.060  0.4720 -0.2084 -0.1281
   27SAPC   H2S 3563   3.982  -0.211   6.989 -0.1059 -0.2131 -0.6201
   27SAPC    C3 3564   4.089   0.300   6.983 -1.2075  0.3343  0.2330
   27SAPC    HX 3565   4.058   0.400   6.945 -0.0469  0.2719 -0.9814
   27SAPC    HY 3566   4.199   0.306   6.969 -1.2315  1.2746  0.3635
   27SAPC   O31 3567   4.052   0.282   7.121  0.1916  0.4367  0.3459
   27SAPC   C31 3568   4.135   0.211   7.194  0.6032  0.7709 -0.1481
   27SAPC   O32 3569   4.239   0.161   7.162  0.1373  0.0774 -0.0385
   27SAPC   C32 3570   4.081   0.201   7.337  0.5504  0.1272  0.2228
   27SAPC   H2X 3571   3.984   0.147   7.334  0.3496  0.4908  0.1387
   27SAPC   H2Y 3572   4.061   0.305   7.371 -1.6873 -0.7676  1.8908
   27SAPC   C23 3573   4.154  -0.275   6.889 -1.0470 -0.1011  0.3173
   27SAPC   H3R 3574   4.246  -0.225   6.853 -1.5588 -0.7588 -2.0920
   27SAPC   H3S 3575   4.090  -0.302   6.802 -1.1921  0.4967  0.2366
   27SAPC   C24 3576   4.183  -0.407   6.963  0.4201  0.0851 -0.5758
   27SAPC   H4R 3577   4.223  -0.483   6.893  0.3010 -1.0919  0.5849
   27SAPC   H4S 3578   4.096  -0.462   7.005  1.4138 -0.6688  0.5508
   27SAPC   C25 3579   4.285  -0.388   7.072  0.5131 -0.3477 -0.1443
   27SAPC   H5R 3580   4.386  -0.386   7.029  0.7233  3.1362  0.2263
   27SAPC   C26 3581   4.255  -0.378   7.202  0.1967 -0.7229 -0.1854
   27SAPC   H6R 3582   4.333  -0.386   7.279  0.3210  1.1001 -0.0917
   27SAPC   C27 3583   4.110  -0.390   7.260  0.3805  0.3806 -0.0967
   27SAPC   H7R 3584   4.044  -0.344   7.184  1.7644  1.1439 -0.8719
   27SAPC   H7S 3585   4.116  -0.315   7.342 -2.0697  1.1701 -0.5501
   27SAPC   C28 3586   4.064  -0.527   7.291  0.6487  0.5334 -0.0165
   27SAPC   H8R 3587   4.066  -0.589   7.200  1.8864 -0.2241  0.4906
   27SAPC   C29 3588   4.027  -0.572   7.413  0.4819 -1.0846 -0.3951
   27SAPC   H9R 3589   3.999  -0.677   7.432  0.2682 -0.9154  0.2496
   27SAPC  C210 3590   4.039  -0.490   7.534  0.1827  0.1415  0.2008
   27SAPC  H10R 3591   3.976  -0.533   7.615 -1.6337  1.4932 -0.4308
   27SAPC  H10S 3592   3.974  -0.401   7.517 -0.8449 -0.6059  0.1368
   27SAPC  C211 3593   4.172  -0.452   7.587 -0.1046  0.5792  0.2933
   27SAPC  H11R 3594   4.239  -0.420   7.505 -0.9110  2.5389  0.3477
   27SAPC  C212 3595   4.209  -0.444   7.718 -0.2576  1.3101 -0.4962
   27SAPC  H12R 3596   4.314  -0.417   7.738 -0.0250 -0.2372  0.5679
   27SAPC  C213 3597   4.130  -0.475   7.839 -0.1119  0.0936 -0.8327
   27SAPC  H13R 3598   4.178  -0.534   7.920  0.1507 -0.0088 -1.0604
   27SAPC  H13S 3599   4.047  -0.544   7.813 -0.2935 -0.7180  1.6808
   27SAPC  C214 3600   4.063  -0.351   7.899 -0.4637  0.2100  0.1620
   27SAPC  H14R 3601   4.022  -0.268   7.839 -0.0824  1.0445  1.0193
   27SAPC  C215 3602   4.020  -0.342   8.028  0.1539  0.1170  0.2716
   27SAPC  H15R 3603   3.958  -0.259   8.066  1.0274  1.2675 -0.7540
   27SAPC  C216 3604   4.036  -0.456   8.126 -0.0177  0.2235 -0.3547
   27SAPC  H16R 3605   4.038  -0.548   8.064  1.1263  1.9064 -3.0000
   27SAPC  H16S 3606   3.959  -0.461   8.205  0.9734  3.1685  0.9173
   27SAPC  C217 3607   4.172  -0.436   8.204  0.4019  0.1408 -0.2309
   27SAPC  H17R 3608   4.177  -0.338   8.256  0.3958  0.2807 -0.4939
   27SAPC  H17S 3609   4.255  -0.441   8.131  0.0901  1.1959 -0.6820
   27SAPC  C218 3610   4.170  -0.543   8.312 -0.2226  0.5346  0.6120
   27SAPC  H18R 3611   4.128  -0.638   8.273 -0.0413  1.1088 -1.0607
   27SAPC  H18S 3612   4.115  -0.501   8.399 -1.0497  0.7544 -0.0077
   27SAPC  C219 3613   4.316  -0.580   8.366 -0.5824 -0.1587 -0.3605
   27SAPC  H19R 3614   4.316  -0.614   8.472  1.7361  0.8940  0.0550
   27SAPC  H19S 3615   4.366  -0.481   8.363 -0.8801  0.0071 -0.0069
   27SAPC  C220 3616   4.394  -0.678   8.281 -0.1209 -0.0117  0.7754
   27SAPC  H20R 3617   4.504  -0.667   8.296 -0.3296 -0.5497  3.0579
   27SAPC  H20S 3618   4.367  -0.667   8.173 -0.3446  3.6243  1.1048
   27SAPC  H20T 3619   4.359  -0.781   8.306 -0.0670  0.4786  3.0330
   27SAPC   C33 3620   4.176   0.147   7.441 -0.5471  0.7939 -0.5044
   27SAPC   H3X 3621   4.141   0.171   7.544  1.1993 -2.7422  1.0805
   27SAPC   H3Y 3622   4.277   0.191   7.431 -0.1191  0.3543  1.4653
   27SAPC   C34 3623   4.179  -0.004   7.442 -0.3109 -0.1778  0.2024
   27SAPC   H4X 3624   4.228  -0.046   7.352 -0.6760 -0.4877  0.1471
   27SAPC   H4Y 3625   4.075  -0.042   7.436 -0.6658  0.9075 -0.7573
   27SAPC   C35 3626   4.245  -0.065   7.562  0.5353 -0.1664 -0.3471
   27SAPC   H5X 3627   4.345  -0.019   7.581 -0.2001  1.1369  0.4841
   27SAPC   H5Y 3628   4.264  -0.172   7.537 -1.5776 -0.7093  0.1996
   27SAPC   C36 3629   4.162  -0.060   7.694 -0.2472  0.6315  0.5017
   27SAPC   H6X 3630   4.167  -0.166   7.728  0.9953  0.2717 -0.6914
   27SAPC   H6Y 3631   4.055  -0.039   7.670  0.2008 -0.4916 -2.9994
   27SAPC   C37 3632   4.215   0.025   7.805  0.5323 -0.4411 -0.2937
   27SAPC   H7X 3633   4.226   0.131   7.774 -0.9966 -0.8163 -2.2675
   27SAPC   H7Y 3634   4.317  -0.005   7.839  0.7944  0.4767 -0.2518
   27SAPC   C38 3635   4.117   0.024   7.924  0.1937  0.5221  0.1310
   27SAPC   H8X 3636   4.108  -0.075   7.973 -1.5406  0.3270 -0.5139
   27SAPC   H8Y 3637   4.017   0.053   7.885  0.6034  0.9867 -0.5983
   27SAPC   C39 3638   4.164   0.130   8.020  0.1400  0.0970  0.5594
   27SAPC   H9X 3639   4.071   0.184   8.051 -0.3426 -0.6339  0.4143
   27SAPC   H9Y 3640   4.225   0.205   7.966 -1.4502  0.9243 -0.1715
   27SAPC  C310 3641   4.249   0.085   8.132  0.3483 -0.2853 -0.1643
   27SAPC  H10X 3642   4.277   0.172   8.195  1.7149 -0.4771 -0.4692
   27SAPC  H10Y 3643   4.348   0.055   8.092  1.1246  1.0799  0.6506
   27SAPC  C311 3644   4.178  -0.008   8.229  0.3216 -0.0521  0.6870
   27SAPC  H11X 3645   4.185  -0.109   8.184 -0.5051  0.1654  0.0297
   27SAPC  H11Y 3646   4.069   0.013   8.241  0.1254 -0.9372  0.5332
   27SAPC  C312 3647   4.241   0.001   8.367  0.4949 -0.2497 -0.4737
   27SAPC  H12X 3648   4.211   0.095   8.418 -0.4941 -1.2642  0.9022
   27SAPC  H12Y 3649   4.352   0.008   8.365  0.6525 -0.3486  2.6856
   27SAPC  C313 3650   4.214  -0.127   8.458 -0.0068 -0.0947 -0.0130
   27SAPC  H13X 3651   4.257  -0.103   8.558 -1.2972 -1.0996  0.8179
   27SAPC  H13Y 3652   4.276  -0.209   8.416 -0.4569 -0.5945  0.2703
   27SAPC  C314 3653   4.063  -0.157   8.469 -0.3000 -0.3510 -0.4850
   27SAPC  H14X 3654   4.048  -0.240   8.541  1.6248 -0.0764  0.2855
   27SAPC  H14Y 3655   4.022  -0.194   8.373 -0.1337 -2.6672  0.2797
   27SAPC  C315 3656   3.970  -0.039   8.515 -0.9160  0.0571 -0.6320
   27SAPC  H15X 3657   3.984   0.047   8.445  0.7464  1.8995  1.8053
   27SAPC  H15Y 3658   3.997  -0.003   8.616 -0.1930  0.6454 -1.0249
   27SAPC  C316 3659   3.827  -0.083   8.534  0.4191  0.1698  0.4316
   27SAPC  H16X 3660   3.814  -0.175   8.595 -2.2752 -0.5791 -1.0954
   27SAPC  H16Y 3661   3.794  -0.115   8.433 -1.3521 -1.9447  1.5880
   27SAPC  C317 3662   3.733   0.028   8.591 -0.1533  0.5209 -0.1104
   27SAPC  H17X 3663   3.760   0.124   8.541  0.5658  0.6545  0.5162
   27SAPC  H17Y 3664   3.742   0.042   8.701  0.8744 -2.2420  0.2345
   27SAPC  C318 3665   3.589  -0.014   8.560  0.5575  0.3868  0.1581
   27SAPC  H18X 3666   3.518   0.054   8.612  0.5578  0.3290  0.2344
   27SAPC  H18Y 3667   3.577  -0.122   8.583  0.8777 -0.2479 -2.3906
   27SAPC  H18Z 3668   3.559  -0.010   8.454 -1.1492 -0.2448  0.5798
   28SAPC     N 3669   3.300   6.040   6.240 -0.6345 -0.5636 -0.5933
   28SAPC   C12 3670   3.174   6.014   6.163 -0.3590  0.4858  0.3225
   28SAPC  H12A 3671   3.171   6.081   6.078  3.2703  2.8514  1.8265
   28SAPC  H12B 3672   3.100   6.040   6.237 -1.3141  1.4321 -0.9021
   28SAPC   C13 3673   3.420   5.978   6.168 -0.4592  0.3759  0.1042
   28SAPC  H13A 3674   3.431   6.021   6.069  0.8790  0.6297  0.3369
   28SAPC  H13B 3675   3.513   6.003   6.218 -0.3434 -0.0009  0.0788
   28SAPC  H13C 3676   3.411   5.871   6.160  0.7360  0.2361  0.4576
   28SAPC   C14 3677   3.325   6.190   6.261 -0.0899 -0.3717  0.1388
   28SAPC  H14A 3678   3.365   6.238   6.173 -0.4764 -2.0722 -1.0127
   28SAPC  H14B 3679   3.239   6.240   6.301  0.5666  1.2641 -0.4223
   28SAPC  H14C 3680   3.403   6.200   6.334 -1.5448 -2.0777  2.0428
   28SAPC   C15 3681   3.280   5.972   6.373  0.4288 -0.1888  0.0562
   28SAPC  H15A 3682   3.200   6.022   6.426 -0.6669  0.7450 -2.3053
   28SAPC  H15B 3683   3.234   5.878   6.348  0.2948  0.0667 -0.6780
   28SAPC  H15C 3684   3.374   5.958   6.423  0.0627 -0.7175  0.6063
   28SAPC   C11 3685   3.159   5.860   6.137  0.0082 -0.1943  0.5481
   28SAPC  H11A 3686   3.245   5.827   6.075 -1.3444 -0.9255 -1.0412
   28SAPC  H11B 3687   3.074   5.846   6.066 -1.1783  1.5705  1.5515
   28SAPC     P 3688   2.995   5.747   6.314  0.2027 -0.0963  0.2633
   28SAPC   O13 3689   2.902   5.859   6.272 -0.3733  0.6765  0.0926
   28SAPC   O14 3690   2.957   5.605   6.291 -0.2829  0.1584 -0.5547
   28SAPC   O12 3691   3.137   5.774   6.244  0.6759  0.1338  0.0756
   28SAPC   O11 3692   3.037   5.767   6.465 -0.0387  0.4556  0.3082
   28SAPC    C1 3693   3.110   5.658   6.523  0.0428 -0.2248  0.1519
   28SAPC    HA 3694   3.186   5.607   6.460  1.0104  1.7594 -0.3915
   28SAPC    HB 3695   3.171   5.696   6.608 -0.9273  2.3691 -0.2056
   28SAPC    C2 3696   3.018   5.543   6.582  0.0962  0.2885 -0.7722
   28SAPC    HS 3697   2.950   5.508   6.502 -0.5599  1.5065 -0.7766
   28SAPC   O21 3698   2.943   5.592   6.698 -0.4963 -0.8600 -0.1107
   28SAPC   C21 3699   2.873   5.516   6.772 -0.2446 -0.1760 -0.8993
   28SAPC   O22 3700   2.864   5.393   6.760 -0.6842 -0.7253  0.1459
   28SAPC   C22 3701   2.804   5.597   6.883 -0.0011 -0.1473  0.0811
   28SAPC   H2R 3702   2.878   5.677   6.905  2.2724 -2.1296  0.0025
   28SAPC   H2S 3703   2.722   5.649   6.828  0.6951 -0.1742 -1.0014
   28SAPC    C3 3704   3.111   5.430   6.608  0.1020  0.1344  0.4306
   28SAPC    HX 3705   3.150   5.403   6.507  0.6786 -1.0048  0.9382
   28SAPC    HY 3706   3.057   5.341   6.647  1.3007 -0.4607  0.7883
   28SAPC   O31 3707   3.213   5.474   6.697  0.0351 -0.2126  0.5192
   28SAPC   C31 3708   3.330   5.408   6.703  0.5542  0.3456  0.2131
   28SAPC   O32 3709   3.361   5.320   6.618  0.0439  0.2264 -0.5097
   28SAPC   C32 3710   3.405   5.445   6.840  0.9638 -0.0094  0.3629
   28SAPC   H2X 3711   3.328   5.487   6.909 -0.9594  0.1794 -1.7731
   28SAPC   H2Y 3712   3.473   5.526   6.807  0.6068  1.1713  2.3609
   28SAPC   C23 3713   2.752   5.503   6.997  0.5065 -0.8259  0.7223
   28SAPC   H3R 3714   2.845   5.472   7.050  1.0354 -1.1270 -0.3451
   28SAPC   H3S 3715   2.701   5.416   6.951  1.6011 -0.6576 -0.9217
   28SAPC   C24 3716   2.641   5.568   7.080  0.3657  0.7035  0.2661
   28SAPC   H4R 3717   2.561   5.608   7.013  1.6093 -0.1256 -1.8236
   28SAPC   H4S 3718   2.606   5.483   7.142 -2.0413  0.7814 -0.8614
   28SAPC   C25 3719   2.694   5.680   7.168  0.2503  0.5457  0.4887
   28SAPC   H5R 3720   2.703   5.780   7.122 -0.3208 -0.0572 -0.9788
   28SAPC   C26 3721   2.757   5.668   7.290 -0.0282  0.2366  0.6670
   28SAPC   H6R 3722   2.798   5.750   7.350  0.7431  0.4547 -0.1437
   28SAPC   C27 3723   2.765   5.533   7.366 -0.1408 -0.5275  0.0621
   28SAPC   H7R 3724   2.867   5.531   7.409  0.6186  0.1183 -1.6487
   28SAPC   H7S 3725   2.760   5.444   7.299  0.4784  0.6609 -1.6268
   28SAPC   C28 3726   2.660   5.508   7.476 -0.2294 -0.2027 -0.0464
   28SAPC   H8R 3727   2.563   5.476   7.437  0.3201 -1.9697 -0.0311
   28SAPC   C29 3728   2.678   5.506   7.610  1.0197 -0.2314  0.4873
   28SAPC   H9R 3729   2.591   5.488   7.674  0.3947 -0.1233 -0.3220
   28SAPC  C210 3730   2.812   5.517   7.687 -0.3801  0.0640  0.2670
   28SAPC  H10R 3731   2.791   5.606   7.751  2.9368  2.7012 -1.9792
   28SAPC  H10S 3732   2.894   5.549   7.619 -2.4560 -1.7954 -3.4131
   28SAPC  C211 3733   2.861   5.397   7.769  0.4628 -0.0965  0.4873
   28SAPC  H11R 3734   2.907   5.314   7.714 -1.2617 -0.9310  0.2295
   28SAPC  C212 3735   2.859   5.371   7.901  0.1336  0.0356 -0.3508
   28SAPC  H12R 3736   2.906   5.280   7.940  0.9570  0.0784 -1.2235
   28SAPC  C213 3737   2.795   5.461   8.009  0.2557 -0.2443 -0.6137
   28SAPC  H13R 3738   2.726   5.535   7.963  0.6631  0.7609  0.3509
   28SAPC  H13S 3739   2.872   5.529   8.051  2.3391 -1.9065 -1.5453
   28SAPC  C214 3740   2.738   5.378   8.121 -0.7519 -0.0445 -0.5028
   28SAPC  H14R 3741   2.630   5.356   8.121 -0.5530 -1.1435 -1.5777
   28SAPC  C215 3742   2.810   5.326   8.224  0.0512  0.5340  0.4621
   28SAPC  H15R 3743   2.752   5.288   8.309  0.9627  0.7159  1.1694
   28SAPC  C216 3744   2.961   5.333   8.238 -0.1009  0.1556 -0.0351
   28SAPC  H16R 3745   3.014   5.350   8.142 -0.1349  2.0652  0.2397
   28SAPC  H16S 3746   3.000   5.239   8.281  0.5370  0.6349  0.4497
   28SAPC  C217 3747   3.014   5.438   8.335 -0.2582 -0.6667 -0.1892
   28SAPC  H17R 3748   2.986   5.417   8.440  0.2982  0.1174  0.1275
   28SAPC  H17S 3749   2.974   5.537   8.305  1.8759  0.5533  0.7301
   28SAPC  C218 3750   3.164   5.468   8.314 -0.5017 -0.1577  0.6855
   28SAPC  H18R 3751   3.183   5.571   8.351 -1.7040  0.4177 -0.2337
   28SAPC  H18S 3752   3.188   5.470   8.205  0.3786  0.6835  0.8797
   28SAPC  C219 3753   3.261   5.377   8.396  0.6355 -0.1189 -0.4909
   28SAPC  H19R 3754   3.252   5.270   8.365  2.7131 -1.8387  3.9807
   28SAPC  H19S 3755   3.234   5.377   8.504 -3.4955  1.1281 -1.3533
   28SAPC  C220 3756   3.402   5.427   8.380  0.2318  0.1594 -0.2923
   28SAPC  H20R 3757   3.480   5.377   8.442  0.7926  1.3842  0.0236
   28SAPC  H20S 3758   3.408   5.537   8.395  0.1641  0.1601 -0.2691
   28SAPC  H20T 3759   3.430   5.415   8.273 -0.1136 -0.1045 -0.3517
   28SAPC   C33 3760   3.485   5.325   6.893 -0.9452  0.2572 -0.4840
   28SAPC   H3X 3761   3.524   5.272   6.804 -1.3894  1.3530 -1.3480
   28SAPC   H3Y 3762   3.408   5.263   6.943 -0.8829  0.5685  0.0045
   28SAPC   C34 3763   3.589   5.366   7.000 -0.4107  0.5804  0.1738
   28SAPC   H4X 3764   3.676   5.423   6.963  1.6042 -1.2715  1.8200
   28SAPC   H4Y 3765   3.622   5.261   7.017 -3.1114 -0.4965 -0.6074
   28SAPC   C35 3766   3.526   5.428   7.126 -0.9770 -0.3232 -0.7007
   28SAPC   H5X 3767   3.439   5.371   7.165 -0.9892  0.2197  0.0981
   28SAPC   H5Y 3768   3.492   5.526   7.085  3.6354  1.7680 -0.2922
   28SAPC   C36 3769   3.633   5.458   7.233  0.2408  0.0176 -0.3061
   28SAPC   H6X 3770   3.668   5.561   7.214 -2.1447  0.4998 -2.5798
   28SAPC   H6Y 3771   3.714   5.381   7.229  0.2545  0.0719 -1.2923
   28SAPC   C37 3772   3.586   5.449   7.380 -0.3357  0.1698 -0.8522
   28SAPC   H7X 3773   3.584   5.348   7.426  2.8068  0.8052  1.0220
   28SAPC   H7Y 3774   3.480   5.476   7.399 -0.1360 -0.6808  2.0144
   28SAPC   C38 3775   3.678   5.528   7.480  0.0763 -0.2488 -0.1069
   28SAPC   H8X 3776   3.665   5.638   7.470  0.2639 -0.3763 -2.2910
   28SAPC   H8Y 3777   3.785   5.510   7.456  0.3367 -0.2178  0.9841
   28SAPC   C39 3778   3.650   5.474   7.620 -0.4316  0.1456 -0.2605
   28SAPC   H9X 3779   3.667   5.364   7.626  2.1651  0.3689 -2.0156
   28SAPC   H9Y 3780   3.541   5.489   7.634 -0.8413 -0.5513 -2.2804
   28SAPC  C310 3781   3.730   5.548   7.732 -0.2305  0.2046 -0.0178
   28SAPC  H10X 3782   3.719   5.658   7.719  0.1693  0.1368 -1.0956
   28SAPC  H10Y 3783   3.836   5.516   7.721 -0.1923  0.9057 -2.4575
   28SAPC  C311 3784   3.688   5.483   7.868 -0.2674 -0.0588  1.2421
   28SAPC  H11X 3785   3.693   5.372   7.862 -0.6299 -0.0034 -1.2200
   28SAPC  H11Y 3786   3.581   5.513   7.878 -0.8368 -1.2306 -0.7477
   28SAPC  C312 3787   3.786   5.533   7.972 -0.0447 -0.3163 -0.4354
   28SAPC  H12X 3788   3.775   5.643   7.976 -4.1860 -0.5472 -0.5215
   28SAPC  H12Y 3789   3.890   5.494   7.962  0.1407 -0.3511  1.2852
   28SAPC  C313 3790   3.733   5.483   8.107 -0.1921  0.5693 -0.2560
   28SAPC  H13X 3791   3.623   5.466   8.103 -0.2422  0.4173  1.1613
   28SAPC  H13Y 3792   3.749   5.553   8.192 -0.5246 -0.5582  0.7560
   28SAPC  C314 3793   3.809   5.354   8.150 -0.0428  0.0337 -0.3016
   28SAPC  H14X 3794   3.918   5.376   8.152  0.2562 -1.3455  1.2821
   28SAPC  H14Y 3795   3.783   5.269   8.084  0.3710  0.6066 -1.2083
   28SAPC  C315 3796   3.769   5.319   8.289  0.3797  0.1879 -0.4420
   28SAPC  H15X 3797   3.663   5.285   8.292  0.8299 -1.2604  1.4605
   28SAPC  H15Y 3798   3.761   5.406   8.357 -1.2262 -1.4544  1.6140
   28SAPC  C316 3799   3.844   5.208   8.361 -0.2934  0.2929  0.0607
   28SAPC  H16X 3800   3.951   5.226   8.340 -0.1060 -1.1202 -0.3099
   28SAPC  H16Y 3801   3.826   5.117   8.299 -1.5579 -0.0557  0.8862
   28SAPC  C317 3802   3.811   5.201   8.511 -0.0329  0.5982  0.5189
   28SAPC  H17X 3803   3.710   5.156   8.515 -0.1849  0.8802 -0.0858
   28SAPC  H17Y 3804   3.804   5.298   8.565  2.1172  0.4922  1.0816
   28SAPC  C318 3805   3.904   5.104   8.590  0.3849 -0.1450 -0.5304
   28SAPC  H18X 3806   3.989   5.159   8.637  0.4511  0.3585 -1.2221
   28SAPC  H18Y 3807   3.946   5.027   8.523 -0.8117 -1.8048  0.5639
   28SAPC  H18Z 3808   3.862   5.036   8.667  1.4870 -0.0260  0.2116
   29SAPC     N 3809   6.716   1.640   6.097  0.5659  0.5657 -0.0718
   29SAPC   C12 3810   6.635   1.764   6.139  0.2311 -0.3172  0.0369
   29SAPC  H12A 3811   6.693   1.856   6.148 -2.1469  1.3023 -0.3320
   29SAPC  H12B 3812   6.597   1.742   6.237  0.9696 -2.4294 -0.0959
   29SAPC   C13 3813   6.826   1.619   6.193  0.0781 -0.0467  0.7274
   29SAPC  H13A 3814   6.889   1.540   6.155  1.3421  1.0060  0.5353
   29SAPC  H13B 3815   6.874   1.716   6.203 -0.6780  0.4078  0.0052
   29SAPC  H13C 3816   6.785   1.592   6.289  0.5328 -1.1027  0.6355
   29SAPC   C14 3817   6.626   1.517   6.082  0.3459  0.3269 -0.9820
   29SAPC  H14A 3818   6.584   1.510   5.982 -1.4052 -0.9151 -0.2054
   29SAPC  H14B 3819   6.689   1.429   6.083  0.6727  0.5585 -1.0304
   29SAPC  H14C 3820   6.539   1.526   6.145 -0.1212 -0.0614 -1.5562
   29SAPC   C15 3821   6.790   1.669   5.973  0.5475 -0.8224 -0.2571
   29SAPC  H15A 3822   6.838   1.765   5.976  1.6884 -1.3962  0.7409
   29SAPC  H15B 3823   6.864   1.590   5.967  0.8670 -0.6256  0.8556
   29SAPC  H15C 3824   6.725   1.655   5.888  0.4896  1.4817 -0.6394
   29SAPC   C11 3825   6.512   1.804   6.050 -0.4562  0.1640  0.6177
   29SAPC  H11A 3826   6.444   1.716   6.053  1.5970 -1.4812  2.0625
   29SAPC  H11B 3827   6.542   1.817   5.944  0.1499 -1.7203  0.5043
   29SAPC     P 3828   6.322   1.977   6.112 -0.3701  0.1668  0.2929
   29SAPC   O13 3829   6.324   2.117   6.145  0.0837 -0.0353  0.1714
   29SAPC   O14 3830   6.250   1.947   5.985 -0.0831  0.0108  0.4978
   29SAPC   O12 3831   6.473   1.924   6.110 -0.1555 -0.0755 -0.0528
   29SAPC   O11 3832   6.246   1.899   6.233 -0.3682  0.7083  0.4744
   29SAPC    C1 3833   6.280   1.928   6.362 -0.1939  0.7288 -0.2299
   29SAPC    HA 3834   6.275   1.831   6.417 -0.0806  0.1074 -1.2958
   29SAPC    HB 3835   6.385   1.961   6.373 -0.0733 -0.1069  1.5400
   29SAPC    C2 3836   6.172   2.021   6.436 -0.3244  0.2909 -0.0290
   29SAPC    HS 3837   6.174   2.126   6.398  0.8863 -0.1758 -1.3492
   29SAPC   O21 3838   6.175   2.023   6.578 -0.3080 -0.1104 -0.0492
   29SAPC   C21 3839   6.275   2.083   6.624 -0.0279 -1.4598  0.6120
   29SAPC   O22 3840   6.364   2.141   6.562  0.0192  0.3632 -0.1832
   29SAPC   C22 3841   6.275   2.074   6.776  0.3422 -0.0667 -0.0138
   29SAPC   H2R 3842   6.225   2.166   6.814 -1.4016 -1.4059  1.0891
   29SAPC   H2S 3843   6.196   2.000   6.801  1.4002 -1.9162 -1.9046
   29SAPC    C3 3844   6.027   1.975   6.386 -0.6886 -0.0131  0.2952
   29SAPC    HX 3845   6.026   2.013   6.282 -0.2004 -4.3554 -1.4927
   29SAPC    HY 3846   5.950   2.028   6.446  0.3959  0.4687  1.3010
   29SAPC   O31 3847   6.000   1.834   6.382 -0.0955 -0.6978 -0.1534
   29SAPC   C31 3848   5.889   1.799   6.314 -0.3571  0.7950 -0.3574
   29SAPC   O32 3849   5.828   1.871   6.243  0.5265 -0.1998 -0.7845
   29SAPC   C32 3850   5.863   1.650   6.340  0.2368  0.0591 -0.3829
   29SAPC   H2X 3851   5.948   1.612   6.400  0.2963 -0.9657 -1.0775
   29SAPC   H2Y 3852   5.881   1.597   6.244 -0.9184  1.0984 -1.2105
   29SAPC   C23 3853   6.415   2.043   6.834  0.6895  0.2375  0.4317
   29SAPC   H3R 3854   6.484   2.116   6.788  1.2364 -1.8202 -2.2637
   29SAPC   H3S 3855   6.459   1.946   6.802 -1.2463 -1.1069  1.6160
   29SAPC   C24 3856   6.425   2.051   6.986  0.7875  0.0357 -0.0463
   29SAPC   H4R 3857   6.429   2.157   7.018  1.9730  0.6051 -1.9478
   29SAPC   H4S 3858   6.527   2.019   7.014  0.3621  0.6012  2.3066
   29SAPC   C25 3859   6.315   1.972   7.054 -0.4071  0.1683 -0.5896
   29SAPC   H5R 3860   6.304   1.870   7.015  0.1148 -0.3968  0.6733
   29SAPC   C26 3861   6.239   2.011   7.164  0.6490 -0.1266  0.3801
   29SAPC   H6R 3862   6.159   1.941   7.193  0.5714 -0.1058  0.2191
   29SAPC   C27 3863   6.233   2.138   7.235 -0.4148  0.1235 -0.4008
   29SAPC   H7R 3864   6.306   2.200   7.179 -0.5459 -0.0400 -0.7522
   29SAPC   H7S 3865   6.266   2.135   7.342 -0.4283  1.5234 -0.3389
   29SAPC   C28 3866   6.098   2.205   7.217  0.4687 -0.6245  0.6618
   29SAPC   H8R 3867   6.060   2.224   7.115  2.7876  1.0477  0.0226
   29SAPC   C29 3868   6.013   2.245   7.316 -0.2878  0.0202  0.1162
   29SAPC   H9R 3869   5.916   2.286   7.285 -1.0183 -1.3426  0.5097
   29SAPC  C210 3870   6.039   2.234   7.468  0.0068  0.3308 -0.0047
   29SAPC  H10R 3871   6.126   2.300   7.484  0.4339  0.0232 -1.0003
   29SAPC  H10S 3872   6.072   2.130   7.486 -1.4200  0.1106  1.6642
   29SAPC  C211 3873   5.932   2.278   7.565 -0.0554 -0.0091  0.0636
   29SAPC  H11R 3874   5.874   2.359   7.519 -1.5503 -1.7922 -1.4014
   29SAPC  C212 3875   5.902   2.228   7.686  0.0607  0.1920 -0.4957
   29SAPC  H12R 3876   5.820   2.275   7.743 -1.7700 -1.3604 -1.6881
   29SAPC  C213 3877   5.983   2.118   7.755 -0.2313 -0.4970 -0.9351
   29SAPC  H13R 3878   6.008   2.158   7.855  4.2610 -1.8878 -1.2570
   29SAPC  H13S 3879   6.078   2.092   7.703 -0.1545 -0.8307 -0.6298
   29SAPC  C214 3880   5.895   1.999   7.789 -0.1474 -1.1844 -0.3796
   29SAPC  H14R 3881   5.833   2.019   7.878  0.2366 -1.2349 -0.0996
   29SAPC  C215 3882   5.903   1.871   7.744  0.2625  0.2763 -0.4846
   29SAPC  H15R 3883   5.832   1.796   7.783  0.4940  0.5088  0.4133
   29SAPC  C216 3884   5.998   1.825   7.638  0.1341 -0.4674  0.6861
   29SAPC  H16R 3885   6.039   1.722   7.650  0.4347 -0.3381  0.7821
   29SAPC  H16S 3886   6.081   1.899   7.630  0.0048 -0.3015  0.8602
   29SAPC  C217 3887   5.935   1.822   7.494 -0.2480  0.0376  0.0534
   29SAPC  H17R 3888   5.884   1.916   7.467  1.4967  0.7462 -0.9387
   29SAPC  H17S 3889   5.851   1.749   7.499 -0.6040  0.3565 -1.0822
   29SAPC  C218 3890   6.036   1.783   7.384  0.0456  0.2159  0.5242
   29SAPC  H18R 3891   6.099   1.698   7.419  2.2588  1.2511 -0.7356
   29SAPC  H18S 3892   6.122   1.853   7.374  0.9909 -1.0541 -0.5929
   29SAPC  C219 3893   5.991   1.732   7.247  0.3306  0.0994 -0.2108
   29SAPC  H19R 3894   5.979   1.827   7.190  0.7456  0.7876  0.8163
   29SAPC  H19S 3895   5.894   1.683   7.273  0.8858 -1.3959 -0.8318
   29SAPC  C220 3896   6.085   1.636   7.187 -0.2671 -0.1626  0.1348
   29SAPC  H20R 3897   6.082   1.541   7.244 -0.5136 -0.7834 -0.8820
   29SAPC  H20S 3898   6.187   1.680   7.184 -0.9007  1.6454  2.2721
   29SAPC  H20T 3899   6.066   1.608   7.081 -0.1858  0.1103  0.0458
   29SAPC   C33 3900   5.734   1.616   6.410  0.4353 -0.1890 -0.2085
   29SAPC   H3X 3901   5.645   1.659   6.360  0.6436 -0.2145 -0.6074
   29SAPC   H3Y 3902   5.735   1.649   6.516  0.5444  1.1134 -0.5971
   29SAPC   C34 3903   5.724   1.461   6.408 -0.3110 -0.3010  0.3812
   29SAPC   H4X 3904   5.826   1.422   6.429  0.2747  2.5791  4.1307
   29SAPC   H4Y 3905   5.700   1.424   6.307  0.7408  1.8259 -0.7064
   29SAPC   C35 3906   5.634   1.405   6.524 -0.1650  0.1233 -0.2075
   29SAPC   H5X 3907   5.659   1.446   6.624 -3.5309 -1.7832  1.6127
   29SAPC   H5Y 3908   5.654   1.296   6.522 -0.5430  0.0489  0.0955
   29SAPC   C36 3909   5.482   1.431   6.510  0.6175  0.0217 -0.1858
   29SAPC   H6X 3910   5.437   1.351   6.448  1.2314 -1.0255  0.6856
   29SAPC   H6Y 3911   5.456   1.515   6.442  0.9206 -0.2538 -0.6380
   29SAPC   C37 3912   5.409   1.462   6.643 -0.2560 -0.1707  0.6469
   29SAPC   H7X 3913   5.425   1.379   6.715 -2.6672 -0.4739  0.9222
   29SAPC   H7Y 3914   5.301   1.470   6.618  0.4188  1.2654 -2.2385
   29SAPC   C38 3915   5.452   1.603   6.699  0.0249  0.1419  0.2461
   29SAPC   H8X 3916   5.421   1.688   6.634  1.7263  0.3747 -0.3124
   29SAPC   H8Y 3917   5.562   1.609   6.710  0.0762  1.3256 -0.6585
   29SAPC   C39 3918   5.405   1.614   6.846  0.2489 -0.1738 -0.3703
   29SAPC   H9X 3919   5.410   1.515   6.896 -0.1938 -0.8686 -1.6501
   29SAPC   H9Y 3920   5.296   1.638   6.854  0.1061 -0.9195  0.0397
   29SAPC  C310 3921   5.495   1.731   6.913 -0.3167  0.6745  0.4238
   29SAPC  H10X 3922   5.492   1.816   6.841 -0.9363 -0.2032 -0.6169
   29SAPC  H10Y 3923   5.601   1.699   6.917 -1.3619 -3.3712  0.5632
   29SAPC  C311 3924   5.454   1.764   7.052 -0.4560  0.4720  0.3213
   29SAPC  H11X 3925   5.481   1.677   7.116  2.0197  1.4620  0.7727
   29SAPC  H11Y 3926   5.345   1.779   7.060 -0.6673  0.2417 -1.6439
   29SAPC  C312 3927   5.537   1.879   7.122  0.1551 -0.3090 -0.0423
   29SAPC  H12X 3928   5.529   1.973   7.064  0.6935  0.5740  1.2594
   29SAPC  H12Y 3929   5.644   1.854   7.107  0.7568  0.7347  2.0261
   29SAPC  C313 3930   5.505   1.893   7.267  0.0742 -0.2318 -0.0199
   29SAPC  H13X 3931   5.480   1.793   7.308  0.8957 -0.6548 -0.5156
   29SAPC  H13Y 3932   5.417   1.960   7.264  0.6560  0.5614 -3.4737
   29SAPC  C314 3933   5.621   1.972   7.333  0.2694 -0.7622  0.0922
   29SAPC  H14X 3934   5.637   2.060   7.266 -0.5169 -0.8238 -0.1887
   29SAPC  H14Y 3935   5.710   1.912   7.308  1.0825 -1.2814  3.6893
   29SAPC  C315 3936   5.598   2.006   7.483  0.0840  0.1946 -0.0397
   29SAPC  H15X 3937   5.523   2.087   7.480 -1.6370 -1.2674  1.0137
   29SAPC  H15Y 3938   5.693   2.038   7.530  0.9296 -0.7858 -1.0066
   29SAPC  C316 3939   5.526   1.900   7.571  0.4839  0.3335 -0.2854
   29SAPC  H16X 3940   5.591   1.811   7.585 -1.5329 -1.2803 -0.7411
   29SAPC  H16Y 3941   5.437   1.865   7.515  1.9388 -2.2014 -1.2149
   29SAPC  C317 3942   5.471   1.958   7.703  0.4005  0.3656 -0.9226
   29SAPC  H17X 3943   5.420   1.874   7.755 -0.2207  1.3279  0.0597
   29SAPC  H17Y 3944   5.388   2.028   7.683 -0.3955 -0.4956 -0.6989
   29SAPC  C318 3945   5.560   2.017   7.809  0.0556 -0.6171 -1.0213
   29SAPC  H18X 3946   5.603   2.111   7.770  0.3276  0.3695  1.4672
   29SAPC  H18Y 3947   5.636   1.944   7.843  0.2858 -0.0611 -0.3252
   29SAPC  H18Z 3948   5.506   2.058   7.897  2.0991 -0.1568  0.0884
   30SAPC     N 3949   0.560   1.993   5.629  0.3506  0.3143 -1.3172
   30SAPC   C12 3950   0.640   2.041   5.746 -0.7609 -0.0294 -0.0939
   30SAPC  H12A 3951   0.608   2.143   5.761  0.0385  0.0048  1.6296
   30SAPC  H12B 3952   0.744   2.056   5.720 -0.5371 -1.3382 -0.0275
   30SAPC   C13 3953   0.593   1.848   5.600 -0.2812  0.2279  0.5167
   30SAPC  H13A 3954   0.548   1.816   5.506  0.3444  0.5502  0.0996
   30SAPC  H13B 3955   0.700   1.832   5.600 -0.0850  1.1446 -1.5240
   30SAPC  H13C 3956   0.547   1.795   5.682 -2.3242  1.4582  0.2513
   30SAPC   C14 3957   0.406   2.001   5.644  0.1027 -0.0831  0.3488
   30SAPC  H14A 3958   0.377   1.958   5.739  0.8546 -0.5003  0.4015
   30SAPC  H14B 3959   0.360   2.098   5.646 -0.0955 -0.1798  0.6218
   30SAPC  H14C 3960   0.361   1.946   5.563  0.1083 -0.2867  0.4818
   30SAPC   C15 3961   0.596   2.065   5.507  0.2861  0.3390  0.1584
   30SAPC  H15A 3962   0.521   2.055   5.431 -0.0859  0.5916  0.4862
   30SAPC  H15B 3963   0.603   2.169   5.538 -0.2978  0.6525 -0.7370
   30SAPC  H15C 3964   0.693   2.038   5.468 -0.2156 -0.2790 -0.6689
   30SAPC   C11 3965   0.619   1.974   5.884  0.8719 -0.8856 -0.6034
   30SAPC  H11A 3966   0.693   2.014   5.956  1.1754  0.1384 -1.4533
   30SAPC  H11B 3967   0.647   1.867   5.873  0.5766 -0.8228 -2.2749
   30SAPC     P 3968   0.429   2.121   5.978  0.3060 -0.1967 -0.4957
   30SAPC   O13 3969   0.459   2.232   5.882 -0.2347 -0.0626 -0.4860
   30SAPC   O14 3970   0.283   2.105   6.012 -0.0769 -0.2804  0.6089
   30SAPC   O12 3971   0.481   1.977   5.926 -0.4986 -0.2341  0.2414
   30SAPC   O11 3972   0.517   2.138   6.104  0.7566  1.0670  0.0660
   30SAPC    C1 3973   0.527   2.037   6.206  0.8939 -0.5215 -0.2942
   30SAPC    HA 3974   0.425   2.020   6.246  1.1127 -1.7763 -0.2309
   30SAPC    HB 3975   0.563   1.940   6.165  1.1870 -0.1050 -1.0467
   30SAPC    C2 3976   0.629   2.071   6.305  0.4753  0.1338 -0.4460
   30SAPC    HS 3977   0.628   1.992   6.383 -3.2918 -0.1583 -0.5789
   30SAPC   O21 3978   0.596   2.196   6.364  0.2484  0.2557  0.1240
   30SAPC   C21 3979   0.516   2.200   6.464 -0.2618  0.6045  0.5412
   30SAPC   O22 3980   0.458   2.110   6.521  0.2575 -0.5660  0.5965
   30SAPC   C22 3981   0.509   2.342   6.520  0.0624 -0.0755  0.9022
   30SAPC   H2R 3982   0.614   2.373   6.541 -0.6175  3.5771 -0.3143
   30SAPC   H2S 3983   0.470   2.404   6.436  0.6187  0.4704  1.0419
   30SAPC    C3 3984   0.775   2.077   6.261  0.4505  0.0522  0.4740
   30SAPC    HX 3985   0.788   2.172   6.204  1.7173  0.4321  1.3294
   30SAPC    HY 3986   0.806   1.990   6.200 -1.6432 -0.3318 -0.1276
   30SAPC   O31 3987   0.856   2.084   6.381  0.0316 -0.5710  0.4574
   30SAPC   C31 3988   0.985   2.090   6.359  0.1129  0.0875 -0.2003
   30SAPC   O32 3989   1.045   2.083   6.250  0.1053 -0.0772  0.2357
   30SAPC   C32 3990   1.048   2.089   6.499 -0.2239  0.5688 -0.3743
   30SAPC   H2X 3991   1.154   2.122   6.491  0.1909 -1.1386 -3.2898
   30SAPC   H2Y 3992   1.057   1.985   6.539 -1.1044  0.5267 -0.2669
   30SAPC   C23 3993   0.421   2.359   6.642 -0.3642  0.3597 -0.7516
   30SAPC   H3R 3994   0.458   2.318   6.739 -1.2819  0.7897 -0.2050
   30SAPC   H3S 3995   0.318   2.323   6.621 -1.0239  1.8133 -0.1571
   30SAPC   C24 3996   0.404   2.508   6.688  0.1852 -0.2039  0.6215
   30SAPC   H4R 3997   0.319   2.523   6.757 -3.0491 -2.4729 -2.4827
   30SAPC   H4S 3998   0.375   2.571   6.602  0.8380  0.1626  0.6620
   30SAPC   C25 3999   0.531   2.582   6.734 -0.1230 -0.1669 -0.0868
   30SAPC   H5R 4000   0.587   2.621   6.648 -0.1365 -1.3510 -0.6574
   30SAPC   C26 4001   0.574   2.589   6.866  1.3569 -0.0109  0.5994
   30SAPC   H6R 4002   0.667   2.647   6.876  1.4769 -0.1383  0.2155
   30SAPC   C27 4003   0.511   2.541   6.999 -0.4958 -0.3653  0.6386
   30SAPC   H7R 4004   0.407   2.502   6.988 -0.6236  0.3751 -1.2039
   30SAPC   H7S 4005   0.499   2.632   7.062 -0.6467  0.0003  0.0977
   30SAPC   C28 4006   0.593   2.434   7.063  0.5933  0.4758  0.4895
   30SAPC   H8R 4007   0.633   2.365   6.986 -2.7632 -2.0192  0.7501
   30SAPC   C29 4008   0.623   2.409   7.192  0.1428  0.3657  0.3225
   30SAPC   H9R 4009   0.677   2.319   7.224  0.5903  0.7124  0.5438
   30SAPC  C210 4010   0.571   2.485   7.307  0.4077 -0.2611  0.8296
   30SAPC  H10R 4011   0.543   2.421   7.393 -0.4940  0.8668  1.3990
   30SAPC  H10S 4012   0.484   2.547   7.275  1.4091 -0.3878 -2.5516
   30SAPC  C211 4013   0.682   2.578   7.341  0.1989 -0.0877  0.7209
   30SAPC  H11R 4014   0.749   2.611   7.260 -0.9295 -0.7020 -0.5092
   30SAPC  C212 4015   0.712   2.623   7.466  0.2583  0.2816  0.4801
   30SAPC  H12R 4016   0.797   2.692   7.479 -0.9070  1.6552  1.0720
   30SAPC  C213 4017   0.645   2.584   7.597  0.0473  0.2899 -0.0766
   30SAPC  H13R 4018   0.698   2.633   7.681 -0.5041 -0.3668  0.6724
   30SAPC  H13S 4019   0.654   2.473   7.608 -1.7111  0.1930  0.6629
   30SAPC  C214 4020   0.503   2.628   7.609  0.5397  0.0472  0.0771
   30SAPC  H14R 4021   0.445   2.636   7.515 -1.6584 -4.0009  0.8442
   30SAPC  C215 4022   0.436   2.650   7.719  0.4419  0.2100 -0.4860
   30SAPC  H15R 4023   0.335   2.693   7.718  0.7445  0.9750  0.1168
   30SAPC  C216 4024   0.481   2.629   7.865 -0.7296  0.5983 -0.0384
   30SAPC  H16R 4025   0.481   2.722   7.927  1.4589  0.9588 -0.4923
   30SAPC  H16S 4026   0.579   2.580   7.881 -0.8734  0.6833  1.1579
   30SAPC  C217 4027   0.389   2.530   7.939  0.4460 -0.1997  0.0682
   30SAPC  H17R 4028   0.393   2.442   7.870  1.5223 -0.1463  0.0488
   30SAPC  H17S 4029   0.283   2.561   7.930  0.7525  0.3004 -3.1308
   30SAPC  C218 4030   0.432   2.473   8.080 -0.2233 -0.3179 -0.4123
   30SAPC  H18R 4031   0.532   2.427   8.065  0.1775 -1.0404  3.3477
   30SAPC  H18S 4032   0.354   2.400   8.108 -1.4405  0.7536 -0.9310
   30SAPC  C219 4033   0.447   2.586   8.188  0.2021  0.1252 -0.0116
   30SAPC  H19R 4034   0.342   2.619   8.203  0.5478  1.5657 -0.5791
   30SAPC  H19S 4035   0.503   2.673   8.147  2.3838 -0.3808  1.7340
   30SAPC  C220 4036   0.506   2.525   8.314 -0.4170  0.2372  0.0575
   30SAPC  H20R 4037   0.427   2.457   8.352 -1.8458  1.6159 -0.3631
   30SAPC  H20S 4038   0.525   2.602   8.392  0.6542 -0.3284  0.3755
   30SAPC  H20T 4039   0.593   2.461   8.289 -0.9682 -0.4439 -0.1460
   30SAPC   C33 4040   0.982   2.163   6.614 -0.2239 -0.4025  0.2539
   30SAPC   H3X 4041   0.876   2.133   6.628  0.4044 -2.6212  0.7189
   30SAPC   H3Y 4042   0.978   2.269   6.583  0.2661 -0.4216  0.1114
   30SAPC   C34 4043   1.061   2.150   6.750  0.0847 -0.0762 -0.2462
   30SAPC   H4X 4044   1.038   2.234   6.819 -0.4868 -1.3358  1.1394
   30SAPC   H4Y 4045   1.171   2.136   6.739  0.0523  0.4326 -1.3286
   30SAPC   C35 4046   1.008   2.027   6.828  0.1862 -0.2224 -0.4182
   30SAPC   H5X 4047   1.005   1.932   6.769 -1.3216  0.3507 -1.3215
   30SAPC   H5Y 4048   0.900   2.039   6.850  0.3309  0.0238  0.1781
   30SAPC   C36 4049   1.078   2.004   6.960  0.5415 -0.2243  0.3391
   30SAPC   H6X 4050   1.103   2.103   7.002  0.8579 -0.4933  0.7977
   30SAPC   H6Y 4051   1.177   1.954   6.950  1.0690  1.1191 -1.8773
   30SAPC   C37 4052   0.990   1.920   7.050  0.1162  0.0431  0.1104
   30SAPC   H7X 4053   0.969   1.831   6.987  2.8355  0.2158 -1.1957
   30SAPC   H7Y 4054   0.904   1.988   7.071 -0.1885  0.5857 -2.4620
   30SAPC   C38 4055   1.046   1.877   7.184  0.3728  0.4239 -0.4353
   30SAPC   H8X 4056   1.121   1.796   7.170 -1.3663 -1.0872 -1.4751
   30SAPC   H8Y 4057   0.961   1.844   7.247 -1.3520  2.4038 -1.5759
   30SAPC   C39 4058   1.109   1.991   7.268  0.1573  0.2044 -0.0779
   30SAPC   H9X 4059   1.066   2.092   7.253  0.3872  0.0524 -1.9862
   30SAPC   H9Y 4060   1.212   2.001   7.229 -0.0797 -1.5117 -1.2751
   30SAPC  C310 4061   1.136   1.951   7.417  0.2414  0.0844  0.2910
   30SAPC  H10X 4062   1.149   1.840   7.416  0.0593  0.0005 -2.6573
   30SAPC  H10Y 4063   1.057   1.980   7.488 -1.3587  0.8950 -1.7248
   30SAPC  C311 4064   1.270   2.010   7.463 -0.6044 -0.3688  0.3357
   30SAPC  H11X 4065   1.260   2.120   7.461  1.0533 -0.2112 -0.7861
   30SAPC  H11Y 4066   1.355   1.981   7.397  0.3090 -0.8522  1.6722
   30SAPC  C312 4067   1.316   1.966   7.600 -0.2305 -0.2561 -0.5547
   30SAPC  H12X 4068   1.418   2.004   7.626  0.5824 -1.5470 -1.7129
   30SAPC  H12Y 4069   1.322   1.855   7.589 -0.6645 -0.2489 -0.8640
   30SAPC  C313 4070   1.231   2.022   7.709  0.8267  0.5702 -0.4345
   30SAPC  H13X 4071   1.128   1.981   7.700  0.1843  2.0504 -0.1183
   30SAPC  H13Y 4072   1.217   2.132   7.703 -1.0718  0.3749 -0.2866
   30SAPC  C314 4073   1.275   1.990   7.849 -0.1622  0.7098 -0.7500
   30SAPC  H14X 4074   1.370   2.045   7.866  0.5625 -0.1321 -1.9036
   30SAPC  H14Y 4075   1.304   1.883   7.862 -2.1480  0.2805  0.7232
   30SAPC  C315 4076   1.185   2.045   7.962  0.5845 -0.8107  0.5622
   30SAPC  H15X 4077   1.096   1.980   7.950  0.3326 -0.7577  1.9526
   30SAPC  H15Y 4078   1.161   2.152   7.944  0.5236 -1.0485 -0.8317
   30SAPC  C316 4079   1.232   2.031   8.107  0.1653  0.4421 -0.1602
   30SAPC  H16X 4080   1.335   2.071   8.108  0.4859 -0.3569  0.8304
   30SAPC  H16Y 4081   1.233   1.923   8.136 -1.9364  0.5080  0.3440
   30SAPC  C317 4082   1.141   2.110   8.204 -0.0406  0.1029 -0.0905
   30SAPC  H17X 4083   1.046   2.054   8.220  0.7024 -0.8254  1.2924
   30SAPC  H17Y 4084   1.124   2.215   8.171  2.1549  0.3585 -0.5800
   30SAPC  C318 4085   1.218   2.125   8.338  0.0473 -0.0189  0.3355
   30SAPC  H18X 4086   1.307   2.190   8.331 -0.9271  1.2648 -0.5646
   30SAPC  H18Y 4087   1.269   2.034   8.378  0.1603 -0.1236 -0.0455
   30SAPC  H18Z 4088   1.144   2.168   8.410 -1.9803 -0.4329 -1.3978
   31SAPC     N 4089   2.570   3.628   6.081 -0.8972 -1.0784  0.1381
   31SAPC   C12 4090   2.568   3.579   6.218 -0.1032 -0.4699  0.4993
   31SAPC  H12A 4091   2.632   3.628   6.289 -0.4172 -0.1227  0.5445
   31SAPC  H12B 4092   2.612   3.480   6.212  2.3909  0.6270 -0.8256
   31SAPC   C13 4093   2.716   3.648   6.052 -0.3175  0.1028  0.2177
   31SAPC  H13A 4094   2.752   3.738   6.100 -1.1575  1.0342 -0.8509
   31SAPC  H13B 4095   2.774   3.564   6.090 -3.0880 -1.1546  1.9553
   31SAPC  H13C 4096   2.728   3.674   5.948  0.7890  0.6519  0.4601
   31SAPC   C14 4097   2.505   3.529   5.987 -0.2925  0.4443  0.4067
   31SAPC  H14A 4098   2.524   3.555   5.884  1.9492  1.3967  0.9836
   31SAPC  H14B 4099   2.551   3.432   6.001 -0.6969 -0.0872 -1.6682
   31SAPC  H14C 4100   2.398   3.521   5.999 -0.6941 -1.8445 -3.2407
   31SAPC   C15 4101   2.502   3.760   6.078  0.0099 -0.0184 -0.4603
   31SAPC  H15A 4102   2.547   3.825   6.151  0.7645 -1.0902  0.0566
   31SAPC  H15B 4103   2.519   3.817   5.988  1.4093  2.5360  1.3006
   31SAPC  H15C 4104   2.407   3.748   6.129  1.1027  0.3340  1.7669
   31SAPC   C11 4105   2.434   3.547   6.287  0.3477  0.5245  0.3398
   31SAPC  H11A 4106   2.373   3.636   6.314  1.5019  1.3424  0.3170
   31SAPC  H11B 4107   2.452   3.499   6.386  1.2946 -1.1889 -0.6010
   31SAPC     P 4108   2.356   3.298   6.217  0.1854 -0.2556  0.1254
   31SAPC   O13 4109   2.260   3.245   6.114 -0.4724  0.2420  0.3809
   31SAPC   O14 4110   2.500   3.272   6.200  0.0267 -0.4852 -0.1642
   31SAPC   O12 4111   2.333   3.460   6.217 -0.0106  0.0856  0.4021
   31SAPC   O11 4112   2.314   3.264   6.366 -0.2682  0.1805  0.2072
   31SAPC    C1 4113   2.216   3.336   6.443  0.4342 -0.9055  0.1818
   31SAPC    HA 4114   2.269   3.426   6.484 -4.1026  1.8776  0.6272
   31SAPC    HB 4115   2.140   3.376   6.373  0.6910  1.0969  0.9680
   31SAPC    C2 4116   2.160   3.252   6.567  0.0672  0.1906  0.8353
   31SAPC    HS 4117   2.050   3.262   6.573 -0.0805  0.2014 -1.2045
   31SAPC   O21 4118   2.219   3.304   6.689  1.0331 -0.3974 -0.2646
   31SAPC   C21 4119   2.151   3.409   6.745 -0.9162  0.1916  0.2936
   31SAPC   O22 4120   2.041   3.444   6.713 -0.4717  0.3431 -0.7349
   31SAPC   C22 4121   2.238   3.458   6.864  0.3572  0.2261 -0.7147
   31SAPC   H2R 4122   2.174   3.479   6.953 -1.0751  2.8685 -2.2327
   31SAPC   H2S 4123   2.309   3.375   6.884 -0.0423  0.3681  1.6675
   31SAPC    C3 4124   2.200   3.105   6.537 -0.5933 -0.1430 -0.0163
   31SAPC    HX 4125   2.310   3.102   6.543 -0.5590  1.0991  0.2342
   31SAPC    HY 4126   2.164   3.083   6.434 -1.0408  0.4096  0.0145
   31SAPC   O31 4127   2.134   3.020   6.636 -0.1708  0.4883  1.1105
   31SAPC   C31 4128   2.210   2.906   6.651 -0.2397 -0.1428 -0.2098
   31SAPC   O32 4129   2.277   2.849   6.566 -0.4857 -0.0801 -0.2850
   31SAPC   C32 4130   2.183   2.852   6.787 -0.1636  0.2332  0.1446
   31SAPC   H2X 4131   2.272   2.794   6.819  1.5755  2.3930 -0.5367
   31SAPC   H2Y 4132   2.099   2.780   6.775  0.7423 -0.6660 -1.0749
   31SAPC   C23 4133   2.306   3.593   6.826  0.1133 -0.0106 -0.4094
   31SAPC   H3R 4134   2.233   3.677   6.830  0.1737  0.0197  2.2335
   31SAPC   H3S 4135   2.343   3.591   6.722  0.7713  0.7733 -0.2020
   31SAPC   C24 4136   2.434   3.632   6.910  0.8189  0.1913 -0.3218
   31SAPC   H4R 4137   2.456   3.736   6.878 -3.4657  1.3847  0.0713
   31SAPC   H4S 4138   2.520   3.569   6.880  0.9319  1.2458 -2.3771
   31SAPC   C25 4139   2.424   3.642   7.059  0.4378  0.1023 -0.0409
   31SAPC   H5R 4140   2.339   3.707   7.086 -0.4199 -1.4064  1.0909
   31SAPC   C26 4141   2.494   3.575   7.151 -0.5858  0.4529  0.1786
   31SAPC   H6R 4142   2.481   3.597   7.257  2.0155 -1.7482  1.0934
   31SAPC   C27 4143   2.606   3.472   7.127 -0.4266  0.2154 -0.2039
   31SAPC   H7R 4144   2.657   3.508   7.035  1.3194 -0.8209  0.3119
   31SAPC   H7S 4145   2.570   3.368   7.109  0.0042 -0.0893  0.6776
   31SAPC   C28 4146   2.702   3.460   7.242  0.0036 -0.1413  1.1881
   31SAPC   H8R 4147   2.789   3.527   7.245 -0.9347  1.1315  3.7298
   31SAPC   C29 4148   2.689   3.368   7.347  0.5858 -0.1931  0.2476
   31SAPC   H9R 4149   2.761   3.366   7.430  0.0535 -0.5547  0.7065
   31SAPC  C210 4150   2.570   3.277   7.372  0.4903  0.0377  0.1113
   31SAPC  H10R 4151   2.608   3.186   7.423 -1.5010 -0.2145  1.2381
   31SAPC  H10S 4152   2.535   3.242   7.272  1.3483  2.8442 -1.2872
   31SAPC  C211 4153   2.458   3.328   7.458 -0.1140  0.1211 -0.8856
   31SAPC  H11R 4154   2.370   3.372   7.409 -0.7435 -0.3992 -0.2362
   31SAPC  C212 4155   2.441   3.300   7.586  0.0119  0.0558 -0.2710
   31SAPC  H12R 4156   2.342   3.310   7.632  0.4537 -3.2503  1.6711
   31SAPC  C213 4157   2.529   3.223   7.689  0.1615 -0.1273  0.1644
   31SAPC  H13R 4158   2.561   3.128   7.641  1.5603 -0.2954  1.3432
   31SAPC  H13S 4159   2.459   3.198   7.772 -0.4183  1.5782  0.2139
   31SAPC  C214 4160   2.647   3.303   7.740 -0.0433 -0.0194  0.2642
   31SAPC  H14R 4161   2.704   3.356   7.661  0.0712  1.2309  1.1552
   31SAPC  C215 4162   2.687   3.314   7.866  0.5593  0.2795 -0.3256
   31SAPC  H15R 4163   2.775   3.378   7.885  1.5643 -1.3671  0.8406
   31SAPC  C216 4164   2.628   3.251   7.995 -0.1997  0.5338 -0.2233
   31SAPC  H16R 4165   2.638   3.141   8.000  1.9050  0.7091  0.7063
   31SAPC  H16S 4166   2.527   3.283   8.029 -0.7944 -1.2068 -0.2408
   31SAPC  C217 4167   2.724   3.295   8.110  1.1129  0.0339 -0.2889
   31SAPC  H17R 4168   2.660   3.282   8.200  1.7723 -0.1324  0.1575
   31SAPC  H17S 4169   2.728   3.406   8.099 -1.3697  0.0525 -1.9894
   31SAPC  C218 4170   2.856   3.216   8.124 -0.0855 -0.0679  0.1463
   31SAPC  H18R 4171   2.917   3.228   8.032  2.9897 -0.5564  1.9936
   31SAPC  H18S 4172   2.830   3.111   8.147 -1.8224 -0.7332 -3.9808
   31SAPC  C219 4173   2.937   3.268   8.236  0.2459  0.2871 -0.3178
   31SAPC  H19R 4174   2.947   3.185   8.310 -2.7407  1.0879  1.1568
   31SAPC  H19S 4175   2.880   3.350   8.284 -2.4948 -1.3110 -0.5950
   31SAPC  C220 4176   3.079   3.320   8.190 -0.0930  0.1363 -0.6595
   31SAPC  H20R 4177   3.125   3.371   8.277 -2.7898 -0.4319  1.2474
   31SAPC  H20S 4178   3.077   3.383   8.099  0.8440  0.5890 -0.3807
   31SAPC  H20T 4179   3.139   3.229   8.170  3.2801  1.9234  0.6190
   31SAPC   C33 4180   2.146   2.954   6.902  0.3270 -0.3178  0.3524
   31SAPC   H3X 4181   2.055   3.014   6.880  1.3433  0.9983 -0.3974
   31SAPC   H3Y 4182   2.228   3.028   6.915  2.0640 -2.0153 -0.4683
   31SAPC   C34 4183   2.139   2.881   7.041  0.6787 -0.2333 -0.3961
   31SAPC   H4X 4184   2.238   2.836   7.065 -0.3765 -2.2994  0.3487
   31SAPC   H4Y 4185   2.067   2.797   7.047  0.7673 -0.2314  1.1951
   31SAPC   C35 4186   2.115   2.980   7.153  1.1558  0.0424 -0.0536
   31SAPC   H5X 4187   2.025   3.032   7.116  0.7597 -1.8234 -1.9142
   31SAPC   H5Y 4188   2.194   3.057   7.163  2.6786 -1.7116  3.0735
   31SAPC   C36 4189   2.099   2.918   7.290  0.8463  0.0451  0.4781
   31SAPC   H6X 4190   2.151   2.820   7.296 -1.5993 -1.5166 -1.6341
   31SAPC   H6Y 4191   1.991   2.897   7.307  0.5889  0.5155 -0.5414
   31SAPC   C37 4192   2.151   3.014   7.394 -0.5149 -0.2390  0.2886
   31SAPC   H7X 4193   2.097   3.110   7.407 -2.7290 -1.4768  0.6284
   31SAPC   H7Y 4194   2.255   3.044   7.370  0.3707 -3.3959 -0.2741
   31SAPC   C38 4195   2.164   2.937   7.535 -0.1940  0.1788 -0.2987
   31SAPC   H8X 4196   2.230   2.850   7.516 -2.6155 -2.0253  0.6539
   31SAPC   H8Y 4197   2.062   2.906   7.567 -0.0622 -0.7325 -0.7296
   31SAPC   C39 4198   2.223   3.021   7.649  0.0988  0.0714 -0.4064
   31SAPC   H9X 4199   2.162   3.111   7.668  0.3384 -0.1656  1.6684
   31SAPC   H9Y 4200   2.317   3.067   7.612 -0.6773  2.1072  0.0497
   31SAPC  C310 4201   2.242   2.943   7.783  0.3556  0.1006  0.1693
   31SAPC  H10X 4202   2.329   2.882   7.750  0.4532  1.7722 -3.0618
   31SAPC  H10Y 4203   2.151   2.883   7.805  0.6376 -0.4471 -0.1379
   31SAPC  C311 4204   2.286   3.024   7.908 -1.4432  0.8924 -0.3211
   31SAPC  H11X 4205   2.230   3.118   7.928 -1.6311  0.6371  0.3872
   31SAPC  H11Y 4206   2.388   3.064   7.896 -0.1085 -2.8108 -3.1979
   31SAPC  C312 4207   2.299   2.936   8.032 -0.0679 -0.7677 -0.5200
   31SAPC  H12X 4208   2.394   2.883   8.014 -0.0517  0.0323 -3.3557
   31SAPC  H12Y 4209   2.218   2.859   8.030 -0.7206 -0.1285  0.3460
   31SAPC  C313 4210   2.303   3.008   8.158 -0.5877 -0.0312 -0.8694
   31SAPC  H13X 4211   2.208   3.066   8.163 -1.8379 -2.0805  0.6708
   31SAPC  H13Y 4212   2.385   3.083   8.149 -1.6208  1.5177  1.5180
   31SAPC  C314 4213   2.333   2.914   8.277 -0.4620  0.1233  0.4519
   31SAPC  H14X 4214   2.264   2.828   8.266  0.0110  0.0625 -3.5118
   31SAPC  H14Y 4215   2.316   2.963   8.375  0.4870 -0.2207  0.7968
   31SAPC  C315 4216   2.479   2.861   8.282  1.4898 -0.4808  0.3030
   31SAPC  H15X 4217   2.550   2.939   8.248 -0.6940  0.1176 -3.4195
   31SAPC  H15Y 4218   2.484   2.781   8.205 -0.6792 -1.6498  1.2744
   31SAPC  C316 4219   2.505   2.790   8.415  0.6392  0.2310  0.6233
   31SAPC  H16X 4220   2.594   2.727   8.396 -0.9739 -1.4349 -2.1733
   31SAPC  H16Y 4221   2.418   2.726   8.442 -0.1847  0.4476 -1.3447
   31SAPC  C317 4222   2.539   2.894   8.519 -0.5667 -0.1389  0.2064
   31SAPC  H17X 4223   2.464   2.972   8.544  0.4107  1.9522 -2.8520
   31SAPC  H17Y 4224   2.627   2.948   8.478 -1.8643  0.6808 -1.6197
   31SAPC  C318 4225   2.574   2.819   8.647  0.4309  0.0942  0.3856
   31SAPC  H18X 4226   2.650   2.742   8.622 -0.2643 -1.3481  2.4483
   31SAPC  H18Y 4227   2.486   2.771   8.696 -0.1287  0.9238  0.2209
   31SAPC  H18Z 4228   2.628   2.878   8.724  1.9451 -0.0010 -0.5861
   32SAPC     N 4229   3.457   5.010   6.444 -0.4337  0.0241 -0.3406
   32SAPC   C12 4230   3.487   4.916   6.335 -0.3880  0.8907  0.8203
   32SAPC  H12A 4231   3.575   4.858   6.358  0.2156  1.2576 -0.4705
   32SAPC  H12B 4232   3.516   4.970   6.246  0.6963 -1.5164 -0.4007
   32SAPC   C13 4233   3.359   5.114   6.400 -0.3123  0.0293 -0.4751
   32SAPC  H13A 4234   3.348   5.198   6.467 -0.0801 -0.8032  0.6178
   32SAPC  H13B 4235   3.391   5.157   6.306  2.6497  2.2573  1.3638
   32SAPC  H13C 4236   3.264   5.066   6.384 -0.3154  0.0070 -0.3870
   32SAPC   C14 4237   3.400   4.943   6.570  0.9483  0.3401  0.4957
   32SAPC  H14A 4238   3.316   4.880   6.545  0.8613  1.2817 -1.9203
   32SAPC  H14B 4239   3.469   4.878   6.622  0.8807  0.6598  0.9873
   32SAPC  H14C 4240   3.371   5.015   6.644 -1.4033 -0.8465  0.8291
   32SAPC   C15 4241   3.581   5.075   6.494  0.0653 -0.3033 -0.4322
   32SAPC  H15A 4242   3.617   5.154   6.429  0.2174 -0.7336 -0.8807
   32SAPC  H15B 4243   3.564   5.132   6.584 -1.8758 -1.5929  0.0909
   32SAPC  H15C 4244   3.666   5.009   6.510  0.6838  0.4848 -0.4218
   32SAPC   C11 4245   3.365   4.826   6.289  0.0613 -0.1817  0.0593
   32SAPC  H11A 4246   3.395   4.784   6.191 -1.7780 -0.0925 -0.5785
   32SAPC  H11B 4247   3.278   4.891   6.265  0.5377  1.0132  1.4126
   32SAPC     P 4248   3.249   4.608   6.349 -0.0381 -0.2594 -0.3204
   32SAPC   O13 4249   3.165   4.639   6.234  0.1177 -0.4385 -0.4269
   32SAPC   O14 4250   3.351   4.498   6.332  0.3027  0.4773 -0.6309
   32SAPC   O12 4251   3.332   4.733   6.389 -0.7851 -0.1133 -0.2724
   32SAPC   O11 4252   3.152   4.575   6.468  0.4673  0.3638 -0.2494
   32SAPC    C1 4253   3.007   4.590   6.457 -0.7624  0.2527  0.1822
   32SAPC    HA 4254   2.979   4.552   6.356  0.6910 -0.9760  0.1948
   32SAPC    HB 4255   2.954   4.522   6.527  0.9494 -1.6876 -0.3014
   32SAPC    C2 4256   2.982   4.737   6.490  0.7094 -0.2660 -0.1178
   32SAPC    HS 4257   3.065   4.792   6.442  0.1355  1.5113  0.8341
   32SAPC   O21 4258   2.987   4.759   6.636 -0.4085 -0.3112  0.3239
   32SAPC   C21 4259   3.037   4.877   6.677 -0.7773  0.3569 -0.3472
   32SAPC   O22 4260   3.075   4.966   6.604  0.3267  0.3480 -0.2596
   32SAPC   C22 4261   3.027   4.886   6.825 -0.6218 -0.0646 -0.2260
   32SAPC   H2R 4262   2.945   4.816   6.851 -0.1215 -1.0954 -1.3488
   32SAPC   H2S 4263   3.119   4.846   6.872 -0.5392  0.3599 -0.0181
   32SAPC    C3 4264   2.836   4.781   6.437  0.1266  0.4150  0.6198
   32SAPC    HX 4265   2.824   4.783   6.327 -1.1234  0.9267  0.7554
   32SAPC    HY 4266   2.824   4.886   6.472 -2.5508 -0.2450  1.9527
   32SAPC   O31 4267   2.730   4.715   6.501  0.0686  0.0031  0.2323
   32SAPC   C31 4268   2.609   4.723   6.453  0.6247 -0.1653  0.4762
   32SAPC   O32 4269   2.577   4.765   6.342  0.0445  0.7729 -0.1391
   32SAPC   C32 4270   2.518   4.673   6.564  0.7722  0.2346 -0.3774
   32SAPC   H2X 4271   2.567   4.593   6.623 -0.1330 -0.6901 -0.8567
   32SAPC   H2Y 4272   2.416   4.644   6.531  0.4044  1.3653 -0.2917
   32SAPC   C23 4273   3.005   5.029   6.883 -0.2430 -0.7376  0.4971
   32SAPC   H3R 4274   2.962   5.000   6.982 -1.0343 -2.1098 -0.2140
   32SAPC   H3S 4275   2.926   5.084   6.827  1.1752  1.9987  1.0229
   32SAPC   C24 4276   3.128   5.118   6.915 -0.0870 -0.6126  0.4243
   32SAPC   H4R 4277   3.202   5.124   6.832 -1.6138  1.5866 -0.8936
   32SAPC   H4S 4278   3.180   5.075   7.003 -0.2549 -0.6973  0.4819
   32SAPC   C25 4279   3.087   5.258   6.952  0.3894  0.2233  0.0419
   32SAPC   H5R 4280   3.059   5.315   6.862  1.0707 -1.9674 -1.6699
   32SAPC   C26 4281   3.111   5.322   7.066  0.5152  0.0613  0.3470
   32SAPC   H6R 4282   3.063   5.421   7.077 -0.2989 -0.3139  0.2058
   32SAPC   C27 4283   3.185   5.271   7.191  0.5130  0.9994 -0.0783
   32SAPC   H7R 4284   3.243   5.349   7.244  0.1730  1.9340 -1.0614
   32SAPC   H7S 4285   3.265   5.200   7.159 -1.3917 -2.0356  1.3817
   32SAPC   C28 4286   3.071   5.221   7.290 -0.5591  0.6004  0.7779
   32SAPC   H8R 4287   2.997   5.156   7.240 -1.5730  2.8835 -0.8907
   32SAPC   C29 4288   3.055   5.241   7.426 -0.4106  0.0316  0.3869
   32SAPC   H9R 4289   2.958   5.218   7.473 -0.2284  2.1192  1.9328
   32SAPC  C210 4290   3.139   5.322   7.515 -0.7367 -0.5213 -0.1432
   32SAPC  H10R 4291   3.081   5.340   7.608 -0.8408  1.0453 -0.4955
   32SAPC  H10S 4292   3.169   5.415   7.464  0.2403 -0.4030  0.6148
   32SAPC  C211 4293   3.268   5.254   7.540  0.3600 -0.1970  0.0098
   32SAPC  H11R 4294   3.316   5.213   7.450 -0.0075 -0.0925 -0.2335
   32SAPC  C212 4295   3.323   5.236   7.665 -0.4142  0.5371 -0.6141
   32SAPC  H12R 4296   3.419   5.182   7.663  0.2710  1.7493 -1.3890
   32SAPC  C213 4297   3.273   5.280   7.801 -0.3698 -0.3799 -0.0099
   32SAPC  H13R 4298   3.193   5.210   7.835 -1.7884  1.4769  0.6835
   32SAPC  H13S 4299   3.230   5.383   7.808 -1.3886 -0.7910  0.0412
   32SAPC  C214 4300   3.390   5.259   7.893  0.2113 -0.1071 -0.1518
   32SAPC  H14R 4301   3.476   5.315   7.852  0.0896  0.2696  0.0942
   32SAPC  C215 4302   3.404   5.206   8.012  0.1990  0.5608 -0.4116
   32SAPC  H15R 4303   3.504   5.201   8.058  0.2204 -1.5624 -0.5503
   32SAPC  C216 4304   3.294   5.132   8.087  0.2632  0.3359  0.2484
   32SAPC  H16R 4305   3.196   5.186   8.084 -0.2862 -0.6743 -0.6109
   32SAPC  H16S 4306   3.312   5.112   8.195 -1.3178 -3.0657 -0.0009
   32SAPC  C217 4307   3.244   4.997   8.022  0.3952  0.5933 -0.0621
   32SAPC  H17R 4308   3.255   5.004   7.911 -0.0521 -0.5832 -0.1941
   32SAPC  H17S 4309   3.136   4.984   8.041  0.2738 -1.9425 -2.0302
   32SAPC  C218 4310   3.305   4.867   8.079  0.2959  0.2661  0.1856
   32SAPC  H18R 4311   3.293   4.863   8.189 -0.8687 -1.3837  0.0449
   32SAPC  H18S 4312   3.413   4.869   8.052  0.2501 -1.7544 -0.3424
   32SAPC  C219 4313   3.245   4.746   8.010  0.9853  0.6619  0.4933
   32SAPC  H19R 4314   3.239   4.763   7.900 -0.7857 -1.0353  0.2820
   32SAPC  H19S 4315   3.139   4.741   8.041  1.3287  0.7830  1.7538
   32SAPC  C220 4316   3.313   4.611   8.037 -0.1302 -0.2945  0.2849
   32SAPC  H20R 4317   3.424   4.614   8.030 -0.1891 -1.1682 -1.8566
   32SAPC  H20S 4318   3.287   4.535   7.961  2.2875 -1.3611  0.4372
   32SAPC  H20T 4319   3.280   4.566   8.133  1.0408 -3.7895 -0.7951
   32SAPC   C33 4320   2.489   4.784   6.668 -0.1429 -0.3066 -0.6600
   32SAPC   H3X 4321   2.460   4.880   6.620 -2.0341 -0.5966 -0.1653
   32SAPC   H3Y 4322   2.581   4.799   6.729 -0.8308  0.1923  0.2600
   32SAPC   C34 4323   2.376   4.750   6.771  0.4767  0.4107 -0.5282
   32SAPC   H4X 4324   2.402   4.649   6.811 -2.5156 -0.0968  0.4422
   32SAPC   H4Y 4325   2.275   4.737   6.726 -0.1398  1.5817  0.4649
   32SAPC   C35 4326   2.365   4.852   6.883  0.1837 -0.1995  0.6696
   32SAPC   H5X 4327   2.304   4.933   6.838 -3.0698 -2.9880 -0.4194
   32SAPC   H5Y 4328   2.464   4.875   6.928  0.0224 -0.6011  1.2520
   32SAPC   C36 4329   2.287   4.795   7.008 -0.0643 -0.7046 -0.3803
   32SAPC   H6X 4330   2.295   4.685   7.012 -1.1553 -0.7776  0.3203
   32SAPC   H6Y 4331   2.180   4.810   6.980  0.0934  0.9102 -0.2585
   32SAPC   C37 4332   2.327   4.848   7.149 -0.2039 -0.4524 -0.0038
   32SAPC   H7X 4333   2.287   4.952   7.149  1.1294  0.1818  3.1444
   32SAPC   H7Y 4334   2.437   4.839   7.160 -0.1787 -0.1491 -0.0209
   32SAPC   C38 4335   2.262   4.780   7.263 -0.5092  0.1471 -0.0149
   32SAPC   H8X 4336   2.266   4.672   7.241  1.1957  0.2619 -0.4026
   32SAPC   H8Y 4337   2.154   4.807   7.271 -0.3303  0.7055  0.6772
   32SAPC   C39 4338   2.319   4.823   7.397  0.2152  0.1606 -0.3088
   32SAPC   H9X 4339   2.280   4.924   7.424  1.4123  0.7039 -0.5409
   32SAPC   H9Y 4340   2.429   4.833   7.392  0.3200 -0.3148  0.8024
   32SAPC  C310 4341   2.276   4.720   7.505  0.0245  0.7331 -0.0011
   32SAPC  H10X 4342   2.297   4.615   7.475 -4.3244  0.0241 -1.2646
   32SAPC  H10Y 4343   2.165   4.717   7.511 -0.1442  2.9084 -1.0454
   32SAPC  C311 4344   2.331   4.745   7.644  0.0512 -0.5933  0.1271
   32SAPC  H11X 4345   2.310   4.845   7.686  1.1018 -0.2803 -0.0626
   32SAPC  H11Y 4346   2.442   4.738   7.640  0.1681  0.6717  0.7765
   32SAPC  C312 4347   2.274   4.650   7.756 -0.3615  0.1321 -0.0378
   32SAPC  H12X 4348   2.278   4.542   7.729  0.4693  0.1005  0.1660
   32SAPC  H12Y 4349   2.170   4.684   7.771 -0.8514 -1.5006  0.5131
   32SAPC  C313 4350   2.352   4.647   7.893  0.5272 -0.3717 -0.5674
   32SAPC  H13X 4351   2.363   4.752   7.928  0.8938 -0.9099  1.0194
   32SAPC  H13Y 4352   2.448   4.598   7.866  0.3349 -1.2055  0.2024
   32SAPC  C314 4353   2.287   4.552   7.999  0.3971 -0.3369  0.2720
   32SAPC  H14X 4354   2.278   4.452   7.952  1.9249 -0.7155  0.7235
   32SAPC  H14Y 4355   2.199   4.610   8.032  1.9590  2.0883  0.4277
   32SAPC  C315 4356   2.359   4.534   8.130 -0.2144 -0.1539  0.5393
   32SAPC  H15X 4357   2.403   4.620   8.186  4.6409 -2.2931  0.4413
   32SAPC  H15Y 4358   2.454   4.487   8.099 -0.3814 -1.9089  2.5428
   32SAPC  C316 4359   2.302   4.439   8.233 -0.5796 -0.5026  0.5648
   32SAPC  H16X 4360   2.223   4.372   8.192  0.5169 -2.3287  1.3326
   32SAPC  H16Y 4361   2.247   4.509   8.299 -0.0232  1.1727 -0.6759
   32SAPC  C317 4362   2.402   4.371   8.328  0.5037 -0.3817  0.3076
   32SAPC  H17X 4363   2.355   4.328   8.419 -0.1981  0.5312  0.3901
   32SAPC  H17Y 4364   2.469   4.451   8.366 -0.0030  0.7241 -1.0522
   32SAPC  C318 4365   2.482   4.272   8.253  0.0945  0.5652  0.2027
   32SAPC  H18X 4366   2.542   4.312   8.169 -1.4495  2.0476 -0.2387
   32SAPC  H18Y 4367   2.408   4.208   8.200  0.5319  2.0869 -2.4063
   32SAPC  H18Z 4368   2.555   4.216   8.317  1.2220  0.6717 -0.9588
   33POPC     N 4369   6.195   2.946  10.484  0.0006  1.1927 -0.4474
   33POPC   C12 4370   6.313   3.034  10.456 -0.2284  0.0973 -0.1416
   33POPC  H12A 4371   6.291   3.128  10.504 -0.3583  1.3629 -2.5236
   33POPC  H12B 4372   6.312   3.060  10.351  2.1008  2.4372  0.3171
   33POPC   C13 4373   6.204   2.810  10.427  0.2133  0.0730 -0.7689
   33POPC  H13A 4374   6.305   2.772  10.432 -0.6547 -2.2607  1.4012
   33POPC  H13B 4375   6.142   2.731  10.469  0.1980  0.2773 -0.3995
   33POPC  H13C 4376   6.176   2.810  10.323 -3.0583 -0.1422  0.0073
   33POPC   C14 4377   6.188   2.924  10.636  0.4721  0.3907 -0.1671
   33POPC  H14A 4378   6.265   2.855  10.666  0.8725  0.9141  0.0254
   33POPC  H14B 4379   6.211   3.017  10.686  0.0790 -1.3029  3.4485
   33POPC  H14C 4380   6.094   2.884  10.670  0.0750 -0.7356 -2.3743
   33POPC   C15 4381   6.063   3.015  10.449  0.0390  0.0931 -0.0106
   33POPC  H15A 4382   6.043   3.018  10.343  1.0860 -0.4781 -0.2426
   33POPC  H15B 4383   6.064   3.112  10.497 -2.3665 -0.7038  1.8326
   33POPC  H15C 4384   5.982   2.960  10.493  0.2175 -1.3951 -1.4422
   33POPC   C11 4385   6.455   2.992  10.502  0.4289 -0.4272  0.3873
   33POPC  H11A 4386   6.447   2.983  10.613  1.2949 -0.4510  0.4544
   33POPC  H11B 4387   6.532   3.069  10.480  0.8183 -1.2771 -1.4451
   33POPC     P 4388   6.650   2.810  10.445  0.4120  0.2541 -0.5593
   33POPC   O13 4389   6.649   2.663  10.420  0.3883 -0.6496 -0.1292
   33POPC   O14 4390   6.722   2.856  10.566 -0.0945 -0.2946  0.3799
   33POPC   O12 4391   6.500   2.870  10.442 -0.8442  0.0125 -0.2492
   33POPC   O11 4392   6.734   2.855  10.324 -0.7246 -0.6386  0.0422
   33POPC    C1 4393   6.684   2.955  10.237 -0.1810 -0.3654 -0.2694
   33POPC    HA 4394   6.658   3.046  10.296 -5.0325 -0.9334 -1.1282
   33POPC    HB 4395   6.763   2.985  10.165 -0.0588 -1.1216 -0.4543
   33POPC    C2 4396   6.550   2.915  10.161 -0.1513 -0.4795 -0.0890
   33POPC    HS 4397   6.461   2.941  10.222  1.2396 -2.5748  3.1286
   33POPC   O21 4398   6.547   2.773  10.134  0.9100  0.9337  0.0081
   33POPC   C21 4399   6.433   2.713  10.127 -0.8785  0.4663 -0.5921
   33POPC   O22 4400   6.328   2.762  10.167 -0.7461 -0.1492 -0.0290
   33POPC   C22 4401   6.448   2.573  10.067 -0.3219  0.0478 -0.5332
   33POPC   H2R 4402   6.490   2.524  10.157  1.1770  1.2472 -0.5484
   33POPC   H2S 4403   6.530   2.571   9.992 -0.7403  2.2978 -1.1301
   33POPC    C3 4404   6.545   3.005  10.030  0.5231  0.2396 -0.8258
   33POPC    HX 4405   6.522   3.109  10.060  2.9983  0.0461  2.2180
   33POPC    HY 4406   6.466   2.980   9.956  1.5115 -1.1334 -1.4759
   33POPC   O31 4407   6.674   2.997   9.961  0.2723  0.5869 -0.7069
   33POPC   C31 4408   6.681   2.901   9.873 -0.0951 -0.2058 -0.0823
   33POPC   O32 4409   6.591   2.824   9.846  0.5347  0.0640 -0.1713
   33POPC   C32 4410   6.818   2.903   9.804 -0.5225  0.8613 -0.1576
   33POPC   H2X 4411   6.854   2.798   9.807 -1.6741  0.4602  1.8080
   33POPC   H2Y 4412   6.900   2.960   9.853  0.5945 -2.0216  1.6183
   33POPC   C23 4413   6.310   2.510  10.032 -0.4611  0.0964 -0.7261
   33POPC   H3R 4414   6.247   2.514  10.123 -0.2857 -3.1848 -0.3330
   33POPC   H3S 4415   6.305   2.400  10.019 -0.5983  0.1141 -0.8174
   33POPC   C24 4416   6.249   2.576   9.907 -0.0850  0.4536 -0.9450
   33POPC   H4R 4417   6.208   2.676   9.932  0.4967  0.2647  0.9421
   33POPC   H4S 4418   6.169   2.513   9.862 -0.7385 -1.4422  2.5270
   33POPC   C25 4419   6.354   2.558   9.792  0.0607 -0.5251  0.2588
   33POPC   H5R 4420   6.365   2.450   9.767 -1.9047 -0.6558 -0.2134
   33POPC   H5S 4421   6.453   2.599   9.823 -0.7455  1.4411  0.3678
   33POPC   C26 4422   6.310   2.635   9.673  0.7192 -0.7052  0.3213
   33POPC   H6R 4423   6.317   2.745   9.687  2.9891 -0.6309 -1.0173
   33POPC   H6S 4424   6.210   2.598   9.641 -0.3571  0.9562  1.5761
   33POPC   C27 4425   6.395   2.597   9.561 -0.3134  0.5570  0.2003
   33POPC   H7R 4426   6.392   2.487   9.549  1.2738  0.6465 -1.3794
   33POPC   H7S 4427   6.500   2.623   9.589  0.6770 -2.7900  0.0467
   33POPC   C28 4428   6.369   2.657   9.422 -0.0464 -0.2280  0.2023
   33POPC   H8R 4429   6.288   2.596   9.375  0.0001 -0.4471  0.4075
   33POPC   H8S 4430   6.461   2.622   9.372  0.8519  1.5348  0.5598
   33POPC   C29 4431   6.341   2.804   9.407 -0.3671 -0.3156  0.2438
   33POPC   H91 4432   6.247   2.848   9.444 -0.3510 -0.5029  0.5022
   33POPC  C210 4433   6.431   2.893   9.359 -0.6828  0.3331  0.3424
   33POPC  H101 4434   6.396   2.997   9.361 -0.1257  0.5369 -0.2289
   33POPC  C211 4435   6.574   2.863   9.320 -0.2710 -0.2289  0.6563
   33POPC  H11R 4436   6.619   2.778   9.376 -2.1435  0.3253  3.1899
   33POPC  H11S 4437   6.631   2.957   9.337 -1.8420  0.9711 -0.4207
   33POPC  C212 4438   6.578   2.832   9.165  0.0736  0.5504  0.9497
   33POPC  H12R 4439   6.525   2.914   9.111  0.8328  0.6466  0.3261
   33POPC  H12S 4440   6.518   2.743   9.139  0.9054  0.6937 -1.8156
   33POPC  C213 4441   6.718   2.806   9.102 -0.0793 -0.2711  0.0574
   33POPC  H13R 4442   6.772   2.741   9.173 -0.0938 -0.7038 -0.3197
   33POPC  H13S 4443   6.765   2.907   9.099 -1.2798  0.5981  4.3789
   33POPC  C214 4444   6.725   2.750   8.958  0.0352  0.5754  0.3122
   33POPC  H14R 4445   6.828   2.755   8.918 -0.5867  1.2401 -1.2747
   33POPC  H14S 4446   6.659   2.817   8.898  0.8995  1.6155  0.5003
   33POPC  C215 4447   6.671   2.603   8.953 -0.6240 -0.4230  0.1389
   33POPC  H15R 4448   6.616   2.581   8.859 -1.8252 -0.6253  0.8782
   33POPC  H15S 4449   6.597   2.593   9.035  1.8494  0.3080  2.6293
   33POPC  C216 4450   6.771   2.484   8.966  0.3086 -0.5058  0.2368
   33POPC  H16R 4451   6.818   2.494   9.066  0.1518 -0.1681  0.2777
   33POPC  H16S 4452   6.850   2.508   8.891  1.8047  1.7695  2.3933
   33POPC  C217 4453   6.705   2.346   8.944 -0.4593  0.0554  0.1064
   33POPC  H17R 4454   6.618   2.338   9.013 -0.5860  1.1079  0.0774
   33POPC  H17S 4455   6.764   2.256   8.971  0.2288  0.2681 -0.6699
   33POPC  C218 4456   6.654   2.332   8.801  0.3117 -0.1303  0.6381
   33POPC  H18R 4457   6.725   2.348   8.718 -1.2149  1.1883 -0.4762
   33POPC  H18S 4458   6.571   2.401   8.774  0.4114 -0.1406  0.2917
   33POPC  H18T 4459   6.617   2.227   8.795  0.2636 -0.0888  0.1226
   33POPC   C33 4460   6.814   2.950   9.659  0.4734  0.4199 -0.0091
   33POPC   H3X 4461   6.742   3.033   9.643 -0.4403 -0.6120 -1.5291
   33POPC   H3Y 4462   6.786   2.863   9.596  0.8754 -0.1174  0.5386
   33POPC   C34 4463   6.952   3.000   9.615 -0.3024  0.7131  0.0294
   33POPC   H4X 4464   7.014   2.917   9.652 -0.6469  0.3598 -0.1792
   33POPC   H4Y 4465   6.981   3.098   9.659  0.1876  1.3017 -1.5312
   33POPC   C35 4466   6.974   2.987   9.461  0.3503  1.1656 -0.7162
   33POPC   H5X 4467   6.903   3.055   9.409 -0.0041  0.7349 -0.8007
   33POPC   H5Y 4468   6.958   2.881   9.432 -0.7000  0.7125  1.2922
   33POPC   C36 4469   7.115   3.024   9.419  0.2450  0.2519  0.8269
   33POPC   H6X 4470   7.176   2.938   9.455 -3.2399 -1.6500  2.6765
   33POPC   H6Y 4471   7.149   3.115   9.473  0.4600  0.6872 -0.0249
   33POPC   C37 4472   7.121   3.055   9.265  0.2374  0.6880  0.1860
   33POPC   H7X 4473   7.062   3.144   9.236 -2.1566 -0.8200  0.0949
   33POPC   H7Y 4474   7.080   2.966   9.213  0.4378 -1.0045  2.7406
   33POPC   C38 4475   7.261   3.082   9.208  0.0926 -0.1586 -0.2809
   33POPC   H8X 4476   7.321   2.989   9.219  2.5803  1.2419 -1.3093
   33POPC   H8Y 4477   7.314   3.153   9.275 -0.1685  1.3098 -1.5765
   33POPC   C39 4478   7.256   3.136   9.070 -0.3969  0.4163  0.3098
   33POPC   H9X 4479   7.216   3.240   9.077  0.5753  0.7372  1.7418
   33POPC   H9Y 4480   7.199   3.073   9.000  1.6612 -1.2968  0.0724
   33POPC  C310 4481   7.399   3.163   9.007 -0.5507  0.2809 -0.4479
   33POPC  H10X 4482   7.453   3.066   9.007  0.1322  0.6548 -1.4626
   33POPC  H10Y 4483   7.456   3.237   9.067 -1.1386  0.6205 -0.2965
   33POPC  C311 4484   7.385   3.194   8.859 -0.3997  0.2076  0.4690
   33POPC  H11X 4485   7.345   3.297   8.853 -2.3920 -0.6050 -2.9086
   33POPC  H11Y 4486   7.316   3.116   8.819  0.0050 -0.5602  1.2387
   33POPC  C312 4487   7.524   3.199   8.790  0.7323  0.0838 -0.1998
   33POPC  H12X 4488   7.583   3.107   8.810  0.4826  0.0769  0.5396
   33POPC  H12Y 4489   7.582   3.278   8.842 -0.5700  1.5172 -0.8626
   33POPC  C313 4490   7.517   3.250   8.650  0.2405  0.7147  0.6911
   33POPC  H13X 4491   7.424   3.310   8.643 -0.3381 -0.0758  1.4238
   33POPC  H13Y 4492   7.496   3.172   8.575  1.0409 -0.0511  1.2460
   33POPC  C314 4493   7.628   3.343   8.606 -0.3999  0.5392 -0.1357
   33POPC  H14X 4494   7.730   3.300   8.613  1.1115  3.7948 -0.3542
   33POPC  H14Y 4495   7.643   3.417   8.688 -1.0870 -0.9167  1.3728
   33POPC  C315 4496   7.610   3.405   8.469  0.6039  1.0945  0.3213
   33POPC  H15X 4497   7.686   3.483   8.448 -0.7647  2.2034 -0.6400
   33POPC  H15Y 4498   7.511   3.454   8.465  0.5951  1.0906  0.4692
   33POPC  C316 4499   7.634   3.303   8.364 -0.1809 -0.5138 -0.3922
   33POPC  H16X 4500   7.565   3.217   8.373 -1.2694  0.3622 -0.1853
   33POPC  H16Y 4501   7.739   3.274   8.384  0.7641  3.1366  0.7211
   33POPC  H16Z 4502   7.629   3.351   8.264 -0.3130  1.1271  0.3572
   34POPC     N 4503   6.474   3.455  10.586  0.2253  0.3618 -0.4435
   34POPC   C12 4504   6.597   3.515  10.519  0.0481 -1.0464 -0.5442
   34POPC  H12A 4505   6.669   3.437  10.496  1.0197 -0.7180  1.2178
   34POPC  H12B 4506   6.656   3.572  10.589 -3.1822  2.2604 -0.2474
   34POPC   C13 4507   6.412   3.348  10.499 -0.3268 -0.2864 -0.3416
   34POPC  H13A 4508   6.312   3.339  10.539 -0.7596  2.1272 -0.7146
   34POPC  H13B 4509   6.394   3.364  10.394 -1.7157 -1.1703 -0.2604
   34POPC  H13C 4510   6.465   3.255  10.512 -0.2275 -0.6342 -2.7200
   34POPC   C14 4511   6.517   3.383  10.716 -0.2845  0.5111  1.0700
   34POPC  H14A 4512   6.581   3.299  10.695 -1.3506  0.0760 -0.6573
   34POPC  H14B 4513   6.571   3.447  10.784  0.4301  0.2901  0.7234
   34POPC  H14C 4514   6.430   3.347  10.770  0.1283  0.4850  1.7329
   34POPC   C15 4515   6.372   3.561  10.605  1.0812 -0.1171 -0.1906
   34POPC  H15A 4516   6.356   3.620  10.516 -0.8833  1.2403  1.0014
   34POPC  H15B 4517   6.395   3.628  10.686  0.7143 -1.5714  1.1542
   34POPC  H15C 4518   6.279   3.515  10.635  1.8788 -2.2561 -0.7543
   34POPC   C11 4519   6.577   3.596  10.388 -0.3328  0.2589  0.6685
   34POPC  H11A 4520   6.526   3.531  10.314  0.7113 -0.7545  0.8124
   34POPC  H11B 4521   6.679   3.621  10.352  0.5031 -1.5995  1.5802
   34POPC     P 4522   6.563   3.834  10.491 -0.0530  0.1230  0.4352
   34POPC   O13 4523   6.672   3.885  10.413 -0.2615  0.1715 -0.6891
   34POPC   O14 4524   6.601   3.794  10.630 -0.5807  0.7603  0.1152
   34POPC   O12 4525   6.500   3.710  10.412 -0.6420 -0.2053  0.4129
   34POPC   O11 4526   6.448   3.947  10.504  0.0775  0.0222 -0.0069
   34POPC    C1 4527   6.316   3.939  10.451  0.1901 -0.1910 -0.4209
   34POPC    HA 4528   6.244   4.005  10.504  1.0210  0.0324  0.4441
   34POPC    HB 4529   6.285   3.832  10.445  2.8780 -1.0096 -1.1268
   34POPC    C2 4530   6.313   4.009  10.310  0.1329  0.3175  0.1890
   34POPC    HS 4531   6.206   4.014  10.281  0.1897  0.5444  0.0174
   34POPC   O21 4532   6.389   3.947  10.214 -0.4336 -0.2024  0.4992
   34POPC   C21 4533   6.358   3.820  10.181 -0.4417  0.9214  0.0274
   34POPC   O22 4534   6.255   3.762  10.219  0.4962 -0.3796 -0.2208
   34POPC   C22 4535   6.463   3.761  10.086 -0.0734  0.7946 -0.8756
   34POPC   H2R 4536   6.461   3.652  10.106 -1.3686  0.8625 -0.5166
   34POPC   H2S 4537   6.561   3.813  10.093  1.6771 -2.5369  2.9093
   34POPC    C3 4538   6.368   4.157  10.321 -0.6138 -0.4787  0.7027
   34POPC    HX 4539   6.474   4.149  10.355 -0.8648 -4.0047  0.9370
   34POPC    HY 4540   6.323   4.209  10.409 -1.1326  1.1717 -0.4726
   34POPC   O31 4541   6.342   4.230  10.204  0.1675  0.6153 -0.4354
   34POPC   C31 4542   6.440   4.253  10.123 -0.5306 -0.2247  1.2041
   34POPC   O32 4543   6.555   4.224  10.148 -0.6294 -0.4448  0.5168
   34POPC   C32 4544   6.389   4.311   9.992  0.1502 -0.5446  0.4376
   34POPC   H2X 4545   6.421   4.417   9.987 -1.2159 -0.0792  1.0276
   34POPC   H2Y 4546   6.278   4.311   9.991  0.0565  2.4408 -1.4762
   34POPC   C23 4547   6.411   3.759   9.946 -0.4120  0.2588  0.6535
   34POPC   H3R 4548   6.396   3.866   9.920 -0.9997  0.2264  0.8287
   34POPC   H3S 4549   6.310   3.714   9.933  0.2980 -0.7712 -1.9087
   34POPC   C24 4550   6.522   3.705   9.844 -0.1993 -0.0799 -0.4934
   34POPC   H4R 4551   6.493   3.606   9.803 -0.3759 -0.3778  0.3302
   34POPC   H4S 4552   6.617   3.712   9.901 -0.9098 -1.3890  0.8969
   34POPC   C25 4553   6.549   3.804   9.725  0.1704  0.5962  0.0916
   34POPC   H5R 4554   6.642   3.762   9.680  1.1738  0.5435  2.1123
   34POPC   H5S 4555   6.577   3.904   9.763  1.9889  1.0768 -2.2621
   34POPC   C26 4556   6.435   3.803   9.627  0.3168 -0.2164  0.4723
   34POPC   H6R 4557   6.454   3.897   9.570  1.8559 -0.5211  0.4308
   34POPC   H6S 4558   6.336   3.816   9.677  0.3485 -1.7994  0.9959
   34POPC   C27 4559   6.430   3.680   9.532  0.0756  0.3105 -0.6259
   34POPC   H7R 4560   6.399   3.590   9.589 -1.1455  0.8577 -0.4084
   34POPC   H7S 4561   6.537   3.667   9.502  0.5182  0.7973  0.6659
   34POPC   C28 4562   6.332   3.689   9.415  0.4891  0.2335  0.5062
   34POPC   H8R 4563   6.237   3.707   9.469 -0.0500  0.6676 -0.5488
   34POPC   H8S 4564   6.323   3.595   9.358 -1.1837  0.3841  0.4734
   34POPC   C29 4565   6.375   3.801   9.318  0.9820  0.2686  0.3907
   34POPC   H91 4566   6.395   3.897   9.368  2.0089  0.5423 -0.4896
   34POPC  C210 4567   6.397   3.788   9.183 -0.4859 -0.2631  0.0755
   34POPC  H101 4568   6.426   3.877   9.125  0.3452 -2.5681 -3.3512
   34POPC  C211 4569   6.382   3.661   9.101  0.0812 -0.1481 -0.0195
   34POPC  H11R 4570   6.334   3.693   9.006 -1.4057  0.9429  1.0521
   34POPC  H11S 4571   6.309   3.591   9.147  0.8283  0.1230  1.6548
   34POPC  C212 4572   6.517   3.591   9.070  0.4196 -0.0325 -0.6352
   34POPC  H12R 4573   6.499   3.490   9.028 -1.2008  0.6687 -1.7009
   34POPC  H12S 4574   6.572   3.576   9.165 -1.6918 -1.7603  0.3939
   34POPC  C213 4575   6.608   3.655   8.966 -0.2844 -0.2500 -0.0020
   34POPC  H13R 4576   6.713   3.621   8.978 -0.6578 -1.8420 -0.9785
   34POPC  H13S 4577   6.603   3.766   8.978  1.0985  0.0860 -1.9560
   34POPC  C214 4578   6.565   3.619   8.820  0.1833  0.0882 -0.2756
   34POPC  H14R 4579   6.457   3.595   8.830  0.6727 -2.1439  0.1604
   34POPC  H14S 4580   6.613   3.531   8.771 -0.4574 -0.3701 -0.0924
   34POPC  C215 4581   6.600   3.744   8.737  0.2572 -0.1297  0.5351
   34POPC  H15R 4582   6.709   3.766   8.729  0.5188 -1.1714  0.9891
   34POPC  H15S 4583   6.544   3.822   8.793  0.1701 -0.2726  0.6491
   34POPC  C216 4584   6.553   3.731   8.587 -0.3081  0.4962  0.7681
   34POPC  H16R 4585   6.453   3.685   8.574  0.6756 -1.5945  0.1311
   34POPC  H16S 4586   6.621   3.652   8.547 -1.1306 -0.7522  1.7479
   34POPC  C217 4587   6.560   3.866   8.515  0.6996  0.1612  1.0533
   34POPC  H17R 4588   6.486   3.930   8.568 -2.1326 -0.9959 -1.2404
   34POPC  H17S 4589   6.533   3.869   8.407 -0.8813 -1.9330  1.3408
   34POPC  C218 4590   6.699   3.923   8.519  0.1661 -0.2316 -0.0027
   34POPC  H18R 4591   6.702   4.028   8.482 -3.9956 -0.3342 -1.0845
   34POPC  H18S 4592   6.772   3.862   8.461  1.2803  0.7385  0.3288
   34POPC  H18T 4593   6.744   3.927   8.620  0.5546 -0.9012 -0.1449
   34POPC   C33 4594   6.453   4.234   9.865  0.3283 -0.7387 -0.0432
   34POPC   H3X 4595   6.413   4.131   9.852 -0.9602 -0.1735 -0.7876
   34POPC   H3Y 4596   6.564   4.238   9.870  0.2996  1.6747 -0.0277
   34POPC   C34 4597   6.429   4.303   9.729  1.0573  0.5674 -0.5844
   34POPC   H4X 4598   6.477   4.404   9.728  0.0630  1.0837  0.9886
   34POPC   H4Y 4599   6.323   4.327   9.705  0.2048  0.0313  2.3486
   34POPC   C35 4600   6.488   4.225   9.616 -0.9053  0.4384  0.4464
   34POPC   H5X 4601   6.424   4.134   9.609  1.1658 -1.0717 -0.0932
   34POPC   H5Y 4602   6.591   4.183   9.622 -2.1475 -2.8865  0.6951
   34POPC   C36 4603   6.472   4.305   9.481  0.4547  0.2858  0.1891
   34POPC   H6X 4604   6.553   4.380   9.493  1.4753 -0.5438 -1.1237
   34POPC   H6Y 4605   6.374   4.357   9.476  0.5495  0.4698  0.2160
   34POPC   C37 4606   6.486   4.229   9.340  0.6223  0.3346 -0.0476
   34POPC   H7X 4607   6.406   4.153   9.337 -0.4155  1.3518  0.9647
   34POPC   H7Y 4608   6.588   4.189   9.322  0.2194 -1.7533  1.8976
   34POPC   C38 4609   6.464   4.324   9.224  0.6677 -0.9993  0.3150
   34POPC   H8X 4610   6.365   4.374   9.229  2.2239  2.2583  1.4816
   34POPC   H8Y 4611   6.464   4.273   9.125  0.1518  1.1843 -0.8762
   34POPC   C39 4612   6.570   4.434   9.212  0.0350 -0.5252  0.0694
   34POPC   H9X 4613   6.672   4.395   9.190  1.0742  2.7376 -1.6227
   34POPC   H9Y 4614   6.569   4.496   9.304  1.7371 -0.7607  0.2885
   34POPC  C310 4615   6.554   4.533   9.094 -1.1440  0.7949  0.3204
   34POPC  H10X 4616   6.581   4.487   8.997  0.1686  1.7331  0.2044
   34POPC  H10Y 4617   6.639   4.604   9.106 -1.1273  0.5079  2.3484
   34POPC  C311 4618   6.425   4.616   9.098  0.1107  0.7132  0.5118
   34POPC  H11X 4619   6.404   4.637   9.205  0.1221  1.0310  0.4526
   34POPC  H11Y 4620   6.342   4.557   9.052 -0.4077  3.7177 -2.7868
   34POPC  C312 4621   6.428   4.745   9.023  0.3038  0.0701  0.2920
   34POPC  H12X 4622   6.523   4.794   9.052 -0.9666  1.1773  2.7720
   34POPC  H12Y 4623   6.347   4.815   9.050 -0.0694  1.4165 -3.6383
   34POPC  C313 4624   6.414   4.723   8.871  0.3000  0.3699  0.3973
   34POPC  H13X 4625   6.314   4.677   8.859  0.1019  0.6925  0.7920
   34POPC  H13Y 4626   6.487   4.646   8.840 -1.0130 -0.2882 -1.1981
   34POPC  C314 4627   6.413   4.848   8.788  0.1262  0.0483 -0.6855
   34POPC  H14X 4628   6.508   4.903   8.805 -0.1263  0.1262  0.6209
   34POPC  H14Y 4629   6.321   4.903   8.819  1.8773  1.8381  1.7475
   34POPC  C315 4630   6.386   4.823   8.639  0.6887  0.1468  0.0402
   34POPC  H15X 4631   6.293   4.770   8.609  1.2814 -0.1328 -1.4107
   34POPC  H15Y 4632   6.463   4.747   8.611 -0.4023 -0.9359 -0.1265
   34POPC  C316 4633   6.391   4.952   8.556 -0.0221 -0.0919 -0.7576
   34POPC  H16X 4634   6.484   5.010   8.575  1.0651 -2.3546  1.3384
   34POPC  H16Y 4635   6.303   5.017   8.577  2.0444  2.3256  0.9084
   34POPC  H16Z 4636   6.380   4.924   8.449 -0.4124  0.8314 -0.9649
   35POPC     N 4637   5.175   0.841  11.329 -0.2094 -0.2113  0.2679
   35POPC   C12 4638   5.195   0.749  11.206  0.0446 -0.5349 -0.1566
   35POPC  H12A 4639   5.113   0.683  11.179  1.2424 -2.0076 -0.3249
   35POPC  H12B 4640   5.276   0.682  11.232  1.7431  2.0551  1.6936
   35POPC   C13 4641   5.150   0.754  11.446  0.6388 -0.2427 -0.2926
   35POPC  H13A 4642   5.069   0.684  11.431 -0.9692  1.3716  0.3871
   35POPC  H13B 4643   5.227   0.683  11.471  0.4820 -0.5303 -0.6242
   35POPC  H13C 4644   5.122   0.816  11.530  2.2183  0.4457 -0.2511
   35POPC   C14 4645   5.304   0.915  11.354 -1.0265  0.0065 -0.5504
   35POPC  H14A 4646   5.389   0.851  11.373 -0.6224  0.2170 -1.5544
   35POPC  H14B 4647   5.334   0.984  11.276  2.3730  2.9356  2.9002
   35POPC  H14C 4648   5.297   0.962  11.451 -1.8754  0.5228 -0.8474
   35POPC   C15 4649   5.060   0.935  11.313  0.1629  0.1989  0.2174
   35POPC  H15A 4650   5.070   1.000  11.227 -0.1609 -1.7730 -1.3868
   35POPC  H15B 4651   5.054   0.998  11.401  0.0014  1.8319 -0.9088
   35POPC  H15C 4652   4.968   0.881  11.301  0.6194 -0.7430  0.8901
   35POPC   C11 4653   5.227   0.815  11.072 -0.6492  0.8631  0.2743
   35POPC  H11A 4654   5.278   0.743  11.004 -0.2231  0.9779  0.4672
   35POPC  H11B 4655   5.296   0.900  11.091 -1.3461  1.5524 -0.1915
   35POPC     P 4656   5.010   0.764  10.941  0.1756  0.2531  0.0893
   35POPC   O13 4657   4.895   0.839  10.894 -0.1380 -0.0380 -0.3701
   35POPC   O14 4658   4.980   0.654  11.032  0.3453  0.5821  0.5129
   35POPC   O12 4659   5.104   0.858  11.010 -0.1948  0.1189  0.1343
   35POPC   O11 4660   5.086   0.704  10.817 -0.0518 -0.2096 -0.0810
   35POPC    C1 4661   5.197   0.768  10.755 -0.6713  0.2751 -0.1359
   35POPC    HA 4662   5.290   0.709  10.772  1.1207  1.8557 -3.5233
   35POPC    HB 4663   5.216   0.871  10.792  1.3234  0.0265 -0.3310
   35POPC    C2 4664   5.175   0.779  10.597 -0.0663 -0.3069  0.1131
   35POPC    HS 4665   5.238   0.862  10.558  1.0273 -0.8193  0.7718
   35POPC   O21 4666   5.037   0.805  10.562 -0.4640 -0.6047  0.1216
   35POPC   C21 4667   4.983   0.917  10.598 -0.0148  0.2108 -0.2501
   35POPC   O22 4668   5.043   1.013  10.639 -0.7035 -0.1048  0.0375
   35POPC   C22 4669   4.834   0.907  10.581 -0.0501 -0.3271  0.4397
   35POPC   H2R 4670   4.810   1.015  10.567 -1.4354 -0.6962 -0.1787
   35POPC   H2S 4671   4.802   0.864  10.678  2.0071  0.5984  1.5933
   35POPC    C3 4672   5.203   0.649  10.516  0.0222 -0.1080 -0.0199
   35POPC    HX 4673   5.170   0.561  10.576 -0.7311 -0.6186 -1.1628
   35POPC    HY 4674   5.314   0.644  10.515  0.0777 -0.9543  2.5332
   35POPC   O31 4675   5.147   0.642  10.385 -0.1354 -0.2105  0.1759
   35POPC   C31 4676   5.186   0.729  10.292  0.4958  0.3339 -0.1344
   35POPC   O32 4677   5.259   0.826  10.301 -0.2157 -0.8870  0.2044
   35POPC   C32 4678   5.107   0.706  10.167 -0.0813 -0.1824  0.3594
   35POPC   H2X 4679   5.004   0.728  10.204  0.4269 -0.2272  1.8673
   35POPC   H2Y 4680   5.129   0.604  10.129 -0.3626 -0.9758  2.2050
   35POPC   C23 4681   4.780   0.838  10.453 -0.0510  0.1152 -0.4212
   35POPC   H3R 4682   4.674   0.816  10.478  0.1968  0.4794  1.0318
   35POPC   H3S 4683   4.837   0.745  10.431  0.5032  0.6709 -1.4230
   35POPC   C24 4684   4.798   0.923  10.331 -0.3138  0.2838 -0.3295
   35POPC   H4R 4685   4.902   0.944  10.300 -0.6533  1.4222 -0.7538
   35POPC   H4S 4686   4.761   1.025  10.358 -0.9373  0.3507 -1.3778
   35POPC   C25 4687   4.714   0.886  10.199  0.1814  0.5792  0.0318
   35POPC   H5R 4688   4.622   0.833  10.231  1.8208 -0.8597  2.7017
   35POPC   H5S 4689   4.765   0.796  10.160  0.3855  0.3687  0.7573
   35POPC   C26 4690   4.708   0.992  10.094  0.5502  0.3883 -0.5024
   35POPC   H6R 4691   4.811   1.028  10.073  0.7257  0.2335  0.0752
   35POPC   H6S 4692   4.639   1.075  10.121  0.6310  0.5211 -0.7002
   35POPC   C27 4693   4.641   0.927   9.966 -0.7026 -0.7560 -0.2711
   35POPC   H7R 4694   4.544   0.882   9.994 -0.6067 -1.6552 -1.2971
   35POPC   H7S 4695   4.706   0.845   9.928  1.7558 -0.1216  2.2427
   35POPC   C28 4696   4.615   1.034   9.856 -0.4616 -0.3500  0.1773
   35POPC   H8R 4697   4.590   1.123   9.918  0.2034 -0.8276  1.1434
   35POPC   H8S 4698   4.525   1.012   9.794 -1.1300  2.0464  0.2014
   35POPC   C29 4699   4.740   1.057   9.775  0.0915  0.9126 -0.4324
   35POPC   H91 4700   4.834   1.082   9.827  0.5783 -0.0818 -0.8163
   35POPC  C210 4701   4.750   1.050   9.642 -0.0258 -0.1085 -0.3219
   35POPC  H101 4702   4.844   1.073   9.589  0.1301  0.8682  0.3565
   35POPC  C211 4703   4.646   1.010   9.539  0.5413  0.4678 -0.3118
   35POPC  H11R 4704   4.592   1.104   9.514  0.5390  1.0820  1.8086
   35POPC  H11S 4705   4.565   0.947   9.583  0.9622 -1.9308 -2.7287
   35POPC  C212 4706   4.707   0.945   9.420  0.3343  0.4299 -0.1201
   35POPC  H12R 4707   4.733   0.840   9.448  1.1097  0.2751 -1.3395
   35POPC  H12S 4708   4.803   0.994   9.395  1.0748  1.6293  4.2999
   35POPC  C213 4709   4.612   0.935   9.300 -0.1807  0.4230  0.2305
   35POPC  H13R 4710   4.519   0.993   9.317 -0.0043  0.9913 -0.7092
   35POPC  H13S 4711   4.574   0.832   9.290  1.1036 -0.0616  0.1334
   35POPC  C214 4712   4.674   0.993   9.173 -0.2898  0.5660  0.4244
   35POPC  H14R 4713   4.770   0.939   9.153  0.3276  1.3657  1.1573
   35POPC  H14S 4714   4.701   1.095   9.207 -1.0952 -0.0244  3.0449
   35POPC  C215 4715   4.580   1.013   9.057 -0.4995 -0.1966 -0.5274
   35POPC  H15R 4716   4.486   1.064   9.085  0.1021  0.3978  0.4378
   35POPC  H15S 4717   4.546   0.918   9.009 -3.2875  0.2464  0.3960
   35POPC  C216 4718   4.636   1.092   8.937  0.2928  1.1431  0.0240
   35POPC  H16R 4719   4.712   1.030   8.885 -0.3902  0.5929 -0.3356
   35POPC  H16S 4720   4.678   1.188   8.973  0.7333  0.7189  0.6870
   35POPC  C217 4721   4.546   1.116   8.812  1.0714 -0.0085 -0.0502
   35POPC  H17R 4722   4.450   1.163   8.842  0.0906  0.1764 -3.1503
   35POPC  H17S 4723   4.514   1.021   8.765  0.1137  1.8792 -3.6086
   35POPC  C218 4724   4.610   1.207   8.711 -0.3245  0.2319 -0.1641
   35POPC  H18R 4725   4.537   1.244   8.636  0.6397 -0.3876 -1.4357
   35POPC  H18S 4726   4.694   1.160   8.655 -0.0694 -0.2292  0.5908
   35POPC  H18T 4727   4.650   1.297   8.763 -0.0528 -0.7487  1.4178
   35POPC   C33 4728   5.128   0.816  10.065  0.2776  1.2278  0.1799
   35POPC   H3X 4729   5.227   0.795  10.019 -0.0360  0.0396  0.0160
   35POPC   H3Y 4730   5.113   0.919  10.104 -0.8580  1.3241 -0.4682
   35POPC   C34 4731   5.034   0.781   9.945  0.1055  0.3256  0.5173
   35POPC   H4X 4732   4.936   0.818   9.982 -0.5520  1.7256 -2.3188
   35POPC   H4Y 4733   5.026   0.671   9.931  0.4508 -0.0124  2.6867
   35POPC   C35 4734   5.068   0.841   9.805 -0.9282 -0.7726  0.5676
   35POPC   H5X 4735   5.172   0.879   9.796 -0.8991 -1.2041 -1.5584
   35POPC   H5Y 4736   5.000   0.929   9.794  0.2004  0.6271  3.7320
   35POPC   C36 4737   5.048   0.740   9.687  0.1873 -0.3388 -0.5530
   35POPC   H6X 4738   4.948   0.694   9.701 -0.2575  0.8395  0.2878
   35POPC   H6Y 4739   5.120   0.657   9.701  0.8888 -0.2589 -3.2314
   35POPC   C37 4740   5.068   0.792   9.546 -0.7244  0.0549  0.5876
   35POPC   H7X 4741   5.169   0.834   9.526 -0.7379 -0.7406 -1.3226
   35POPC   H7Y 4742   5.003   0.882   9.534  0.0471  0.5585  0.0761
   35POPC   C38 4743   5.037   0.674   9.442  0.3944 -0.6332  0.0716
   35POPC   H8X 4744   4.928   0.653   9.429  0.9315 -3.8887 -0.1095
   35POPC   H8Y 4745   5.077   0.581   9.488  1.2742  0.9480  2.6795
   35POPC   C39 4746   5.104   0.712   9.307 -0.2959  0.3046 -0.4172
   35POPC   H9X 4747   5.119   0.622   9.244  2.7640 -1.0835  2.0216
   35POPC   H9Y 4748   5.210   0.740   9.326 -0.1833  0.0841 -0.7057
   35POPC  C310 4749   5.033   0.829   9.237 -0.2700 -0.6326  0.4557
   35POPC  H10X 4750   5.044   0.918   9.302  0.2709 -1.9910  2.2962
   35POPC  H10Y 4751   4.926   0.802   9.222  0.0028 -0.7804 -1.5286
   35POPC  C311 4752   5.096   0.867   9.096  0.1359  0.6143  0.2786
   35POPC  H11X 4753   5.206   0.883   9.099  0.1007  2.2133 -2.9098
   35POPC  H11Y 4754   5.055   0.969   9.080  0.6192  0.7363 -0.1928
   35POPC  C312 4755   5.052   0.773   8.981 -0.2018  1.1952 -0.0015
   35POPC  H12X 4756   5.125   0.692   9.002 -0.5080  1.2073  1.1938
   35POPC  H12Y 4757   5.087   0.817   8.886 -0.3400  0.7855 -0.2416
   35POPC  C313 4758   4.904   0.739   8.972 -0.4936  0.1874  0.9833
   35POPC  H13X 4759   4.859   0.840   8.967  1.0243  0.8659 -0.0958
   35POPC  H13Y 4760   4.868   0.691   9.065  1.8486  1.2393  2.5402
   35POPC  C314 4761   4.872   0.642   8.850 -0.0193 -0.2235 -1.2992
   35POPC  H14X 4762   4.950   0.564   8.857  0.6147  0.4610 -0.7008
   35POPC  H14Y 4763   4.870   0.698   8.753  0.6802  0.9554 -0.6516
   35POPC  C315 4764   4.742   0.570   8.881  0.8494 -0.3978  0.4187
   35POPC  H15X 4765   4.766   0.500   8.964 -0.9764 -1.5095  0.0644
   35POPC  H15Y 4766   4.725   0.507   8.791  1.6219 -0.3076  0.1976
   35POPC  C316 4767   4.629   0.669   8.900  0.6595 -0.2041 -0.2785
   35POPC  H16X 4768   4.636   0.751   8.825 -2.4536 -0.8348 -1.3994
   35POPC  H16Y 4769   4.635   0.713   9.002  2.2015 -1.6357  0.2797
   35POPC  H16Z 4770   4.527   0.630   8.883  1.4727 -1.8380 -1.7120
   36POPC     N 4771   6.418   5.905  10.807  0.2022 -0.4198  0.8289
   36POPC   C12 4772   6.302   6.003  10.831  0.1919  0.8849 -0.2422
   36POPC  H12A 4773   6.309   6.042  10.932 -0.8552  2.4393 -0.7324
   36POPC  H12B 4774   6.209   5.953  10.812  0.5869  0.9628 -2.6842
   36POPC   C13 4775   6.405   5.849  10.670 -0.6558  1.0122  0.5493
   36POPC  H13A 4776   6.319   5.892  10.620  0.5960  1.3418 -1.4505
   36POPC  H13B 4777   6.496   5.860  10.613 -0.9462 -0.1034 -0.1753
   36POPC  H13C 4778   6.398   5.741  10.665 -2.0560  0.9976  2.0517
   36POPC   C14 4779   6.545   5.979  10.826  0.2653 -0.0654  0.3810
   36POPC  H14A 4780   6.638   5.930  10.800  0.0148  0.2045 -1.1653
   36POPC  H14B 4781   6.535   6.069  10.767  0.0853 -0.1305  0.3130
   36POPC  H14C 4782   6.565   6.019  10.924 -2.4814  0.2894  0.8550
   36POPC   C15 4783   6.401   5.786  10.908 -0.0102 -0.4673 -0.0101
   36POPC  H15A 4784   6.496   5.735  10.910  1.6407  2.1769 -2.4250
   36POPC  H15B 4785   6.318   5.729  10.870 -1.8102  2.9637 -1.7292
   36POPC  H15C 4786   6.377   5.823  11.007 -3.2337  0.0965 -0.8930
   36POPC   C11 4787   6.291   6.122  10.742  0.3154 -0.7759  0.1864
   36POPC  H11A 4788   6.187   6.161  10.740 -0.4102 -2.6444  0.0506
   36POPC  H11B 4789   6.301   6.097  10.634 -1.0889  1.1920 -0.4670
   36POPC     P 4790   6.464   6.333  10.702  0.4632  0.0908  0.5326
   36POPC   O13 4791   6.580   6.270  10.639 -0.3940 -0.0864 -0.0577
   36POPC   O14 4792   6.482   6.453  10.784  0.3237 -0.3467  0.8682
   36POPC   O12 4793   6.378   6.228  10.781 -0.1156  0.2189 -0.4550
   36POPC   O11 4794   6.367   6.373  10.580 -0.3148  0.1715  0.8979
   36POPC    C1 4795   6.232   6.415  10.595  0.2945 -0.0948 -0.1157
   36POPC    HA 4796   6.226   6.526  10.585 -0.0301  0.0134  1.1410
   36POPC    HB 4797   6.196   6.390  10.697 -3.5187 -0.6574 -1.4433
   36POPC    C2 4798   6.123   6.350  10.501 -0.0206 -0.4738  0.0134
   36POPC    HS 4799   6.114   6.242  10.526 -2.8272  0.0668  1.8579
   36POPC   O21 4800   6.165   6.382  10.368  0.5508  0.5663 -0.2414
   36POPC   C21 4801   6.109   6.308  10.270 -0.0909 -0.3548 -0.6030
   36POPC   O22 4802   6.043   6.208  10.282  0.3893 -0.1010  0.0583
   36POPC   C22 4803   6.146   6.375  10.134  0.1003 -0.0470 -1.0048
   36POPC   H2R 4804   6.247   6.339  10.102 -0.0668 -0.8508 -0.6513
   36POPC   H2S 4805   6.141   6.484  10.152  2.3096 -0.1993  1.1093
   36POPC    C3 4806   5.980   6.406  10.512 -0.4992 -0.2692 -0.7036
   36POPC    HX 4807   5.937   6.376  10.610 -2.3350 -1.4748 -1.8181
   36POPC    HY 4808   5.923   6.358  10.429 -0.5681  1.4535 -1.6967
   36POPC   O31 4809   5.981   6.550  10.497 -0.0069  0.1531  0.6496
   36POPC   C31 4810   5.869   6.605  10.463  0.1400 -1.0699  1.1528
   36POPC   O32 4811   5.760   6.553  10.469  0.1380  0.2446 -0.2382
   36POPC   C32 4812   5.893   6.752  10.430  0.8411  0.2506 -0.4603
   36POPC   H2X 4813   5.976   6.773  10.501  0.9309 -1.8295  0.1022
   36POPC   H2Y 4814   5.806   6.812  10.464  1.0586  1.8839 -2.5355
   36POPC   C23 4815   6.043   6.346  10.027 -0.1913  0.3069  0.1610
   36POPC   H3R 4816   5.943   6.384  10.058  0.6479  1.6038  1.3752
   36POPC   H3S 4817   6.030   6.238  10.005 -0.5130  0.7442 -2.0222
   36POPC   C24 4818   6.090   6.412   9.894  0.3499  0.3342 -0.0992
   36POPC   H4R 4819   6.192   6.379   9.868 -0.5804 -1.6435 -1.4257
   36POPC   H4S 4820   6.081   6.522   9.909 -0.9295  0.2411 -0.0709
   36POPC   C25 4821   6.005   6.377   9.771 -0.8202 -0.4419 -0.0137
   36POPC   H5R 4822   5.901   6.400   9.805 -0.6552 -0.7267  0.7035
   36POPC   H5S 4823   6.021   6.270   9.746 -0.5230 -0.8315  1.6932
   36POPC   C26 4824   6.047   6.455   9.648 -0.0219  0.3054 -0.3907
   36POPC   H6R 4825   6.157   6.452   9.633  0.4167  3.3926  1.3580
   36POPC   H6S 4826   6.017   6.562   9.654  0.9932  0.5750 -0.0057
   36POPC   C27 4827   5.970   6.400   9.524 -0.3483  0.7166 -0.3117
   36POPC   H7R 4828   5.861   6.414   9.541 -0.3362  0.4346 -0.0030
   36POPC   H7S 4829   5.987   6.290   9.525 -0.8966  0.6323  0.2373
   36POPC   C28 4830   5.984   6.479   9.391  0.1375 -0.2848  0.7838
   36POPC   H8R 4831   6.007   6.585   9.415 -0.0327 -0.2538  0.8130
   36POPC   H8S 4832   5.888   6.471   9.336  0.4923  3.4825 -0.7391
   36POPC   C29 4833   6.104   6.440   9.316 -0.2516 -0.3980  0.1770
   36POPC   H91 4834   6.195   6.418   9.374  0.6504  0.8403 -0.7087
   36POPC  C210 4835   6.097   6.408   9.186  0.4174  0.4124 -0.2291
   36POPC  H101 4836   6.194   6.378   9.145  0.3652  0.4796 -0.4022
   36POPC  C211 4837   5.974   6.397   9.096  0.2182  0.0918 -0.2267
   36POPC  H11R 4838   5.886   6.448   9.142  0.4286  2.2050 -1.9537
   36POPC  H11S 4839   5.948   6.289   9.092 -0.2956  0.0206  2.6774
   36POPC  C212 4840   6.002   6.455   8.952 -0.0919  0.1444 -0.0921
   36POPC  H12R 4841   6.095   6.398   8.930 -0.8997 -1.6633  0.8951
   36POPC  H12S 4842   6.034   6.561   8.957 -0.5751  0.3909 -1.6601
   36POPC  C213 4843   5.883   6.428   8.861 -0.1209  0.7522 -0.3546
   36POPC  H13R 4844   5.793   6.443   8.924  0.9537  1.1303  1.1796
   36POPC  H13S 4845   5.882   6.321   8.834  1.6684  0.4840  0.4352
   36POPC  C214 4846   5.867   6.493   8.724 -0.7061 -0.0774 -0.2518
   36POPC  H14R 4847   5.884   6.599   8.752 -0.5017  0.0729 -0.9297
   36POPC  H14S 4848   5.761   6.485   8.691 -0.5199 -3.3397 -0.3958
   36POPC  C215 4849   5.979   6.462   8.623 -0.1625  0.1902 -0.5960
   36POPC  H15R 4850   5.989   6.352   8.612 -2.2638 -0.2179  0.8644
   36POPC  H15S 4851   6.070   6.498   8.676 -1.0598  1.7927 -0.0663
   36POPC  C216 4852   5.979   6.531   8.483  0.3065  0.9012  0.6096
   36POPC  H16R 4853   6.074   6.496   8.437  1.4774  1.9165  2.1398
   36POPC  H16S 4854   5.959   6.639   8.499  0.1850  0.6208  2.6273
   36POPC  C217 4855   5.865   6.471   8.400 -0.1832  0.3898  0.8588
   36POPC  H17R 4856   5.840   6.372   8.443  0.2950  0.4224  1.2184
   36POPC  H17S 4857   5.902   6.456   8.296 -1.0969  0.2469  0.5408
   36POPC  C218 4858   5.734   6.554   8.398  0.0986  0.0759  0.0463
   36POPC  H18R 4859   5.757   6.662   8.384 -0.2496 -0.0835 -2.2494
   36POPC  H18S 4860   5.669   6.542   8.487 -0.0601  0.5059 -0.0051
   36POPC  H18T 4861   5.683   6.541   8.300 -1.2259  2.5547  0.3022
   36POPC   C33 4862   5.945   6.777  10.284 -0.2746  0.7085 -0.0731
   36POPC   H3X 4863   6.003   6.691  10.245  1.9344  1.5770  1.0909
   36POPC   H3Y 4864   6.008   6.869  10.289  0.2470  0.4786 -1.8198
   36POPC   C34 4865   5.830   6.796  10.177  0.4655 -0.6330 -0.0215
   36POPC   H4X 4866   5.880   6.851  10.094  1.1104 -1.2801 -0.0657
   36POPC   H4Y 4867   5.763   6.864  10.234  0.0126  0.5832 -1.9206
   36POPC   C35 4868   5.765   6.669  10.117  0.6415  0.4883 -0.1532
   36POPC   H5X 4869   5.721   6.606  10.198  0.6784  1.8705  0.9788
   36POPC   H5Y 4870   5.854   6.616  10.077  0.7641  0.4460  0.1712
   36POPC   C36 4871   5.663   6.704  10.008 -0.4673 -0.2877 -0.2172
   36POPC   H6X 4872   5.589   6.783  10.034  0.8735  1.4728 -1.5429
   36POPC   H6Y 4873   5.618   6.616   9.957  1.2839 -1.9553  0.9833
   36POPC   C37 4874   5.730   6.775   9.886  0.5755  0.4388  0.5698
   36POPC   H7X 4875   5.825   6.717   9.883  1.0044  1.1520  0.3103
   36POPC   H7Y 4876   5.747   6.877   9.925 -0.8531  0.5059  1.0639
   36POPC   C38 4877   5.656   6.770   9.747 -0.3042  0.3140 -0.0203
   36POPC   H8X 4878   5.718   6.831   9.677 -0.5647  0.2758 -0.2867
   36POPC   H8Y 4879   5.552   6.808   9.755 -0.6030 -0.8298  2.1475
   36POPC   C39 4880   5.658   6.629   9.689 -0.4312 -0.2348 -0.6427
   36POPC   H9X 4881   5.631   6.553   9.766  0.6430 -0.3139 -0.3381
   36POPC   H9Y 4882   5.762   6.602   9.664  0.1557  0.9740  0.3926
   36POPC  C310 4883   5.565   6.637   9.572  0.4865 -0.1444  0.5406
   36POPC  H10X 4884   5.473   6.692   9.599  0.0656 -1.5831  2.2166
   36POPC  H10Y 4885   5.530   6.534   9.551  1.6386 -0.6254  0.8860
   36POPC  C311 4886   5.625   6.703   9.449 -0.0549  0.2993 -0.3595
   36POPC  H11X 4887   5.728   6.671   9.423 -0.0195 -1.0807  1.3279
   36POPC  H11Y 4888   5.637   6.813   9.462  4.3311 -0.3036  2.7065
   36POPC  C312 4889   5.537   6.677   9.326  0.7741 -0.1394  0.1824
   36POPC  H12X 4890   5.432   6.684   9.361  0.5039 -3.4131  0.3809
   36POPC  H12Y 4891   5.550   6.569   9.302 -0.0136 -0.1907 -0.0230
   36POPC  C313 4892   5.565   6.757   9.194  0.5679 -0.2747  0.1770
   36POPC  H13X 4893   5.526   6.860   9.207 -1.1988 -1.1664  2.5451
   36POPC  H13Y 4894   5.508   6.702   9.116  1.7751 -1.1624 -0.1197
   36POPC  C314 4895   5.713   6.768   9.156  0.6072  0.1012  0.1096
   36POPC  H14X 4896   5.758   6.666   9.154 -0.1817 -0.2379 -1.1093
   36POPC  H14Y 4897   5.763   6.828   9.235 -0.4392  1.8463 -0.5150
   36POPC  C315 4898   5.735   6.829   9.022 -0.1196 -0.3725  0.0481
   36POPC  H15X 4899   5.690   6.930   9.020 -1.8267 -1.1112 -1.0405
   36POPC  H15Y 4900   5.684   6.768   8.945 -2.3584  1.6984 -0.2285
   36POPC  C316 4901   5.881   6.848   8.989 -0.3346  0.4822  0.0232
   36POPC  H16X 4902   5.903   6.941   8.932  0.4398  0.6429  0.5714
   36POPC  H16Y 4903   5.920   6.760   8.933 -1.1856 -0.7205  1.2500
   36POPC  H16Z 4904   5.946   6.855   9.079  2.0107 -1.6103 -1.3722
   37POPC     N 4905   4.438   3.923   6.057 -0.1722 -0.2393 -0.3443
   37POPC   C12 4906   4.565   3.841   6.041 -0.2638 -0.1757 -0.7894
   37POPC  H12A 4907   4.642   3.890   6.099  0.1328 -1.2233 -0.3969
   37POPC  H12B 4908   4.602   3.843   5.939  0.8950  1.1346 -0.3777
   37POPC   C13 4909   4.462   4.061   6.007 -1.1459 -0.2616  0.4302
   37POPC  H13A 4910   4.556   4.098   6.046 -0.9710 -2.7812  2.7051
   37POPC  H13B 4911   4.472   4.064   5.900  0.2824 -1.5753  0.4885
   37POPC  H13C 4912   4.388   4.135   6.033 -2.8084  0.2069 -4.6121
   37POPC   C14 4913   4.322   3.856   5.994 -0.2414  0.2094 -0.2875
   37POPC  H14A 4914   4.322   3.761   6.045  2.3590 -0.2041 -0.9050
   37POPC  H14B 4915   4.227   3.901   6.017 -0.6421 -0.3545 -0.8080
   37POPC  H14C 4916   4.340   3.850   5.887  0.4864  2.3783 -0.3400
   37POPC   C15 4917   4.411   3.931   6.202 -0.1683 -0.8782 -1.0114
   37POPC  H15A 4918   4.497   3.966   6.259  0.7820 -5.5979  0.9632
   37POPC  H15B 4919   4.396   3.834   6.247  0.0505  0.9199  3.5497
   37POPC  H15C 4920   4.322   3.984   6.232 -0.3663 -1.7734  0.0519
   37POPC   C11 4921   4.567   3.699   6.100 -0.9271 -0.0443 -0.8631
   37POPC  H11A 4922   4.665   3.653   6.073 -0.1231  1.0751  0.0597
   37POPC  H11B 4923   4.492   3.644   6.039 -0.4283  0.6941 -2.1841
   37POPC     P 4924   4.665   3.728   6.344  0.4014  0.2276 -0.1349
   37POPC   O13 4925   4.730   3.859   6.321 -0.6301  0.0220 -0.5785
   37POPC   O14 4926   4.754   3.606   6.339  0.0631 -0.2330  0.5295
   37POPC   O12 4927   4.549   3.705   6.242  0.5939 -0.0902  0.0459
   37POPC   O11 4928   4.586   3.740   6.489 -0.6393  0.6105  0.2524
   37POPC    C1 4929   4.472   3.654   6.509 -0.8552  0.2221  0.7325
   37POPC    HA 4930   4.482   3.585   6.596 -0.6882 -0.8259 -0.0881
   37POPC    HB 4931   4.454   3.583   6.426  1.3968  0.1731  0.2046
   37POPC    C2 4932   4.347   3.736   6.519  0.3397  0.2263  0.1935
   37POPC    HS 4933   4.333   3.778   6.417  0.8045  0.9380  0.4172
   37POPC   O21 4934   4.383   3.836   6.617  0.3332 -0.2539 -0.5788
   37POPC   C21 4935   4.310   3.951   6.600  0.5330  0.8974 -0.2391
   37POPC   O22 4936   4.226   3.967   6.519 -0.3757 -0.1154  0.2234
   37POPC   C22 4937   4.377   4.055   6.689  0.2618  1.0412  1.0026
   37POPC   H2R 4938   4.433   4.109   6.610  2.7861 -1.9178  0.5381
   37POPC   H2S 4939   4.450   4.004   6.756  1.3016 -0.3976 -1.1193
   37POPC    C3 4940   4.209   3.668   6.562  0.1560  0.2071  0.3192
   37POPC    HX 4941   4.189   3.582   6.494 -0.1604  0.5222  0.0153
   37POPC    HY 4942   4.127   3.741   6.550  0.3184  0.8036  2.4597
   37POPC   O31 4943   4.214   3.618   6.697  0.3518 -0.1154 -0.0599
   37POPC   C31 4944   4.168   3.695   6.800 -0.0455 -0.2773 -0.2330
   37POPC   O32 4945   4.129   3.808   6.786 -0.0712  0.2317  0.2043
   37POPC   C32 4946   4.186   3.624   6.933  0.0465  0.0791  0.1438
   37POPC   H2X 4947   4.262   3.543   6.918  2.6616  2.5130 -0.6086
   37POPC   H2Y 4948   4.094   3.575   6.972  2.4059 -2.0281  3.6759
   37POPC   C23 4949   4.275   4.141   6.758  0.2155 -0.4647  0.4775
   37POPC   H3R 4950   4.207   4.075   6.816 -1.1128 -0.0069 -0.5305
   37POPC   H3S 4951   4.205   4.187   6.685 -1.4748 -1.6334  1.2999
   37POPC   C24 4952   4.337   4.247   6.854  0.5346  0.3030 -0.3323
   37POPC   H4R 4953   4.257   4.315   6.887  0.3417 -0.8077  1.6658
   37POPC   H4S 4954   4.397   4.321   6.798 -0.1439  0.1811 -1.2409
   37POPC   C25 4955   4.426   4.195   6.971  0.3041 -0.5036  0.2854
   37POPC   H5R 4956   4.528   4.185   6.929 -0.5687  0.2803 -2.1461
   37POPC   H5S 4957   4.402   4.091   7.003  0.9084 -0.5497  0.6108
   37POPC   C26 4958   4.413   4.292   7.090 -0.2875 -0.9834 -0.5963
   37POPC   H6R 4959   4.311   4.272   7.128 -0.3333 -0.3779 -0.3863
   37POPC   H6S 4960   4.405   4.394   7.047 -0.4059 -0.4452  0.6593
   37POPC   C27 4961   4.517   4.263   7.200 -0.4757 -0.8097  0.6036
   37POPC   H7R 4962   4.620   4.288   7.166 -0.6731 -1.3857 -0.4813
   37POPC   H7S 4963   4.513   4.152   7.207 -0.5949 -0.8209  0.3823
   37POPC   C28 4964   4.507   4.327   7.339 -0.3173 -0.2913 -0.7046
   37POPC   H8R 4965   4.526   4.435   7.322 -2.4722 -0.1491 -2.7133
   37POPC   H8S 4966   4.595   4.278   7.387 -0.7943  0.8088  1.4108
   37POPC   C29 4967   4.379   4.296   7.412  0.0778  0.7004 -0.0068
   37POPC   H91 4968   4.290   4.297   7.347  0.4901 -1.2753 -0.6799
   37POPC  C210 4969   4.350   4.280   7.542  0.4228  0.5653 -0.0858
   37POPC  H101 4970   4.245   4.275   7.575 -0.5716 -0.3821 -3.0432
   37POPC  C211 4971   4.432   4.287   7.662 -0.0925  0.6752  0.0645
   37POPC  H11R 4972   4.402   4.379   7.716 -0.5498  0.8701 -0.5196
   37POPC  H11S 4973   4.542   4.293   7.648  0.1638 -2.2391  0.0515
   37POPC  C212 4974   4.401   4.168   7.757  0.4163  0.7778 -0.6518
   37POPC  H12R 4975   4.448   4.087   7.697 -0.3104 -1.5788  1.7807
   37POPC  H12S 4976   4.291   4.159   7.769  0.5775  0.4721  0.8118
   37POPC  C213 4977   4.476   4.198   7.887 -0.5743 -0.8543 -0.1844
   37POPC  H13R 4978   4.428   4.267   7.959  1.3252 -0.6623  0.9811
   37POPC  H13S 4979   4.579   4.239   7.875 -0.8979  0.4460  1.1215
   37POPC  C214 4980   4.492   4.071   7.975 -0.1543 -0.0487 -0.0123
   37POPC  H14R 4981   4.588   4.058   8.028 -0.8253 -1.4254  0.9330
   37POPC  H14S 4982   4.490   3.986   7.903  1.6277  1.3893 -1.8759
   37POPC  C215 4983   4.374   4.058   8.062  0.5891  0.1605  0.0105
   37POPC  H15R 4984   4.279   4.070   8.006 -0.6945 -0.0024  2.0669
   37POPC  H15S 4985   4.375   4.141   8.136  0.7456 -1.1322  1.5252
   37POPC  C216 4986   4.358   3.925   8.137  0.0671 -0.9739  0.0148
   37POPC  H16R 4987   4.446   3.909   8.202  0.6192  1.6016 -0.0107
   37POPC  H16S 4988   4.363   3.846   8.059  0.1323 -0.7177 -0.2381
   37POPC  C217 4989   4.226   3.897   8.221 -0.0593  0.2936  0.1586
   37POPC  H17R 4990   4.140   3.893   8.150 -0.9365  2.0931  1.0422
   37POPC  H17S 4991   4.205   3.994   8.270  2.8006  2.0103 -1.7300
   37POPC  C218 4992   4.245   3.778   8.314 -0.4020 -0.5749  0.2247
   37POPC  H18R 4993   4.262   3.686   8.255  0.4775  0.9972 -2.1364
   37POPC  H18S 4994   4.153   3.768   8.375 -1.1282  0.0393 -0.7448
   37POPC  H18T 4995   4.332   3.776   8.384  1.3222  1.0339 -1.7408
   37POPC   C33 4996   4.237   3.720   7.034 -0.3447  0.2881  0.2489
   37POPC   H3X 4997   4.248   3.673   7.134  0.3549  2.9439  1.5319
   37POPC   H3Y 4998   4.161   3.797   7.062 -1.9363 -1.2407  0.2886
   37POPC   C34 4999   4.372   3.793   7.010 -0.3498  0.7535  0.5958
   37POPC   H4X 5000   4.361   3.846   6.912 -1.4946  0.3296  0.4773
   37POPC   H4Y 5001   4.441   3.706   7.005 -1.9665 -0.5730  0.3113
   37POPC   C35 5002   4.417   3.880   7.128 -0.9550 -0.6101 -0.5647
   37POPC   H5X 5003   4.343   3.961   7.144  0.9545  1.2601 -0.7127
   37POPC   H5Y 5004   4.515   3.930   7.116 -1.4014  0.2002 -0.8976
   37POPC   C36 5005   4.430   3.800   7.257 -0.3996  0.6130 -0.0406
   37POPC   H6X 5006   4.490   3.711   7.230 -1.3713  0.5165 -2.1189
   37POPC   H6Y 5007   4.336   3.763   7.303  2.1344 -0.7164  4.6937
   37POPC   C37 5008   4.501   3.881   7.364 -0.3964 -0.8368  0.2669
   37POPC   H7X 5009   4.436   3.969   7.387  1.0951  1.0729 -2.3761
   37POPC   H7Y 5010   4.599   3.910   7.320 -1.0500 -1.1566 -1.4541
   37POPC   C38 5011   4.533   3.802   7.499 -0.0677 -0.3151 -0.0769
   37POPC   H8X 5012   4.587   3.876   7.563  2.3537 -0.1283 -2.1737
   37POPC   H8Y 5013   4.602   3.718   7.475  1.4844  0.7118  0.5912
   37POPC   C39 5014   4.413   3.749   7.572  0.0704  0.5371  0.1170
   37POPC   H9X 5015   4.360   3.683   7.499  1.2294 -0.3494  0.0439
   37POPC   H9Y 5016   4.352   3.830   7.616  0.6565 -0.4889  2.9974
   37POPC  C310 5017   4.479   3.676   7.689 -0.2495 -0.5537 -0.1390
   37POPC  H10X 5018   4.511   3.767   7.746  0.0927 -0.6709 -0.1409
   37POPC  H10Y 5019   4.568   3.615   7.663 -0.5521 -0.6719 -0.9381
   37POPC  C311 5020   4.380   3.586   7.773 -0.3740 -0.0182 -0.0530
   37POPC  H11X 5021   4.319   3.530   7.699 -0.9453  0.0536  0.3531
   37POPC  H11Y 5022   4.313   3.654   7.831 -0.2452 -1.0908  1.3878
   37POPC  C312 5023   4.454   3.489   7.861 -0.3316 -0.1832 -0.2626
   37POPC  H12X 5024   4.529   3.421   7.816  0.8509 -1.6118  3.4811
   37POPC  H12Y 5025   4.379   3.418   7.901 -1.4203 -2.0579 -4.9335
   37POPC  C313 5026   4.531   3.567   7.979  0.3850  0.5908 -0.3383
   37POPC  H13X 5027   4.465   3.654   7.999  0.1723  0.8127 -1.8559
   37POPC  H13Y 5028   4.624   3.609   7.935 -0.2737  1.4569 -0.9666
   37POPC  C314 5029   4.565   3.479   8.097 -0.8478 -0.2198 -0.2242
   37POPC  H14X 5030   4.620   3.395   8.048  0.5306  0.1996  0.5510
   37POPC  H14Y 5031   4.487   3.442   8.166  1.7053  0.1545  3.1232
   37POPC  C315 5032   4.678   3.536   8.183 -0.4557 -0.2428  0.5704
   37POPC  H15X 5033   4.770   3.552   8.122 -1.2852 -2.4170 -1.4059
   37POPC  H15Y 5034   4.710   3.461   8.259  1.4970  0.5565  0.6046
   37POPC  C316 5035   4.645   3.662   8.272  0.2348  0.0702 -0.4924
   37POPC  H16X 5036   4.724   3.693   8.343 -1.6347  1.3391  1.1533
   37POPC  H16Y 5037   4.563   3.628   8.340  0.0248 -1.4256 -1.4290
   37POPC  H16Z 5038   4.596   3.743   8.214  1.0660  0.6758 -0.3499
   38POPC     N 5039   5.859   0.357   6.140  0.0417 -0.3797 -0.0436
   38POPC   C12 5040   5.918   0.359   6.279  0.4735 -0.6107  0.5342
   38POPC  H12A 5041   5.833   0.378   6.342 -1.3095 -0.9850 -1.6283
   38POPC  H12B 5042   5.985   0.444   6.275 -1.6617  1.1498  0.2746
   38POPC   C13 5043   5.958   0.324   6.033  0.9591 -0.1017  0.7552
   38POPC  H13A 5044   5.907   0.278   5.949  0.4599  2.2388 -0.2924
   38POPC  H13B 5045   6.018   0.403   5.993 -0.2807  0.0060 -1.0140
   38POPC  H13C 5046   6.029   0.256   6.078  0.8692 -0.6307  0.1187
   38POPC   C14 5047   5.747   0.270   6.134  0.6043  0.5076  0.3000
   38POPC  H14A 5048   5.781   0.174   6.170  0.4561  0.0848 -0.6564
   38POPC  H14B 5049   5.670   0.311   6.198 -0.1539 -0.1408 -0.1707
   38POPC  H14C 5050   5.700   0.264   6.037  2.0547  2.3146 -0.5606
   38POPC   C15 5051   5.813   0.496   6.110  0.1971  0.3395 -0.3835
   38POPC  H15A 5052   5.886   0.572   6.133  0.7149 -0.0205 -0.8177
   38POPC  H15B 5053   5.731   0.528   6.173 -0.3897  1.1734 -1.5187
   38POPC  H15C 5054   5.786   0.495   6.005 -0.8408  0.7866 -0.1402
   38POPC   C11 5055   5.995   0.241   6.347  0.2569  0.1663 -0.1345
   38POPC  H11A 5056   5.932   0.150   6.336 -0.1205  0.4148 -0.0552
   38POPC  H11B 5057   5.999   0.252   6.457  2.5398 -1.6207  0.0367
   38POPC     P 5058   6.206   0.101   6.255  0.4878 -0.6546 -0.0709
   38POPC   O13 5059   6.275   0.117   6.127  0.5124  1.0092 -0.4300
   38POPC   O14 5060   6.108  -0.010   6.253  0.0298 -0.6334  0.4086
   38POPC   O12 5061   6.125   0.232   6.286 -0.2595 -0.2776  0.0920
   38POPC   O11 5062   6.291   0.069   6.381  0.1734  0.4998  0.2824
   38POPC    C1 5063   6.276   0.144   6.509  0.2300 -0.4621  0.5525
   38POPC    HA 5064   6.225   0.242   6.495 -0.5928 -0.6132  2.2304
   38POPC    HB 5065   6.376   0.158   6.556  0.3335 -0.1174  0.2289
   38POPC    C2 5066   6.187   0.065   6.608  0.2308 -0.7480  0.2488
   38POPC    HS 5067   6.081   0.069   6.572  0.5823  0.8331 -0.7338
   38POPC   O21 5068   6.209   0.134   6.731  0.0377  0.5264  0.4114
   38POPC   C21 5069   6.113   0.156   6.813 -0.2277 -0.6335  0.1654
   38POPC   O22 5070   5.996   0.128   6.807  0.1165 -0.3387 -0.5780
   38POPC   C22 5071   6.174   0.222   6.941 -0.5071 -0.7614  0.4475
   38POPC   H2R 5072   6.200   0.323   6.902  0.0415 -1.4559 -1.0605
   38POPC   H2S 5073   6.276   0.182   6.956  1.0624  3.3939  2.3553
   38POPC    C3 5074   6.228  -0.077   6.621 -0.1587  0.5139 -0.5578
   38POPC    HX 5075   6.338  -0.088   6.620 -0.3443 -1.8123  0.0774
   38POPC    HY 5076   6.193  -0.119   6.525 -2.0559  2.1742 -0.6714
   38POPC   O31 5077   6.173  -0.145   6.736  0.8242 -0.2327 -0.3364
   38POPC   C31 5078   6.048  -0.202   6.718  0.6405 -0.7848 -0.6573
   38POPC   O32 5079   5.987  -0.190   6.614 -0.3067  0.3360  0.3672
   38POPC   C32 5080   6.008  -0.277   6.843  0.3912  0.5897 -0.3708
   38POPC   H2X 5081   6.096  -0.324   6.893  0.1117  0.7101  0.2400
   38POPC   H2Y 5082   5.951  -0.362   6.801 -0.4364  1.5486 -1.2578
   38POPC   C23 5083   6.081   0.205   7.068 -0.6121  0.1001  1.2866
   38POPC   H3R 5084   6.053   0.098   7.059 -1.7068  0.5385 -3.4844
   38POPC   H3S 5085   5.985   0.259   7.057 -1.2296 -0.6381  2.8386
   38POPC   C24 5086   6.159   0.245   7.190 -0.4114  0.4775  0.2273
   38POPC   H4R 5087   6.177   0.355   7.187 -2.0392  0.7477 -0.1361
   38POPC   H4S 5088   6.259   0.197   7.197  0.0894  1.6486  1.7731
   38POPC   C25 5089   6.084   0.200   7.320  0.0167 -0.2661 -0.2638
   38POPC   H5R 5090   6.072   0.089   7.321  1.1537 -0.4148  1.3629
   38POPC   H5S 5091   5.991   0.260   7.329  1.2720  1.6239  0.5840
   38POPC   C26 5092   6.180   0.238   7.439 -0.2009  0.3177 -0.7406
   38POPC   H6R 5093   6.171   0.349   7.441  0.3241  0.3845 -1.3621
   38POPC   H6S 5094   6.285   0.204   7.423  0.3022  0.8736  1.2134
   38POPC   C27 5095   6.128   0.177   7.570  0.2975  0.2523  0.0854
   38POPC   H7R 5096   6.123   0.066   7.579  0.1675  0.1325 -1.2765
   38POPC   H7S 5097   6.022   0.202   7.589  0.5824  1.2088  0.4750
   38POPC   C28 5098   6.205   0.233   7.693  0.4684  0.2797  1.0423
   38POPC   H8R 5099   6.313   0.231   7.668 -0.1697 -2.9950 -2.3946
   38POPC   H8S 5100   6.188   0.169   7.782 -0.5450  0.3173  0.8939
   38POPC   C29 5101   6.163   0.375   7.726 -0.1117 -0.3905  0.3192
   38POPC   H91 5102   6.207   0.447   7.656 -0.4019 -2.0475 -1.6335
   38POPC  C210 5103   6.094   0.413   7.830 -0.7078  0.0744 -1.1041
   38POPC  H101 5104   6.077   0.522   7.836 -0.1879  0.0820  2.2028
   38POPC  C211 5105   6.040   0.332   7.947  0.1286 -0.5242 -0.4509
   38POPC  H11R 5106   6.045   0.224   7.923 -0.5772 -0.6283 -0.1686
   38POPC  H11S 5107   5.936   0.369   7.959  1.1611  1.8980  1.9281
   38POPC  C212 5108   6.118   0.365   8.075  0.1664  0.2664 -0.0617
   38POPC  H12R 5109   6.049   0.333   8.156  0.8466  1.9124  1.2291
   38POPC  H12S 5110   6.131   0.475   8.081 -0.1722  0.3333 -0.4713
   38POPC  C213 5111   6.249   0.287   8.074 -0.2923  0.1203  0.0391
   38POPC  H13R 5112   6.303   0.315   7.981 -1.0591  1.7208  0.0407
   38POPC  H13S 5113   6.216   0.181   8.076 -0.0857  0.0378 -0.6595
   38POPC  C214 5114   6.344   0.323   8.189  0.2433 -0.5484 -0.3358
   38POPC  H14R 5115   6.386   0.426   8.182  1.8649 -0.8704  2.7068
   38POPC  H14S 5116   6.426   0.248   8.180 -1.2855 -2.0970 -2.0688
   38POPC  C215 5117   6.290   0.296   8.331  0.2548 -0.4153 -0.0058
   38POPC  H15R 5118   6.190   0.340   8.353 -0.9491 -1.5643 -2.7694
   38POPC  H15S 5119   6.356   0.340   8.408  0.1296  1.3195 -0.8314
   38POPC  C216 5120   6.265   0.147   8.363 -0.0706 -0.6904 -0.6938
   38POPC  H16R 5121   6.367   0.103   8.351 -0.0456 -0.8365  0.0435
   38POPC  H16S 5122   6.195   0.096   8.294  0.9954 -2.2425 -0.6846
   38POPC  C217 5123   6.231   0.115   8.510 -0.2132 -0.0294  0.0255
   38POPC  H17R 5124   6.314   0.149   8.575 -0.3182 -0.3099  0.3083
   38POPC  H17S 5125   6.222   0.004   8.507 -3.0721  0.1197 -2.4353
   38POPC  C218 5126   6.102   0.173   8.561  0.2370 -0.0878 -0.4067
   38POPC  H18R 5127   6.111   0.283   8.577  0.1969  0.0666 -1.3549
   38POPC  H18S 5128   6.070   0.122   8.654  0.5368 -1.0215 -0.8060
   38POPC  H18T 5129   6.027   0.185   8.479 -0.6934 -0.9817  0.2924
   38POPC   C33 5130   5.923  -0.203   6.953  0.3131 -0.7116 -0.5100
   38POPC   H3X 5131   5.841  -0.273   6.980 -1.4268  1.1985 -0.5408
   38POPC   H3Y 5132   5.870  -0.116   6.908  1.9703  0.9847  0.6846
   38POPC   C34 5133   5.998  -0.155   7.080 -0.0225  0.2775  0.5743
   38POPC   H4X 5134   5.932  -0.074   7.118 -1.5656  0.3639 -2.0193
   38POPC   H4Y 5135   6.097  -0.114   7.051  0.6457 -0.9016  1.0930
   38POPC   C35 5136   6.037  -0.264   7.177 -0.0397  0.2671 -0.9917
   38POPC   H5X 5137   6.130  -0.319   7.152 -2.4625 -2.2224 -6.0136
   38POPC   H5Y 5138   5.951  -0.334   7.164 -0.7439  1.4351 -3.2544
   38POPC   C36 5139   6.043  -0.225   7.324  0.2757 -0.3433  0.0565
   38POPC   H6X 5140   5.962  -0.151   7.345  0.7831  0.4181 -0.5984
   38POPC   H6Y 5141   6.137  -0.169   7.339 -0.0389  0.5030 -0.9934
   38POPC   C37 5142   6.039  -0.344   7.421 -0.0307 -0.7573  0.1526
   38POPC   H7X 5143   6.122  -0.414   7.396  1.7631  1.2167  0.3241
   38POPC   H7Y 5144   5.935  -0.383   7.426 -0.0649 -1.1365 -2.1718
   38POPC   C38 5145   6.089  -0.295   7.555 -0.3672  0.3467 -0.5048
   38POPC   H8X 5146   6.014  -0.229   7.604 -0.4082  0.0802 -0.2040
   38POPC   H8Y 5147   6.184  -0.239   7.538  1.7510 -2.3103  1.5689
   38POPC   C39 5148   6.130  -0.414   7.654 -0.5648 -0.1182  0.0499
   38POPC   H9X 5149   6.086  -0.507   7.611 -2.6064 -0.9300  3.5173
   38POPC   H9Y 5150   6.076  -0.414   7.751  1.1350  1.3847  1.0553
   38POPC  C310 5151   6.281  -0.421   7.669  0.0338 -0.0646 -0.7859
   38POPC  H10X 5152   6.325  -0.346   7.739  1.4656 -1.1844 -0.4212
   38POPC  H10Y 5153   6.336  -0.407   7.573  0.9276 -1.8821 -0.5792
   38POPC  C311 5154   6.327  -0.559   7.723  0.0005 -0.1459 -0.1347
   38POPC  H11X 5155   6.304  -0.642   7.653  0.4161 -0.6279  0.2898
   38POPC  H11Y 5156   6.290  -0.565   7.828  0.4268  0.9968  0.0874
   38POPC  C312 5157   6.482  -0.569   7.736  0.5530  0.5479 -0.2141
   38POPC  H12X 5158   6.517  -0.502   7.818  0.2935 -0.0791  0.4205
   38POPC  H12Y 5159   6.522  -0.530   7.640  0.9022 -0.6434 -0.5659
   38POPC  C313 5160   6.539  -0.713   7.757 -0.1384  0.7462  0.5480
   38POPC  H13X 5161   6.506  -0.775   7.671  0.8181  0.4022  0.4222
   38POPC  H13Y 5162   6.502  -0.769   7.845  0.0164 -0.9795 -0.4377
   38POPC  C314 5163   6.688  -0.717   7.751 -0.6316 -0.4509  0.0885
   38POPC  H14X 5164   6.728  -0.664   7.662 -1.1352 -0.9400 -0.4399
   38POPC  H14Y 5165   6.721  -0.820   7.726  3.2973  0.7426 -0.2742
   38POPC  C315 5166   6.764  -0.661   7.871 -0.4816 -0.4896 -0.2817
   38POPC  H15X 5167   6.751  -0.710   7.969  0.8387  3.1558  1.9247
   38POPC  H15Y 5168   6.730  -0.555   7.881  0.0757 -0.3408  0.1171
   38POPC  C316 5169   6.923  -0.651   7.863  0.1778 -0.4608  1.2408
   38POPC  H16X 5170   6.956  -0.628   7.759 -2.8863 -2.0404 -0.2069
   38POPC  H16Y 5171   6.965  -0.748   7.899 -0.8240 -0.6789  1.8638
   38POPC  H16Z 5172   6.973  -0.585   7.937 -0.1202 -0.1442  1.1610
   39POPC     N 5173   1.648   5.311   6.216  0.3011 -0.3550 -0.0495
   39POPC   C12 5174   1.739   5.320   6.331 -0.1142 -0.2280  0.0585
   39POPC  H12A 5175   1.690   5.372   6.413  0.6204  0.1423  0.2771
   39POPC  H12B 5176   1.814   5.393   6.303 -1.0046  0.8203  0.3460
   39POPC   C13 5177   1.530   5.229   6.238 -0.4657  0.2115 -0.0971
   39POPC  H13A 5178   1.558   5.147   6.303  0.1427 -1.0271 -1.8683
   39POPC  H13B 5179   1.449   5.279   6.290 -0.3492 -0.4681  0.7590
   39POPC  H13C 5180   1.481   5.179   6.156 -0.0268 -1.4567  0.6342
   39POPC   C14 5181   1.591   5.445   6.203  0.5577 -0.7005  0.1232
   39POPC  H14A 5182   1.522   5.455   6.121  0.5694  3.4950  0.3744
   39POPC  H14B 5183   1.543   5.479   6.294 -0.8434  1.0554 -1.1772
   39POPC  H14C 5184   1.666   5.518   6.175  0.5075 -0.4242  0.7006
   39POPC   C15 5185   1.723   5.269   6.085 -0.1595 -0.1262 -0.8599
   39POPC  H15A 5186   1.755   5.166   6.087 -2.0754 -0.7725 -1.0948
   39POPC  H15B 5187   1.811   5.330   6.075 -0.3620  0.3716  0.2361
   39POPC  H15C 5188   1.658   5.282   6.000 -1.2155  2.6709  0.2733
   39POPC   C11 5189   1.803   5.188   6.378 -0.0406  0.1975 -0.3012
   39POPC  H11A 5190   1.725   5.109   6.385  0.9279 -0.8460 -0.9903
   39POPC  H11B 5191   1.858   5.197   6.474 -0.3579 -0.2133 -0.0744
   39POPC     P 5192   2.035   5.209   6.262 -0.1219  0.0386  0.0991
   39POPC   O13 5193   2.013   5.355   6.240  0.4555 -0.4502 -0.1510
   39POPC   O14 5194   2.097   5.144   6.142 -0.8452 -0.1100 -0.6107
   39POPC   O12 5195   1.898   5.138   6.281  0.1256 -0.5891  0.1163
   39POPC   O11 5196   2.111   5.199   6.399  0.2439  0.2521  0.0892
   39POPC    C1 5197   2.193   5.095   6.447  0.1744 -0.3081 -0.3818
   39POPC    HA 5198   2.297   5.107   6.409  0.2223 -0.8224 -0.4146
   39POPC    HB 5199   2.143   4.999   6.422  1.5312 -1.8617  2.3986
   39POPC    C2 5200   2.207   5.110   6.599 -0.1402  0.4662 -0.2023
   39POPC    HS 5201   2.285   5.045   6.644  1.5349  3.0510  0.8420
   39POPC   O21 5202   2.081   5.113   6.671  0.2863  0.2715 -0.5972
   39POPC   C21 5203   2.030   4.990   6.678 -0.4228 -0.0396 -0.1647
   39POPC   O22 5204   2.086   4.888   6.653 -0.3240  0.3837  0.3556
   39POPC   C22 5205   1.884   4.993   6.715 -0.3585 -0.1732  0.5032
   39POPC   H2R 5206   1.855   4.897   6.763  0.4515 -1.0868 -0.7673
   39POPC   H2S 5207   1.825   4.991   6.620 -0.7711  1.3326  0.6905
   39POPC    C3 5208   2.270   5.252   6.636 -0.0926 -0.1153 -0.6889
   39POPC    HX 5209   2.187   5.325   6.627  0.3228  0.3460 -0.8356
   39POPC    HY 5210   2.358   5.284   6.575 -0.2527  0.5820 -0.5617
   39POPC   O31 5211   2.319   5.253   6.777  0.0240  0.1396 -0.3670
   39POPC   C31 5212   2.445   5.200   6.785 -0.9643 -0.1452 -0.1684
   39POPC   O32 5213   2.517   5.170   6.693 -0.3138  0.5969  0.0899
   39POPC   C32 5214   2.493   5.194   6.937  0.0087 -0.4938 -0.0754
   39POPC   H2X 5215   2.492   5.304   6.951  1.2667 -0.4254 -0.3780
   39POPC   H2Y 5216   2.422   5.142   7.005 -0.9243 -1.6132 -1.8402
   39POPC   C23 5217   1.835   5.115   6.798 -0.0256 -0.4140 -0.5964
   39POPC   H3R 5218   1.730   5.105   6.831 -0.4596  1.2173 -1.3901
   39POPC   H3S 5219   1.844   5.212   6.746 -0.8851  1.7852  2.9985
   39POPC   C24 5220   1.905   5.125   6.936 -0.7109  0.0214 -1.0057
   39POPC   H4R 5221   1.858   5.198   7.005  0.5274 -1.2419  1.2847
   39POPC   H4S 5222   2.012   5.142   6.912 -0.0780 -1.7012  0.3709
   39POPC   C25 5223   1.907   4.994   7.005 -0.1487  0.8060 -0.2480
   39POPC   H5R 5224   1.950   4.901   6.962  1.6322  1.3989  0.1597
   39POPC   H5S 5225   1.801   4.973   7.032  0.3763  0.5769  1.7552
   39POPC   C26 5226   1.976   5.024   7.145  0.2181 -0.5345  0.6448
   39POPC   H6R 5227   1.952   5.130   7.170  0.5264 -0.0548 -0.9522
   39POPC   H6S 5228   2.087   5.017   7.141  0.1203 -1.7288 -1.7170
   39POPC   C27 5229   1.910   4.939   7.262  0.3192  0.5832  0.3045
   39POPC   H7R 5230   1.940   4.834   7.238 -1.9305 -0.1319  0.4089
   39POPC   H7S 5231   1.799   4.938   7.259  0.1825 -1.9305  2.2238
   39POPC   C28 5232   1.979   4.981   7.391 -0.4015 -0.4221 -0.5080
   39POPC   H8R 5233   2.068   5.037   7.357 -0.2958 -1.6604 -2.4530
   39POPC   H8S 5234   2.030   4.900   7.447  0.4177  0.9567  0.8202
   39POPC   C29 5235   1.895   5.074   7.475 -0.1961 -0.1678  0.2266
   39POPC   H91 5236   1.835   5.146   7.418  1.5663 -0.9170 -2.8107
   39POPC  C210 5237   1.872   5.065   7.607  0.0759 -0.8436  0.0341
   39POPC  H101 5238   1.812   5.144   7.655  1.8957  0.3702  0.4374
   39POPC  C211 5239   1.926   4.958   7.699  0.4733 -0.0926 -0.1360
   39POPC  H11R 5240   1.983   5.003   7.782 -1.2769  0.2116  0.9620
   39POPC  H11S 5241   1.997   4.891   7.646  1.1424 -0.0907  0.7551
   39POPC  C212 5242   1.813   4.863   7.755 -0.2352  0.2409  0.6660
   39POPC  H12R 5243   1.753   4.815   7.675  2.7496  0.4321 -1.8869
   39POPC  H12S 5244   1.747   4.930   7.813  0.7094  1.2437  0.6318
   39POPC  C213 5245   1.868   4.758   7.857 -0.1455 -0.7188  0.8833
   39POPC  H13R 5246   1.924   4.689   7.790 -2.4807 -0.4537 -1.4859
   39POPC  H13S 5247   1.776   4.706   7.891 -1.7611  1.3578 -0.0763
   39POPC  C214 5248   1.952   4.797   7.978  0.8136 -0.0591 -0.6286
   39POPC  H14R 5249   2.050   4.837   7.944  1.3085 -1.5573 -1.0474
   39POPC  H14S 5250   1.968   4.697   8.024  0.5435  0.3702  0.4134
   39POPC  C215 5251   1.883   4.886   8.083  0.1752  0.4022  0.6906
   39POPC  H15R 5252   1.814   4.821   8.139  2.4145 -1.8022  1.0750
   39POPC  H15S 5253   1.837   4.974   8.034  1.6212  0.6206 -0.3671
   39POPC  C216 5254   1.988   4.946   8.178 -0.1037 -0.1954 -0.8967
   39POPC  H16R 5255   1.944   5.020   8.248 -0.0048 -0.2824 -0.7418
   39POPC  H16S 5256   2.057   5.005   8.113  2.4740 -1.1153  0.8609
   39POPC  C217 5257   2.062   4.853   8.267  0.6149  0.4004 -0.2907
   39POPC  H17R 5258   2.121   4.920   8.333  0.2528 -0.3829  0.8608
   39POPC  H17S 5259   2.142   4.805   8.207 -0.8369 -0.4148 -1.6560
   39POPC  C218 5260   1.970   4.750   8.347 -0.3525 -1.0336 -0.6780
   39POPC  H18R 5261   1.894   4.817   8.393 -1.4726 -0.8138 -2.7418
   39POPC  H18S 5262   2.024   4.688   8.422  2.1046 -1.1231 -2.3846
   39POPC  H18T 5263   1.919   4.681   8.276  1.4551 -1.2307 -1.8531
   39POPC   C33 5264   2.631   5.139   6.963 -0.0989  0.3151 -0.4315
   39POPC   H3X 5265   2.698   5.169   6.879  1.1368 -0.9378  0.0735
   39POPC   H3Y 5266   2.631   5.028   6.955 -1.6585  0.2977 -0.4063
   39POPC   C34 5267   2.690   5.177   7.102 -0.0095  0.3171 -0.0731
   39POPC   H4X 5268   2.679   5.285   7.123  0.2530  0.5252 -0.9665
   39POPC   H4Y 5269   2.800   5.161   7.094  0.2668  2.0271  0.0154
   39POPC   C35 5270   2.633   5.092   7.215  0.4983  0.2481  0.1557
   39POPC   H5X 5271   2.657   4.984   7.201  1.0217  0.6900 -3.0508
   39POPC   H5Y 5272   2.523   5.088   7.229  0.7549 -0.8104  2.3207
   39POPC   C36 5273   2.694   5.135   7.345 -0.0698 -0.5140  0.2006
   39POPC   H6X 5274   2.677   5.243   7.362  2.5645 -0.0320  0.2245
   39POPC   H6Y 5275   2.804   5.119   7.340 -0.1238 -1.5032  1.3888
   39POPC   C37 5276   2.638   5.059   7.470 -0.4346 -0.4681  0.5085
   39POPC   H7X 5277   2.653   4.949   7.470 -0.2156 -0.4701 -1.4661
   39POPC   H7Y 5278   2.529   5.077   7.469 -0.2542  0.7403 -0.5392
   39POPC   C38 5279   2.693   5.118   7.605 -0.0401  0.2622 -0.0928
   39POPC   H8X 5280   2.639   5.210   7.636 -0.1790 -0.1308  0.8879
   39POPC   H8Y 5281   2.802   5.129   7.588  0.3311  1.1080  2.4002
   39POPC   C39 5282   2.674   5.015   7.723  0.2993 -0.4199 -0.0636
   39POPC   H9X 5283   2.674   4.913   7.681 -0.5448 -0.3632 -0.2175
   39POPC   H9Y 5284   2.569   5.038   7.751  0.2517  0.2376 -0.7437
   39POPC  C310 5285   2.761   5.047   7.838 -0.3766 -0.6352 -0.1276
   39POPC  H10X 5286   2.743   5.148   7.880  1.9733  0.1846 -0.9599
   39POPC  H10Y 5287   2.869   5.043   7.813  0.0006 -0.5070  1.3664
   39POPC  C311 5288   2.755   4.953   7.965 -0.3418 -0.2814  0.6823
   39POPC  H11X 5289   2.656   4.964   8.015  0.4246  2.1576  1.8326
   39POPC  H11Y 5290   2.836   4.995   8.029  0.3597  0.4311 -0.6200
   39POPC  C312 5291   2.799   4.807   7.944 -1.1275  0.2199  0.6145
   39POPC  H12X 5292   2.903   4.803   7.905 -1.2697 -3.5864  0.2735
   39POPC  H12Y 5293   2.739   4.766   7.860  0.6049  0.8781 -1.0189
   39POPC  C313 5294   2.791   4.708   8.066 -0.3211  0.2268  0.6000
   39POPC  H13X 5295   2.684   4.693   8.090  0.2234 -2.6073  1.6485
   39POPC  H13Y 5296   2.841   4.761   8.150 -0.1907 -1.8405  1.8689
   39POPC  C314 5297   2.864   4.573   8.046  0.2724  0.5551 -0.1827
   39POPC  H14X 5298   2.968   4.599   8.014  0.5288  1.0918  1.0408
   39POPC  H14Y 5299   2.806   4.516   7.970  0.7837 -0.7712  0.3924
   39POPC  C315 5300   2.876   4.474   8.167  0.1756 -0.0115 -0.3457
   39POPC  H15X 5301   2.774   4.436   8.188  1.5496 -2.7407  2.1484
   39POPC  H15Y 5302   2.898   4.524   8.263 -0.4434 -0.8270  0.2302
   39POPC  C316 5303   2.955   4.353   8.146  1.1409 -0.0921  0.4823
   39POPC  H16X 5304   3.064   4.365   8.129  1.4493 -1.0418  1.7032
   39POPC  H16Y 5305   2.917   4.295   8.059  0.6868  0.2684  0.4375
   39POPC  H16Z 5306   2.952   4.278   8.228 -0.1423 -0.0964  0.4432
   40POPC     N 5307   1.690   2.192   5.814 -0.4288  0.2571 -0.3413
   40POPC   C12 5308   1.601   2.178   5.936  0.2083 -1.4589 -0.3690
   40POPC  H12A 5309   1.606   2.076   5.973 -0.2987 -0.8442  1.4792
   40POPC  H12B 5310   1.499   2.189   5.902 -0.1566 -1.8573  0.5571
   40POPC   C13 5311   1.835   2.187   5.850  0.5296  0.0506 -0.0457
   40POPC  H13A 5312   1.890   2.190   5.757  2.6161 -3.8612  0.8303
   40POPC  H13B 5313   1.879   2.262   5.915 -1.0400  2.5647 -1.7067
   40POPC  H13C 5314   1.857   2.088   5.886 -0.2163 -0.4651 -0.9746
   40POPC   C14 5315   1.661   2.083   5.713 -0.0915  0.1324 -0.5986
   40POPC  H14A 5316   1.555   2.073   5.696 -0.2798 -1.0232  1.0324
   40POPC  H14B 5317   1.722   2.086   5.624 -0.2868 -1.2464 -0.8110
   40POPC  H14C 5318   1.693   1.986   5.750 -1.4792 -0.4612 -0.8843
   40POPC   C15 5319   1.667   2.319   5.747 -0.9087  0.7240 -0.4018
   40POPC  H15A 5320   1.667   2.403   5.815 -0.6645 -0.0290  0.5461
   40POPC  H15B 5321   1.572   2.324   5.696 -0.5345 -0.4048 -1.2484
   40POPC  H15C 5322   1.752   2.328   5.680  1.1290 -0.8504  1.7795
   40POPC   C11 5323   1.624   2.262   6.062 -0.3351  0.1956 -0.8404
   40POPC  H11A 5324   1.705   2.223   6.127 -0.2964  0.7098 -0.5712
   40POPC  H11B 5325   1.538   2.239   6.130 -1.2977 -2.9812 -2.9347
   40POPC     P 5326   1.556   2.509   6.102 -0.7656 -0.0153  0.0086
   40POPC   O13 5327   1.414   2.481   6.076  0.5345 -0.3841  0.4284
   40POPC   O14 5328   1.609   2.644   6.061  0.0341 -0.6780  0.2670
   40POPC   O12 5329   1.649   2.397   6.034  0.3467 -0.6176  0.3208
   40POPC   O11 5330   1.590   2.494   6.254 -0.8992  0.0576 -0.2889
   40POPC    C1 5331   1.724   2.496   6.303 -0.8872  0.5122  0.1206
   40POPC    HA 5332   1.777   2.590   6.280  2.1482 -1.7649 -3.3584
   40POPC    HB 5333   1.780   2.420   6.245  0.2586  0.9205  0.6560
   40POPC    C2 5334   1.731   2.465   6.457 -0.2536  1.1199  0.0456
   40POPC    HS 5335   1.830   2.420   6.479 -0.9867 -0.9817 -0.7394
   40POPC   O21 5336   1.631   2.370   6.491  0.3609 -0.0295 -0.4561
   40POPC   C21 5337   1.649   2.241   6.458 -0.1709 -0.0807  1.0212
   40POPC   O22 5338   1.752   2.200   6.407 -0.4418 -0.0115  0.9660
   40POPC   C22 5339   1.510   2.176   6.461 -0.0094 -0.2460 -0.3004
   40POPC   H2R 5340   1.510   2.099   6.381 -2.8603 -0.7397  0.0675
   40POPC   H2S 5341   1.435   2.256   6.443  0.3029  0.2792  0.6666
   40POPC    C3 5342   1.721   2.592   6.547  0.0455  0.3661  0.4331
   40POPC    HX 5343   1.635   2.657   6.518 -0.2661 -0.3209 -0.2221
   40POPC    HY 5344   1.808   2.655   6.518  1.1897 -0.8831  1.0365
   40POPC   O31 5345   1.713   2.569   6.689  0.2276 -0.0028 -0.0469
   40POPC   C31 5346   1.810   2.517   6.747 -0.1017 -0.2314  0.1337
   40POPC   O32 5347   1.924   2.514   6.704  0.4123  0.1566 -0.1937
   40POPC   C32 5348   1.777   2.477   6.890 -0.4079  0.3402 -0.0769
   40POPC   H2X 5349   1.822   2.377   6.906 -1.5876 -0.1554  0.2635
   40POPC   H2Y 5350   1.668   2.485   6.912 -0.7963  0.4698 -1.8913
   40POPC   C23 5351   1.474   2.114   6.599  0.4701 -0.4050 -0.4483
   40POPC   H3R 5352   1.544   2.029   6.617  0.8824  0.4692  2.7877
   40POPC   H3S 5353   1.372   2.071   6.607  0.3342 -0.2511 -1.2637
   40POPC   C24 5354   1.507   2.202   6.720  0.2840  0.1636 -0.5815
   40POPC   H4R 5355   1.456   2.298   6.701  1.4085  0.8905 -0.0679
   40POPC   H4S 5356   1.616   2.224   6.719  0.5515 -1.0735 -0.4816
   40POPC   C25 5357   1.471   2.135   6.862  0.0821 -0.4930 -0.5273
   40POPC   H5R 5358   1.516   2.034   6.865 -2.3802 -1.6353  1.1130
   40POPC   H5S 5359   1.360   2.122   6.865  0.0034  0.0554 -0.9419
   40POPC   C26 5360   1.510   2.224   6.981 -0.2566 -0.3948  0.0725
   40POPC   H6R 5361   1.457   2.321   6.976  1.0400  0.3431  0.2143
   40POPC   H6S 5362   1.621   2.238   6.976 -0.3372  0.1357 -0.2931
   40POPC   C27 5363   1.468   2.166   7.111  0.0616  0.2128  0.0477
   40POPC   H7R 5364   1.523   2.071   7.125  0.1109 -0.2584 -2.7526
   40POPC   H7S 5365   1.359   2.148   7.116 -0.6146  3.5992  0.1700
   40POPC   C28 5366   1.503   2.251   7.233  0.7287 -0.1951 -0.1501
   40POPC   H8R 5367   1.432   2.216   7.311 -0.6637 -0.6081 -1.5735
   40POPC   H8S 5368   1.466   2.354   7.213 -0.4697 -0.7401 -0.8411
   40POPC   C29 5369   1.642   2.245   7.273 -0.2525 -0.0705 -0.1389
   40POPC   H91 5370   1.706   2.268   7.187 -0.0077  2.3929  0.6452
   40POPC  C210 5371   1.690   2.215   7.396 -0.8942  0.1695  0.3466
   40POPC  H101 5372   1.799   2.210   7.411 -0.9590 -1.8488  0.4243
   40POPC  C211 5373   1.605   2.176   7.520 -0.5003 -0.1894 -0.0695
   40POPC  H11R 5374   1.619   2.068   7.539 -2.2504 -0.1662  1.7001
   40POPC  H11S 5375   1.495   2.179   7.504 -0.6824 -2.5752  0.4557
   40POPC  C212 5376   1.653   2.251   7.647 -0.0189  0.4092 -0.5641
   40POPC  H12R 5377   1.656   2.362   7.646  0.1915  0.4361  0.6206
   40POPC  H12S 5378   1.760   2.222   7.655  0.5728  2.4479 -0.5903
   40POPC  C213 5379   1.590   2.198   7.778 -0.1977  0.9104 -1.1680
   40POPC  H13R 5380   1.578   2.087   7.780 -0.1960  0.9121 -1.0641
   40POPC  H13S 5381   1.485   2.228   7.793 -0.7208 -1.7410  1.5320
   40POPC  C214 5382   1.670   2.230   7.904  0.6860 -0.4307  0.1548
   40POPC  H14R 5383   1.676   2.341   7.914  0.3809 -0.4468  0.5656
   40POPC  H14S 5384   1.779   2.206   7.911  1.1268  1.6490  1.3920
   40POPC  C215 5385   1.623   2.149   8.028 -0.0873 -0.2927 -0.1336
   40POPC  H15R 5386   1.613   2.041   8.001 -0.6573 -0.8094  2.0069
   40POPC  H15S 5387   1.525   2.193   8.054  0.3863  0.7458 -0.0396
   40POPC  C216 5388   1.711   2.169   8.148 -0.0829 -0.2863 -0.5920
   40POPC  H16R 5389   1.700   2.275   8.178 -2.6885 -0.2787 -1.2745
   40POPC  H16S 5390   1.818   2.139   8.146  0.6002  1.3665  3.1041
   40POPC  C217 5391   1.649   2.088   8.258 -0.2299  0.1118  0.2407
   40POPC  H17R 5392   1.651   1.982   8.225  0.9303  0.8776 -2.3985
   40POPC  H17S 5393   1.542   2.116   8.270 -0.4113 -0.4349 -0.0663
   40POPC  C218 5394   1.730   2.098   8.389  0.0701  0.3064  0.3505
   40POPC  H18R 5395   1.839   2.074   8.381  0.0259  0.3180 -0.3825
   40POPC  H18S 5396   1.677   2.029   8.458 -1.0083 -0.9553 -1.6462
   40POPC  H18T 5397   1.741   2.203   8.421  1.8086  0.6574 -1.2226
   40POPC   C33 5398   1.836   2.582   6.984  0.6721  0.4919  0.0311
   40POPC   H3X 5399   1.778   2.677   6.973  1.2077  0.7598 -0.5718
   40POPC   H3Y 5400   1.943   2.605   6.964  0.3251  0.7980 -1.6808
   40POPC   C34 5401   1.829   2.526   7.129 -0.0779 -0.0780 -0.5993
   40POPC   H4X 5402   1.887   2.432   7.126  0.4997  0.2757 -0.5952
   40POPC   H4Y 5403   1.724   2.506   7.161  0.1612  0.5210  0.5762
   40POPC   C35 5404   1.879   2.621   7.234  0.3406 -0.3156 -1.0236
   40POPC   H5X 5405   1.824   2.716   7.213  1.5268  1.2279  2.1380
   40POPC   H5Y 5406   1.990   2.633   7.235  0.3713 -0.6194 -0.5214
   40POPC   C36 5407   1.850   2.569   7.381  0.3836 -0.5364  0.2156
   40POPC   H6X 5408   1.906   2.478   7.409  1.0721  0.1336  1.0775
   40POPC   H6Y 5409   1.740   2.561   7.393 -0.1041  1.0554 -2.3956
   40POPC   C37 5410   1.884   2.672   7.493 -0.6735 -0.3238 -0.0430
   40POPC   H7X 5411   1.839   2.772   7.476 -2.1612 -0.9707 -0.0350
   40POPC   H7Y 5412   1.993   2.689   7.503 -0.6557 -0.6853  0.3928
   40POPC   C38 5413   1.853   2.625   7.631 -0.2043  0.0192 -0.7878
   40POPC   H8X 5414   1.903   2.527   7.642  1.6984  0.9651 -0.5693
   40POPC   H8Y 5415   1.743   2.607   7.639  0.3269 -2.6046  3.2948
   40POPC   C39 5416   1.902   2.721   7.743  0.7238  0.1426 -0.3244
   40POPC   H9X 5417   1.912   2.830   7.723  3.5075 -0.2897 -1.8419
   40POPC   H9Y 5418   2.010   2.699   7.761  0.0622 -0.8097  3.4511
   40POPC  C310 5419   1.832   2.683   7.866 -0.0373  0.0271  0.1220
   40POPC  H10X 5420   1.825   2.573   7.879  0.6345 -0.0154  0.1741
   40POPC  H10Y 5421   1.728   2.723   7.864  0.2178  0.6607 -1.3111
   40POPC  C311 5422   1.894   2.738   8.004  0.6424 -0.1153  0.5154
   40POPC  H11X 5423   1.899   2.848   7.989  0.2442 -0.0852  0.6159
   40POPC  H11Y 5424   2.002   2.711   8.006  1.2528  2.1218 -0.1348
   40POPC  C312 5425   1.808   2.709   8.134 -0.4617  0.7145  0.1846
   40POPC  H12X 5426   1.830   2.603   8.160  0.8708  1.1802  1.0423
   40POPC  H12Y 5427   1.703   2.737   8.113  0.5807  3.8242 -1.5143
   40POPC  C313 5428   1.849   2.795   8.254  0.1323  0.0113  0.0806
   40POPC  H13X 5429   1.960   2.798   8.250  0.1213  1.4652  0.1896
   40POPC  H13Y 5430   1.813   2.745   8.346  1.9128  0.1409  0.8848
   40POPC  C314 5431   1.790   2.941   8.252 -1.1177 -0.1537 -0.2138
   40POPC  H14X 5432   1.681   2.919   8.258 -1.3517  1.2855  2.3371
   40POPC  H14Y 5433   1.816   2.989   8.156 -2.2770  1.4688  0.2484
   40POPC  C315 5434   1.826   3.031   8.372 -0.3261  0.2065 -0.7903
   40POPC  H15X 5435   1.787   2.988   8.467 -2.2733  2.2125 -0.6094
   40POPC  H15Y 5436   1.768   3.124   8.357  0.5255  1.2636  1.8504
   40POPC  C316 5437   1.977   3.058   8.385 -0.3156  0.3823  0.1159
   40POPC  H16X 5438   2.042   2.968   8.377 -0.2015  0.5573 -1.2697
   40POPC  H16Y 5439   1.989   3.102   8.486 -2.6733  0.8027  0.2684
   40POPC  H16Z 5440   1.998   3.140   8.313 -1.1905  1.4895  1.0960
   41CHL1    C3 5441   1.704   4.298   9.910  0.4190 -0.6388 -0.4098
   41CHL1    H3 5442   1.794   4.237   9.888  0.4128 -1.0121  0.5543
   41CHL1    O3 5443   1.703   4.333  10.046 -0.5041 -0.7099  0.7781
   41CHL1   H3' 5444   1.653   4.270  10.097  0.1512  0.1837  2.5928
   41CHL1    C4 5445   1.704   4.430   9.831 -0.2775  0.5630  0.2955
   41CHL1   H4A 5446   1.641   4.509   9.877 -0.3856 -0.1766  1.4421
   41CHL1   H4B 5447   1.810   4.462   9.843  0.2420 -0.9785 -0.0232
   41CHL1    C5 5448   1.663   4.426   9.681 -0.5258 -0.0525  0.5365
   41CHL1    C6 5449   1.737   4.477   9.583 -0.1734 -0.0608 -0.3495
   41CHL1    H6 5450   1.820   4.547   9.604  1.1064 -1.1474 -1.6045
   41CHL1    C7 5451   1.691   4.471   9.432  0.0922  0.6179 -0.7103
   41CHL1   H7A 5452   1.710   4.569   9.383  0.6705  0.3633 -0.9942
   41CHL1   H7B 5453   1.763   4.412   9.373  0.4371  1.5190 -1.1966
   41CHL1    C8 5454   1.549   4.429   9.412  0.1950  0.0905 -0.3071
   41CHL1    H8 5455   1.477   4.508   9.443  0.6545  1.1914 -1.9172
   41CHL1   C14 5456   1.522   4.384   9.269  0.0704  0.2864 -0.1428
   41CHL1   H14 5457   1.572   4.286   9.254  2.6850  1.7349 -1.6069
   41CHL1   C15 5458   1.597   4.454   9.153 -0.2169  0.2943 -0.6950
   41CHL1  H15A 5459   1.606   4.562   9.178  0.5767 -0.2181  1.5277
   41CHL1  H15B 5460   1.697   4.410   9.132  0.2622  1.5349 -1.0728
   41CHL1   C16 5461   1.505   4.437   9.032 -0.2942  0.4680 -0.1699
   41CHL1  H16A 5462   1.464   4.533   8.993 -1.4829 -0.0967 -0.3617
   41CHL1  H16B 5463   1.554   4.377   8.953 -3.5828 -0.4888 -1.6543
   41CHL1   C17 5464   1.390   4.345   9.081 -0.0730 -0.0802 -0.0938
   41CHL1   H17 5465   1.434   4.243   9.072  1.2077  0.3897  0.4669
   41CHL1   C13 5466   1.376   4.370   9.232  0.1865 -0.3800  0.5153
   41CHL1   C18 5467   1.299   4.497   9.251  0.0408  0.2594  0.0850
   41CHL1  H18A 5468   1.373   4.574   9.221  2.0113 -2.5459 -3.0302
   41CHL1  H18B 5469   1.203   4.517   9.199 -0.2240  0.6955  0.7351
   41CHL1  H18C 5470   1.281   4.500   9.360 -0.1207 -2.7202  0.2076
   41CHL1   C12 5471   1.328   4.253   9.322  0.2438 -0.5599  0.4743
   41CHL1  H12A 5472   1.219   4.236   9.307 -0.0323  0.8676  0.7919
   41CHL1  H12B 5473   1.389   4.167   9.286 -0.2830 -0.6486 -0.2183
   41CHL1   C11 5474   1.358   4.274   9.473  0.6658  0.3658 -0.8979
   41CHL1  H11A 5475   1.289   4.350   9.516 -0.7444 -0.0424 -2.3300
   41CHL1  H11B 5476   1.324   4.176   9.513 -2.1875  0.8237 -1.9503
   41CHL1    C9 5477   1.509   4.315   9.505 -0.2727  0.3565 -0.4921
   41CHL1    H9 5478   1.576   4.228   9.485 -1.0882 -1.6288  4.1208
   41CHL1   C10 5479   1.541   4.342   9.654 -0.0419  0.1103  0.3041
   41CHL1   C19 5480   1.421   4.427   9.712  0.3203  0.3662 -0.4686
   41CHL1  H19A 5481   1.325   4.372   9.704  1.0956 -1.0569 -0.2853
   41CHL1  H19B 5482   1.433   4.460   9.817  0.0170 -0.4400 -0.1735
   41CHL1  H19C 5483   1.416   4.515   9.644  0.2146  0.1263 -0.7731
   41CHL1    C1 5484   1.561   4.206   9.722 -0.2943  0.3774 -0.5542
   41CHL1   H1A 5485   1.472   4.142   9.707 -0.2112 -1.1150  3.9162
   41CHL1   H1B 5486   1.654   4.158   9.685  0.8022 -0.3076  2.7846
   41CHL1    C2 5487   1.579   4.213   9.871  0.4183 -0.2833 -0.3523
   41CHL1   H2A 5488   1.576   4.111   9.915 -0.9695  0.1521  0.6224
   41CHL1   H2B 5489   1.488   4.264   9.909  1.3040  0.3957  0.9115
   41CHL1   C20 5490   1.270   4.348   8.989 -0.3830 -0.1450  0.7001
   41CHL1   H20 5491   1.207   4.438   9.008 -0.0745  0.0735  0.6876
   41CHL1   C21 5492   1.178   4.229   9.025 -0.5324 -0.2813  0.5740
   41CHL1  H21A 5493   1.124   4.251   9.119 -1.2118 -0.4280  0.2272
   41CHL1  H21B 5494   1.237   4.136   9.041  0.8273  0.6263  1.0271
   41CHL1  H21C 5495   1.099   4.209   8.950  1.5489 -1.0482 -1.5502
   41CHL1   C22 5496   1.306   4.341   8.837  0.4340 -0.2788 -0.3292
   41CHL1  H22A 5497   1.215   4.372   8.782  1.3850  1.4216 -1.0610
   41CHL1  H22B 5498   1.384   4.417   8.812  0.1524 -0.4422 -1.7890
   41CHL1   C23 5499   1.346   4.203   8.784 -0.0402  0.3823  0.2623
   41CHL1  H23A 5500   1.415   4.139   8.842 -1.1954 -1.0281  0.1365
   41CHL1  H23B 5501   1.254   4.142   8.791 -0.6046  1.2734  0.8124
   41CHL1   C24 5502   1.388   4.223   8.636 -0.3880 -0.5158 -0.0771
   41CHL1  H24A 5503   1.308   4.285   8.590 -0.3372  0.2100  0.7782
   41CHL1  H24B 5504   1.485   4.274   8.621 -0.4983  0.5945  2.3110
   41CHL1   C25 5505   1.412   4.098   8.557 -0.8355  0.5018  0.3270
   41CHL1   H25 5506   1.327   4.029   8.575 -0.2499 -0.3110  0.0018
   41CHL1   C26 5507   1.413   4.125   8.403 -0.2338 -0.0381 -0.1586
   41CHL1  H26A 5508   1.330   4.198   8.388 -1.1888 -0.5182  2.3611
   41CHL1  H26B 5509   1.514   4.167   8.380  0.0118 -0.5738 -0.0763
   41CHL1  H26C 5510   1.393   4.036   8.339  2.2326 -0.1625 -0.8483
   41CHL1   C27 5511   1.542   4.032   8.597 -0.4829  0.1295 -0.1787
   41CHL1  H27A 5512   1.531   3.968   8.688 -1.5695  0.5757  0.0201
   41CHL1  H27B 5513   1.575   3.966   8.513  1.4501 -0.3168  0.8655
   41CHL1  H27C 5514   1.629   4.098   8.616 -0.5005  0.0396  0.2219
   42CHL1    C3 5515   0.452   2.344   9.706 -0.5021  0.0106 -0.5550
   42CHL1    H3 5516   0.368   2.306   9.644 -1.1876 -0.0214  0.3650
   42CHL1    O3 5517   0.388   2.393   9.827  0.2247 -0.2279  0.4059
   42CHL1   H3' 5518   0.463   2.413   9.885 -0.0059  0.3903  0.4982
   42CHL1    C4 5519   0.538   2.221   9.745 -0.4227 -0.5625  0.0530
   42CHL1   H4A 5520   0.617   2.265   9.810 -0.2211  0.5403 -0.9080
   42CHL1   H4B 5521   0.480   2.145   9.800  0.5286 -1.3018  0.0656
   42CHL1    C5 5522   0.589   2.162   9.617  0.1038  0.3509 -0.1460
   42CHL1    C6 5523   0.570   2.028   9.592  0.4973 -0.3138 -0.3382
   42CHL1    H6 5524   0.515   1.964   9.662 -2.9850  0.2845 -2.2734
   42CHL1    C7 5525   0.616   1.958   9.464 -0.8134  0.3971 -0.1839
   42CHL1   H7A 5526   0.658   1.855   9.471  0.3336  0.8796  0.2941
   42CHL1   H7B 5527   0.530   1.941   9.396 -0.2494  0.2046 -0.8622
   42CHL1    C8 5528   0.709   2.042   9.375 -0.0782 -0.6878 -0.7312
   42CHL1    H8 5529   0.810   2.045   9.421 -1.1437  0.5230  1.7606
   42CHL1   C14 5530   0.725   1.982   9.229  0.4399 -0.1982  0.0927
   42CHL1   H14 5531   0.625   1.983   9.180  1.4777 -0.5767 -2.1767
   42CHL1   C15 5532   0.776   1.839   9.217 -0.6109  0.1662  0.2807
   42CHL1  H15A 5533   0.867   1.841   9.281 -1.4887 -0.0337  1.5824
   42CHL1  H15B 5534   0.708   1.762   9.260 -0.5774 -0.1295 -0.1957
   42CHL1   C16 5535   0.807   1.834   9.065  0.2024  0.9089  0.1881
   42CHL1  H16A 5536   0.910   1.792   9.055  0.5794  1.7558  0.4517
   42CHL1  H16B 5537   0.740   1.767   9.006  1.9846 -0.6134 -0.2276
   42CHL1   C17 5538   0.814   1.977   9.018  0.0477  0.2898  1.0914
   42CHL1   H17 5539   0.716   2.001   8.972 -0.0632 -1.8532  0.0731
   42CHL1   C13 5540   0.813   2.066   9.144 -0.8600  0.6960  0.5422
   42CHL1   C18 5541   0.957   2.085   9.190  0.7836  0.9601 -0.5884
   42CHL1  H18A 5542   1.000   2.178   9.146  1.2402  1.8800  1.6565
   42CHL1  H18B 5543   0.965   2.088   9.301 -0.3762 -3.8514 -0.1720
   42CHL1  H18C 5544   1.025   2.005   9.155  1.7085  0.2985  2.4502
   42CHL1   C12 5545   0.751   2.206   9.138 -0.7866  0.5972  0.8017
   42CHL1  H12A 5546   0.808   2.273   9.069 -1.5595 -0.9766 -1.4972
   42CHL1  H12B 5547   0.645   2.201   9.105  0.0335  0.2036 -2.0819
   42CHL1   C11 5548   0.742   2.270   9.273 -0.0581 -0.6124 -0.4196
   42CHL1  H11A 5549   0.843   2.288   9.316 -0.3038 -0.7766  0.2375
   42CHL1  H11B 5550   0.700   2.373   9.268  0.1255 -0.5149 -0.0451
   42CHL1    C9 5551   0.666   2.191   9.377  0.3020  0.0260  0.7742
   42CHL1    H9 5552   0.564   2.187   9.332  1.0512  0.3880 -1.0691
   42CHL1   C10 5553   0.662   2.259   9.521  0.3268  0.3248  0.6820
   42CHL1   C19 5554   0.806   2.275   9.589  0.0265  0.4388  0.1600
   42CHL1  H19A 5555   0.800   2.371   9.645  0.8801 -0.0191  1.0519
   42CHL1  H19B 5556   0.835   2.188   9.650  2.2739  2.0362  1.4972
   42CHL1  H19C 5557   0.887   2.283   9.514  0.3459 -2.6495  0.0629
   42CHL1    C1 5558   0.591   2.394   9.510  0.0323  0.8087 -0.4925
   42CHL1   H1A 5559   0.669   2.465   9.474  1.4029 -1.2370 -1.6962
   42CHL1   H1B 5560   0.508   2.372   9.441 -0.2618 -2.1975  0.6815
   42CHL1    C2 5561   0.531   2.455   9.640 -0.0631  0.4520 -0.0974
   42CHL1   H2A 5562   0.466   2.543   9.620 -0.3564  0.0092 -1.1377
   42CHL1   H2B 5563   0.616   2.489   9.703  1.5932 -1.9968 -0.8623
   42CHL1   C20 5564   0.920   1.997   8.899 -0.6064 -0.4737 -0.4472
   42CHL1   H20 5565   1.019   1.970   8.940 -0.8725 -1.5194 -0.4658
   42CHL1   C21 5566   0.931   2.147   8.863  0.5566  0.2641  0.6451
   42CHL1  H21A 5567   0.954   2.204   8.956  0.2802  0.1331  0.7932
   42CHL1  H21B 5568   0.834   2.193   8.836  0.8932 -0.1716 -1.4868
   42CHL1  H21C 5569   0.994   2.179   8.778  0.3499 -0.3584  0.2521
   42CHL1   C22 5570   0.892   1.919   8.772 -0.9567  0.8394 -0.7987
   42CHL1  H22A 5571   0.844   1.823   8.801  0.4603  0.8013  1.6908
   42CHL1  H22B 5572   0.829   1.981   8.705  0.5608  0.2565 -2.8681
   42CHL1   C23 5573   1.026   1.906   8.687  0.1272 -0.2683  0.0069
   42CHL1  H23A 5574   1.064   2.005   8.654 -0.1068  0.2198  1.1248
   42CHL1  H23B 5575   1.101   1.860   8.755  0.5570  0.1004 -0.2161
   42CHL1   C24 5576   1.029   1.810   8.567  0.2374  0.3863 -0.0068
   42CHL1  H24A 5577   1.130   1.825   8.523  1.6668  1.4488  3.3049
   42CHL1  H24B 5578   1.036   1.703   8.597  1.0604 -0.0395 -1.6404
   42CHL1   C25 5579   0.923   1.826   8.454  0.0555 -0.4854  0.3993
   42CHL1   H25 5580   0.907   1.935   8.444 -0.2196 -0.6448 -1.1176
   42CHL1   C26 5581   0.967   1.781   8.319  0.4024 -0.0012  0.6814
   42CHL1  H26A 5582   1.072   1.817   8.310  1.2644 -2.5314 -0.2577
   42CHL1  H26B 5583   0.978   1.671   8.323  2.2253  0.0840 -0.6342
   42CHL1  H26C 5584   0.908   1.821   8.234 -1.8346  0.8114  2.5207
   42CHL1   C27 5585   0.790   1.753   8.492 -0.1111  0.3898  0.3619
   42CHL1  H27A 5586   0.803   1.643   8.497 -1.4735  0.1682 -0.4877
   42CHL1  H27B 5587   0.737   1.787   8.584  2.7536  1.4616  1.7398
   42CHL1  H27C 5588   0.712   1.764   8.413 -1.1633 -0.7210  1.1925
   43CHL1    C3 5589   0.448   3.362   9.805  0.5671  0.3595 -0.3011
   43CHL1    H3 5590   0.516   3.446   9.830  1.3319  0.0804 -1.3675
   43CHL1    O3 5591   0.472   3.257   9.897 -0.3174 -0.2889 -0.0924
   43CHL1   H3' 5592   0.568   3.253   9.891 -0.0263  1.8130  2.0181
   43CHL1    C4 5593   0.299   3.409   9.809 -0.6466  0.1797 -0.1216
   43CHL1   H4A 5594   0.239   3.316   9.792 -0.2229  0.1704 -1.7450
   43CHL1   H4B 5595   0.271   3.451   9.908 -0.9351 -0.0202 -0.1156
   43CHL1    C5 5596   0.268   3.518   9.711  0.1300  0.6997  0.2971
   43CHL1    C6 5597   0.216   3.635   9.757 -0.9280 -0.0715  0.0513
   43CHL1    H6 5598   0.214   3.654   9.865  2.9672  2.7659 -0.1920
   43CHL1    C7 5599   0.167   3.735   9.658  0.0116  0.4339 -0.2545
   43CHL1   H7A 5600   0.066   3.769   9.690  0.5001  1.4485  0.2867
   43CHL1   H7B 5601   0.230   3.826   9.645  1.0241 -0.1981  0.0843
   43CHL1    C8 5602   0.162   3.676   9.513  0.4969  0.2560 -0.7697
   43CHL1    H8 5603   0.076   3.607   9.501  1.8434 -2.2447  2.3345
   43CHL1   C14 5604   0.139   3.796   9.422 -0.0262 -0.5875  0.2414
   43CHL1   H14 5605   0.230   3.858   9.437  0.0687 -0.2358 -1.5418
   43CHL1   C15 5606   0.010   3.876   9.443 -0.1730  0.7031  0.1617
   43CHL1  H15A 5607  -0.082   3.815   9.442  0.5137 -0.3637  0.4480
   43CHL1  H15B 5608   0.009   3.927   9.542  1.2688 -1.5459  1.4311
   43CHL1   C16 5609  -0.006   3.961   9.318 -0.6956  0.3334  0.1054
   43CHL1  H16A 5610  -0.111   3.975   9.285 -0.2733  0.9793 -1.0072
   43CHL1  H16B 5611   0.034   4.062   9.344  0.0839  0.3824 -1.2350
   43CHL1   C17 5612   0.086   3.896   9.210 -0.0461 -0.2827 -0.4288
   43CHL1   H17 5613   0.181   3.952   9.208  1.0342 -1.8964  1.8125
   43CHL1   C13 5614   0.128   3.756   9.268 -0.1920  0.3394  0.7122
   43CHL1   C18 5615   0.012   3.661   9.240  0.2020 -0.4904 -0.5126
   43CHL1  H18A 5616  -0.001   3.638   9.132 -1.5146  1.5478 -0.8076
   43CHL1  H18B 5617   0.017   3.563   9.292 -1.8829  0.0292  0.8156
   43CHL1  H18C 5618  -0.081   3.699   9.288  0.9604  4.3000 -2.2181
   43CHL1   C12 5619   0.270   3.699   9.231 -0.4239 -0.1935  0.1645
   43CHL1  H12A 5620   0.270   3.671   9.123  1.7810  0.0868  0.0439
   43CHL1  H12B 5621   0.334   3.788   9.253 -0.3090 -0.6617  1.8131
   43CHL1   C11 5622   0.296   3.579   9.324  0.7653  0.3689 -0.2087
   43CHL1  H11A 5623   0.222   3.503   9.289 -0.2966  0.7508  1.1188
   43CHL1  H11B 5624   0.398   3.541   9.303  2.1768  1.5974  3.6853
   43CHL1    C9 5625   0.288   3.604   9.477  0.0906  0.0968 -0.1405
   43CHL1    H9 5626   0.375   3.667   9.503  0.8777 -0.8284 -0.4866
   43CHL1   C10 5627   0.298   3.474   9.570  0.4199  0.1662 -0.1327
   43CHL1   C19 5628   0.196   3.373   9.527  0.2007 -0.2368 -0.5464
   43CHL1  H19A 5629   0.090   3.402   9.537 -0.1363 -1.7997  0.6421
   43CHL1  H19B 5630   0.199   3.355   9.417  1.9405  1.1100 -0.7749
   43CHL1  H19C 5631   0.197   3.282   9.590 -2.3748 -0.0702 -0.1869
   43CHL1    C1 5632   0.448   3.415   9.556  0.4292 -0.6110  0.1381
   43CHL1   H1A 5633   0.476   3.386   9.453 -0.7351  1.3863 -0.8071
   43CHL1   H1B 5634   0.508   3.505   9.581  2.3653 -1.6720 -0.4700
   43CHL1    C2 5635   0.484   3.313   9.661  0.3483  0.1701  0.2226
   43CHL1   H2A 5636   0.588   3.274   9.653 -0.3981 -1.9209  0.0781
   43CHL1   H2B 5637   0.415   3.226   9.649  0.5461 -0.2241  1.7238
   43CHL1   C20 5638   0.022   3.904   9.071  0.2502  0.0089 -0.3762
   43CHL1   H20 5639  -0.063   3.832   9.075  0.3940 -0.3279 -2.4259
   43CHL1   C21 5640   0.121   3.865   8.958 -0.1438  0.3630  0.1252
   43CHL1  H21A 5641   0.195   3.948   8.951  2.0757 -1.5932 -1.0381
   43CHL1  H21B 5642   0.069   3.867   8.860 -0.2076  1.9446  0.1591
   43CHL1  H21C 5643   0.175   3.769   8.974 -0.3772  0.0189 -1.0954
   43CHL1   C22 5644  -0.045   4.045   9.043  0.2833 -0.6049  0.1397
   43CHL1  H22A 5645  -0.107   4.091   9.123 -1.3800  1.5620 -2.2132
   43CHL1  H22B 5646   0.034   4.119   9.020 -0.6253  0.3358 -0.0459
   43CHL1   C23 5647  -0.153   4.047   8.930 -0.2730 -0.4410 -0.3503
   43CHL1  H23A 5648  -0.104   3.998   8.843 -0.9195  0.1614 -1.0738
   43CHL1  H23B 5649  -0.235   3.983   8.969  0.5388 -0.1912  1.8564
   43CHL1   C24 5650  -0.198   4.182   8.878  0.6197 -0.0281 -0.1707
   43CHL1  H24A 5651  -0.223   4.238   8.971  0.9964 -2.1519  1.2880
   43CHL1  H24B 5652  -0.104   4.215   8.830  0.9883 -0.1944  0.4268
   43CHL1   C25 5653  -0.303   4.181   8.771  0.1033 -0.8466  0.2388
   43CHL1   H25 5654  -0.275   4.110   8.690 -0.6610 -1.2466  0.3158
   43CHL1   C26 5655  -0.439   4.133   8.824 -0.1071 -0.3823 -0.0449
   43CHL1  H26A 5656  -0.463   4.187   8.918  0.6606 -0.4269  0.1838
   43CHL1  H26B 5657  -0.519   4.156   8.750 -0.3056  2.1750  0.8679
   43CHL1  H26C 5658  -0.461   4.025   8.840 -0.3399 -0.5901 -1.6064
   43CHL1   C27 5659  -0.322   4.326   8.720  0.2648  0.1585 -0.5924
   43CHL1  H27A 5660  -0.402   4.327   8.642  0.5409 -1.3726 -0.9373
   43CHL1  H27B 5661  -0.340   4.391   8.808  2.1014 -0.9104  0.6406
   43CHL1  H27C 5662  -0.230   4.351   8.663  1.5404 -0.2422  1.2065
   44CHL1    C3 5663   2.378   4.317  10.185 -0.7792 -0.0654  0.2686
   44CHL1    H3 5664   2.396   4.424  10.161  4.2054 -1.1858 -2.2672
   44CHL1    O3 5665   2.391   4.318  10.325 -0.3429  0.2425  0.5171
   44CHL1   H3' 5666   2.374   4.226  10.347  2.0578 -1.0078 -2.1340
   44CHL1    C4 5667   2.232   4.266  10.146  0.1834  0.0144 -0.4166
   44CHL1   H4A 5668   2.222   4.175  10.209 -0.5435  1.0353  1.0148
   44CHL1   H4B 5669   2.163   4.342  10.189  0.3478  2.0156 -3.3519
   44CHL1    C5 5670   2.212   4.247  10.002 -0.3577  0.1147  0.6261
   44CHL1    C6 5671   2.112   4.313   9.939  0.5021 -0.8587  0.0955
   44CHL1    H6 5672   2.038   4.371   9.996  1.4111  0.0174  0.4319
   44CHL1    C7 5673   2.093   4.293   9.794 -0.3266 -0.3628  0.0558
   44CHL1   H7A 5674   1.988   4.260   9.777 -0.5267 -0.9439  2.1340
   44CHL1   H7B 5675   2.128   4.385   9.742  0.9909 -0.0746  1.3770
   44CHL1    C8 5676   2.168   4.168   9.733  0.2394  0.4733  0.6976
   44CHL1    H8 5677   2.105   4.079   9.755  0.9987 -0.7475 -1.6723
   44CHL1   C14 5678   2.172   4.186   9.580  0.3029  0.7053  1.0676
   44CHL1   H14 5679   2.240   4.274   9.572  1.6085 -0.1147  2.6377
   44CHL1   C15 5680   2.045   4.215   9.494 -0.2333  0.1313 -0.5566
   44CHL1  H15A 5681   1.954   4.166   9.536  0.3300 -0.3648  0.1224
   44CHL1  H15B 5682   2.032   4.324   9.508 -0.9140  0.2751 -2.1086
   44CHL1   C16 5683   2.079   4.174   9.350  0.1758  0.6089 -0.3273
   44CHL1  H16A 5684   2.001   4.105   9.312 -0.0459  0.5512  0.2298
   44CHL1  H16B 5685   2.091   4.265   9.287  3.3352 -0.5556 -1.6466
   44CHL1   C17 5686   2.218   4.103   9.355  0.4728  0.3167 -0.0323
   44CHL1   H17 5687   2.295   4.181   9.335  0.9116 -0.4391 -1.3457
   44CHL1   C13 5688   2.239   4.065   9.507  0.6961  0.3220 -1.0291
   44CHL1   C18 5689   2.158   3.934   9.532  0.0990 -0.9107  0.0882
   44CHL1  H18A 5690   2.187   3.855   9.460 -0.2605 -1.0787  0.1233
   44CHL1  H18B 5691   2.194   3.895   9.630  0.5918  0.3353  0.4146
   44CHL1  H18C 5692   2.047   3.949   9.533 -0.0689 -2.0641  1.0428
   44CHL1   C12 5693   2.383   4.059   9.545  0.3299  0.4091 -0.0001
   44CHL1  H12A 5694   2.443   3.982   9.492 -1.8787 -0.1709 -1.7762
   44CHL1  H12B 5695   2.425   4.156   9.511 -2.3607  2.1568  1.3939
   44CHL1   C11 5696   2.397   4.060   9.705  0.0858  0.1583  0.4440
   44CHL1  H11A 5697   2.362   3.961   9.741  0.0550 -0.2893 -0.7855
   44CHL1  H11B 5698   2.504   4.073   9.731  0.2275 -0.9881  0.4616
   44CHL1    C9 5699   2.312   4.166   9.776  0.2222 -0.5094 -0.4688
   44CHL1    H9 5700   2.353   4.266   9.752 -2.4391  1.2250  1.5853
   44CHL1   C10 5701   2.326   4.166   9.929  0.3471 -0.4533  0.1837
   44CHL1   C19 5702   2.322   4.014   9.979  0.0231 -0.3528 -0.3456
   44CHL1  H19A 5703   2.418   3.970   9.945 -0.1069 -1.0167  0.1256
   44CHL1  H19B 5704   2.324   4.010  10.090 -3.4471 -0.4018 -0.1774
   44CHL1  H19C 5705   2.232   3.955   9.949 -0.6458  1.3229 -1.8409
   44CHL1    C1 5706   2.466   4.214   9.969 -0.5359  0.1888  0.0871
   44CHL1   H1A 5707   2.541   4.137   9.944 -0.4126  0.4819 -0.4553
   44CHL1   H1B 5708   2.484   4.314   9.923 -1.3024  0.8080  1.0694
   44CHL1    C2 5709   2.486   4.233  10.120 -0.3419  0.1206 -0.0390
   44CHL1   H2A 5710   2.580   4.291  10.136  0.2187 -0.2102 -1.8939
   44CHL1   H2B 5711   2.497   4.133  10.168 -0.2291  1.1310  2.1365
   44CHL1   C20 5712   2.236   4.002   9.237 -0.1245  0.6241  0.5130
   44CHL1   H20 5713   2.161   3.923   9.260 -1.3603  0.9591 -1.9888
   44CHL1   C21 5714   2.371   3.930   9.247 -0.3471  0.1689  0.2709
   44CHL1  H21A 5715   2.383   3.850   9.324 -0.2538  0.1037  0.1886
   44CHL1  H21B 5716   2.458   3.997   9.259  1.0812 -1.7451  1.0843
   44CHL1  H21C 5717   2.379   3.869   9.154  1.3308  0.9791 -0.1591
   44CHL1   C22 5718   2.205   4.068   9.101 -0.2137  0.8888 -1.2333
   44CHL1  H22A 5719   2.222   3.994   9.020  0.3800  1.2394 -1.4420
   44CHL1  H22B 5720   2.095   4.082   9.105 -0.3546 -0.1730  2.9800
   44CHL1   C23 5721   2.285   4.193   9.073 -0.7459 -0.3569 -0.1184
   44CHL1  H23A 5722   2.277   4.267   9.154 -1.1870 -0.9078  0.3549
   44CHL1  H23B 5723   2.391   4.159   9.073 -1.1387 -1.8779  2.5636
   44CHL1   C24 5724   2.239   4.245   8.940  0.0300  0.5545 -0.2092
   44CHL1  H24A 5725   2.220   4.160   8.872  0.9965  0.7722 -0.7752
   44CHL1  H24B 5726   2.142   4.297   8.957  0.5838  1.1726  1.2791
   44CHL1   C25 5727   2.326   4.344   8.859  0.5985 -0.4120 -0.2945
   44CHL1   H25 5728   2.425   4.295   8.852  0.3424 -1.4144  2.0456
   44CHL1   C26 5729   2.266   4.373   8.730  0.4621  0.0681  0.7539
   44CHL1  H26A 5730   2.332   4.438   8.669  0.8762 -1.9273 -1.0410
   44CHL1  H26B 5731   2.242   4.279   8.675  0.7938  1.1217 -1.2696
   44CHL1  H26C 5732   2.166   4.422   8.730  0.9263  1.2114 -2.2525
   44CHL1   C27 5733   2.348   4.479   8.941 -0.1841 -0.1883  0.1796
   44CHL1  H27A 5734   2.416   4.543   8.881 -0.0285 -0.1243  0.4243
   44CHL1  H27B 5735   2.247   4.526   8.939  0.2818  0.8451 -1.4814
   44CHL1  H27C 5736   2.380   4.454   9.044  0.0425  0.6561  0.3241
   45CHL1    C3 5737   3.940   2.347  10.241 -0.3440  0.6389  0.1760
   45CHL1    H3 5738   3.842   2.302  10.268  0.2862 -1.1548 -0.4311
   45CHL1    O3 5739   4.006   2.376  10.363  0.0367 -0.0744 -0.0143
   45CHL1   H3' 5740   4.082   2.427  10.336 -1.0861  0.4875 -2.3387
   45CHL1    C4 5741   4.016   2.241  10.157  0.2264 -0.1173 -0.8829
   45CHL1   H4A 5742   4.125   2.263  10.161  0.5547 -1.7877  0.2894
   45CHL1   H4B 5743   3.994   2.151  10.218 -0.9697 -0.5570 -1.9093
   45CHL1    C5 5744   3.969   2.226  10.017 -0.2879 -0.2936  0.3153
   45CHL1    C6 5745   3.932   2.107   9.968 -0.5059  0.4044  0.2760
   45CHL1    H6 5746   3.940   2.019  10.033  0.7479 -0.1658 -0.6243
   45CHL1    C7 5747   3.882   2.083   9.824 -0.5742  0.4658 -0.1460
   45CHL1   H7A 5748   3.916   1.988   9.777 -1.0281  0.2793 -0.1029
   45CHL1   H7B 5749   3.772   2.078   9.819 -0.6071  0.2834  0.6865
   45CHL1    C8 5750   3.923   2.200   9.726  0.5025  0.3220 -0.3737
   45CHL1    H8 5751   3.855   2.183   9.639  1.9902 -1.7912 -1.2048
   45CHL1   C14 5752   4.051   2.189   9.642  0.0824 -0.3070  0.0943
   45CHL1   H14 5753   4.131   2.190   9.720 -0.8648 -1.2783  1.1083
   45CHL1   C15 5754   4.064   2.057   9.552 -0.0279  0.4396  0.0160
   45CHL1  H15A 5755   4.174   2.041   9.557 -0.0288  0.6488  0.9515
   45CHL1  H15B 5756   4.010   1.970   9.595  0.5567 -0.0235 -0.1656
   45CHL1   C16 5757   4.019   2.094   9.408  0.2122 -0.0447 -0.0031
   45CHL1  H16A 5758   4.105   2.060   9.346  0.7271 -0.4605  0.9109
   45CHL1  H16B 5759   3.930   2.047   9.361  2.0405 -2.3131 -1.3756
   45CHL1   C17 5760   3.994   2.250   9.413  0.0420 -0.3998 -0.2150
   45CHL1   H17 5761   3.888   2.258   9.446  0.4266  0.2695  0.9222
   45CHL1   C13 5762   4.071   2.305   9.538 -0.0820  0.0325 -0.3027
   45CHL1   C18 5763   4.220   2.302   9.497  0.3299 -0.4967 -0.2871
   45CHL1  H18A 5764   4.275   2.302   9.594  0.4300 -0.6425 -0.3418
   45CHL1  H18B 5765   4.254   2.211   9.442  1.5950 -0.2477  0.0394
   45CHL1  H18C 5766   4.253   2.395   9.446  0.8168  0.2443  1.2967
   45CHL1   C12 5767   4.025   2.449   9.596  0.0084  0.6339  0.2773
   45CHL1  H12A 5768   4.111   2.486   9.656 -0.1403  2.2438 -0.4631
   45CHL1  H12B 5769   4.021   2.517   9.508 -0.9971  0.9821  0.5732
   45CHL1   C11 5770   3.890   2.446   9.683 -0.5739  0.4657  0.1497
   45CHL1  H11A 5771   3.857   2.541   9.729  0.9696  1.7051 -1.1607
   45CHL1  H11B 5772   3.801   2.415   9.623 -0.3146 -2.5193  1.1358
   45CHL1    C9 5773   3.887   2.330   9.794  0.3924 -0.3800  0.4226
   45CHL1    H9 5774   3.781   2.318   9.825  0.5157 -0.7085  0.7237
   45CHL1   C10 5775   3.959   2.358   9.934 -0.4769  0.5300 -0.1639
   45CHL1   C19 5776   4.104   2.407   9.912 -0.3835 -0.3967 -0.3310
   45CHL1  H19A 5777   4.169   2.346   9.846 -0.5509  0.3063 -1.1515
   45CHL1  H19B 5778   4.101   2.509   9.869  1.0881  0.2206  0.9484
   45CHL1  H19C 5779   4.163   2.401  10.006  0.7063 -2.7973 -1.0828
   45CHL1    C1 5780   3.885   2.462  10.018 -0.2126 -0.1766  0.1717
   45CHL1   H1A 5781   3.861   2.554   9.960 -3.2839 -0.4550  0.8028
   45CHL1   H1B 5782   3.780   2.430  10.034 -0.3689 -0.5119 -1.3241
   45CHL1    C2 5783   3.933   2.475  10.163 -0.8123  0.4869  0.1443
   45CHL1   H2A 5784   3.865   2.549  10.210 -1.3550 -0.5146  0.9777
   45CHL1   H2B 5785   4.036   2.517  10.157 -1.4209  1.9149 -0.8014
   45CHL1   C20 5786   4.011   2.324   9.277  0.7057 -0.2301 -0.0639
   45CHL1   H20 5787   4.035   2.429   9.301  0.7246 -0.4621  0.9878
   45CHL1   C21 5788   3.872   2.322   9.206  1.1187 -0.3633  0.2092
   45CHL1  H21A 5789   3.848   2.218   9.176 -1.8582 -0.1159  1.4260
   45CHL1  H21B 5790   3.869   2.397   9.124 -2.6170  1.2869  1.6274
   45CHL1  H21C 5791   3.792   2.353   9.276 -1.6403 -1.6438 -2.1743
   45CHL1   C22 5792   4.118   2.260   9.184  0.7761 -0.2884  0.2384
   45CHL1  H22A 5793   4.214   2.238   9.234  0.4379  0.4607  1.2346
   45CHL1  H22B 5794   4.076   2.164   9.145 -0.6115  0.7710 -0.9955
   45CHL1   C23 5795   4.161   2.365   9.078  0.2570 -0.0034  0.1489
   45CHL1  H23A 5796   4.088   2.412   9.009 -0.5701  2.8557  2.7455
   45CHL1  H23B 5797   4.220   2.444   9.129  0.2821  0.1409 -0.1011
   45CHL1   C24 5798   4.265   2.300   8.985  0.0754 -0.3405 -0.3594
   45CHL1  H24A 5799   4.332   2.249   9.058 -1.6102  0.6327  2.0061
   45CHL1  H24B 5800   4.228   2.222   8.915  4.0547 -1.3523 -1.6092
   45CHL1   C25 5801   4.340   2.403   8.899 -0.0216 -0.0250  0.1932
   45CHL1   H25 5802   4.362   2.492   8.962  0.7001  0.1522 -0.2902
   45CHL1   C26 5803   4.484   2.366   8.848 -0.0206 -0.1291  0.1666
   45CHL1  H26A 5804   4.482   2.267   8.798 -0.1505 -0.2624  0.4334
   45CHL1  H26B 5805   4.505   2.439   8.767  0.4113 -1.0581 -0.5831
   45CHL1  H26C 5806   4.553   2.357   8.934  0.2503  1.0941  0.0920
   45CHL1   C27 5807   4.256   2.445   8.775 -0.0622  0.5437  0.0393
   45CHL1  H27A 5808   4.303   2.530   8.721  2.1684 -0.9453 -0.5203
   45CHL1  H27B 5809   4.251   2.360   8.704  0.6323  0.8745 -0.4192
   45CHL1  H27C 5810   4.158   2.473   8.820 -0.1578 -0.2635  0.3410
   46CHL1    C3 5811   1.130   6.842   9.927  0.7500  0.0207 -0.0682
   46CHL1    H3 5812   1.229   6.887   9.903  0.3511  1.0564  0.1692
   46CHL1    O3 5813   1.132   6.811  10.069 -0.1079  0.0682  0.6924
   46CHL1   H3' 5814   1.092   6.886  10.113 -0.3871  1.6207 -1.9844
   46CHL1    C4 5815   1.019   6.927   9.884 -0.0601  0.0920 -0.4684
   46CHL1   H4A 5816   0.921   6.884   9.914 -0.9847  1.9691 -0.6435
   46CHL1   H4B 5817   1.022   7.024   9.937 -0.2669 -0.6486  0.9708
   46CHL1    C5 5818   1.011   6.943   9.734  0.4249 -0.2013  0.6591
   46CHL1    C6 5819   1.022   7.069   9.684  0.2652  0.0789  0.2231
   46CHL1    H6 5820   1.032   7.154   9.753 -1.8235  1.1097 -0.6588
   46CHL1    C7 5821   1.026   7.101   9.539  0.1911 -0.9855  0.5128
   46CHL1   H7A 5822   0.957   7.186   9.524 -0.5039 -1.9723 -2.9620
   46CHL1   H7B 5823   1.133   7.114   9.509  0.4329 -0.9527  1.3788
   46CHL1    C8 5824   0.966   6.983   9.457  0.4922 -0.0988  0.1557
   46CHL1    H8 5825   0.858   6.978   9.480  0.1700  0.6841 -1.1210
   46CHL1   C14 5826   0.988   7.010   9.309  0.0143  0.6094  0.6462
   46CHL1   H14 5827   1.098   7.020   9.291 -0.0124 -0.4759 -0.1759
   46CHL1   C15 5828   0.937   7.146   9.252  0.4862  0.0020 -0.1442
   46CHL1  H15A 5829   0.835   7.160   9.294  0.1879  1.1112 -1.1846
   46CHL1  H15B 5830   0.987   7.233   9.299 -1.3987  1.8836 -1.4017
   46CHL1   C16 5831   0.931   7.138   9.103  0.4362 -0.7690 -0.1058
   46CHL1  H16A 5832   0.831   7.161   9.061  0.4008 -1.2387 -0.2818
   46CHL1  H16B 5833   1.007   7.203   9.054 -0.4026 -1.3965 -2.3707
   46CHL1   C17 5834   0.971   6.985   9.074 -0.0856 -0.8418 -0.3562
   46CHL1   H17 5835   1.081   6.971   9.066  0.1479  0.5359  0.0980
   46CHL1   C13 5836   0.940   6.912   9.205 -0.2573  0.1297 -0.6356
   46CHL1   C18 5837   0.785   6.900   9.220 -0.0181 -0.8247 -0.8112
   46CHL1  H18A 5838   0.754   6.883   9.325  1.7304  0.1585 -0.0967
   46CHL1  H18B 5839   0.745   6.997   9.183  1.7713  0.2607 -0.0332
   46CHL1  H18C 5840   0.738   6.824   9.154 -2.8258 -0.5104  0.6775
   46CHL1   C12 5841   1.017   6.780   9.236  0.6922 -0.3827 -1.0235
   46CHL1  H12A 5842   0.970   6.704   9.170 -1.3836  0.3608 -0.4678
   46CHL1  H12B 5843   1.124   6.793   9.210  1.2708  1.2066  1.7878
   46CHL1   C11 5844   1.010   6.736   9.386  1.0793  0.1311  0.0456
   46CHL1  H11A 5845   0.906   6.700   9.398  0.5874  0.9430 -1.4848
   46CHL1  H11B 5846   1.078   6.650   9.404 -0.0723 -0.6746  0.6240
   46CHL1    C9 5847   1.033   6.851   9.492 -0.6198 -0.1690 -0.2676
   46CHL1    H9 5848   1.143   6.857   9.478 -0.5167  1.2049  0.8341
   46CHL1   C10 5849   1.011   6.816   9.644  0.3748 -0.0845  0.0935
   46CHL1   C19 5850   0.875   6.756   9.667 -0.0534  0.7156  0.7205
   46CHL1  H19A 5851   0.788   6.814   9.632 -1.6910 -1.9135  0.1405
   46CHL1  H19B 5852   0.867   6.659   9.613 -0.5625  0.2732  1.5750
   46CHL1  H19C 5853   0.851   6.738   9.774 -3.5985  3.5939  0.5773
   46CHL1    C1 5854   1.135   6.737   9.702  0.0910 -0.0278  0.3843
   46CHL1   H1A 5855   1.126   6.637   9.654  1.5396 -0.0775  0.1695
   46CHL1   H1B 5856   1.226   6.795   9.674 -0.8603  1.6002  0.5347
   46CHL1    C2 5857   1.131   6.705   9.846  0.0117 -0.0969  0.2866
   46CHL1   H2A 5858   1.213   6.637   9.876  0.4454  0.6235  0.7657
   46CHL1   H2B 5859   1.038   6.649   9.869 -0.6701  0.6551 -0.5607
   46CHL1   C20 5860   0.912   6.946   8.941  0.2485  1.4929  0.3307
   46CHL1   H20 5861   0.807   6.981   8.936 -0.1205  0.3021 -2.9619
   46CHL1   C21 5862   0.922   6.788   8.924  0.3511  0.0999  0.4227
   46CHL1  H21A 5863   1.026   6.750   8.913  0.1436 -0.6214  0.8651
   46CHL1  H21B 5864   0.866   6.749   8.836 -0.6962  2.8210 -0.1999
   46CHL1  H21C 5865   0.877   6.739   9.013  1.4117 -2.4518 -0.3564
   46CHL1   C22 5866   0.993   7.017   8.827 -0.4072 -0.3579  0.8344
   46CHL1  H22A 5867   1.012   7.122   8.858  1.1207 -0.9798  2.1968
   46CHL1  H22B 5868   1.093   6.971   8.810  0.8963  2.2542  0.9662
   46CHL1   C23 5869   0.927   7.024   8.685  0.5611 -0.2270  0.0467
   46CHL1  H23A 5870   0.872   6.930   8.665  0.8809 -0.5119  0.4694
   46CHL1  H23B 5871   0.845   7.099   8.684  2.3141  1.8538  1.0452
   46CHL1   C24 5872   1.019   7.072   8.569 -0.2244  0.1224  0.0712
   46CHL1  H24A 5873   1.069   7.159   8.615  0.9939 -1.5367  2.0358
   46CHL1  H24B 5874   1.094   6.995   8.541 -0.0963 -0.1358  1.1159
   46CHL1   C25 5875   0.960   7.112   8.430 -0.1508 -0.1987  0.5362
   46CHL1   H25 5876   1.049   7.140   8.369 -0.8593  1.5668  0.2549
   46CHL1   C26 5877   0.897   6.982   8.365  0.0964  0.1105 -0.3234
   46CHL1  H26A 5878   0.865   6.994   8.260 -1.1395 -3.1178 -0.4424
   46CHL1  H26B 5879   0.968   6.897   8.361 -2.1238 -1.8589 -0.2573
   46CHL1  H26C 5880   0.807   6.945   8.419 -0.2453 -1.2046 -1.7455
   46CHL1   C27 5881   0.854   7.225   8.434 -0.1827  0.6084  0.1750
   46CHL1  H27A 5882   0.818   7.245   8.331  0.3030  1.2552  0.1261
   46CHL1  H27B 5883   0.765   7.185   8.487  0.9944 -3.1384 -0.3659
   46CHL1  H27C 5884   0.897   7.318   8.478 -0.6495  0.9567 -0.0911
   47CHL1    C3 5885   1.160   2.645  10.050 -0.2829 -0.3569  0.5450
   47CHL1    H3 5886   1.208   2.547  10.070 -0.1473  0.0613  2.4985
   47CHL1    O3 5887   1.073   2.671  10.162  0.0199 -0.0265 -0.7975
   47CHL1   H3' 5888   1.053   2.579  10.182  0.8763 -0.0529  0.0089
   47CHL1    C4 5889   1.264   2.762  10.048 -1.2698 -0.1945 -0.0758
   47CHL1   H4A 5890   1.206   2.855  10.068  1.5385  1.3249  1.7637
   47CHL1   H4B 5891   1.329   2.758  10.139  0.4925  0.4266 -1.2531
   47CHL1    C5 5892   1.344   2.768   9.915  0.4328  0.5188  0.4067
   47CHL1    C6 5893   1.481   2.771   9.924  0.7808 -0.0276  0.4402
   47CHL1    H6 5894   1.528   2.769  10.024 -1.0725  3.1232  1.5008
   47CHL1    C7 5895   1.570   2.770   9.807  0.2897 -0.3262 -0.4091
   47CHL1   H7A 5896   1.649   2.846   9.827 -1.0198  1.0295 -0.2808
   47CHL1   H7B 5897   1.622   2.672   9.794 -0.6523 -1.0624  1.0967
   47CHL1    C8 5898   1.490   2.816   9.681  0.4324 -0.6736  0.0739
   47CHL1    H8 5899   1.485   2.926   9.693  1.9320 -0.7180  1.4430
   47CHL1   C14 5900   1.569   2.779   9.557 -0.2912 -0.4201 -0.0802
   47CHL1   H14 5901   1.571   2.668   9.562  1.3502 -0.6265 -2.9709
   47CHL1   C15 5902   1.719   2.823   9.547  0.8907 -0.2023  0.0330
   47CHL1  H15A 5903   1.718   2.933   9.563 -0.6943 -0.3120  0.8538
   47CHL1  H15B 5904   1.791   2.782   9.622 -0.9960 -1.0024  1.4845
   47CHL1   C16 5905   1.757   2.806   9.396  0.5150  0.4975 -0.7415
   47CHL1  H16A 5906   1.804   2.900   9.360  2.8832 -0.2912  0.0642
   47CHL1  H16B 5907   1.822   2.716   9.393 -1.1176 -1.0470  3.3564
   47CHL1   C17 5908   1.628   2.772   9.327  0.0003  0.1969  0.2796
   47CHL1   H17 5909   1.626   2.661   9.321  1.3606  0.1653  0.1789
   47CHL1   C13 5910   1.513   2.817   9.420 -0.5476 -0.0447 -0.1052
   47CHL1   C18 5911   1.482   2.965   9.413  0.2559 -0.2461  0.2154
   47CHL1  H18A 5912   1.409   3.002   9.489  0.5206 -1.5727  1.1375
   47CHL1  H18B 5913   1.578   3.017   9.436  0.2893 -0.9537  1.8600
   47CHL1  H18C 5914   1.447   2.992   9.311  0.6900 -2.6843 -0.6199
   47CHL1   C12 5915   1.390   2.731   9.412 -0.1269  0.5454  1.1808
   47CHL1  H12A 5916   1.339   2.748   9.314  3.1823  1.4572 -0.5218
   47CHL1  H12B 5917   1.427   2.628   9.426  1.3307  1.0255  0.9574
   47CHL1   C11 5918   1.292   2.754   9.526 -0.4728 -0.0173  0.2884
   47CHL1  H11A 5919   1.239   2.851   9.507 -1.5333 -0.5589  0.3825
   47CHL1  H11B 5920   1.206   2.685   9.510 -0.7635  0.7938 -2.0610
   47CHL1    C9 5921   1.351   2.748   9.667  0.0780  0.1385 -0.5821
   47CHL1    H9 5922   1.374   2.640   9.680  0.9975  0.4125  0.1855
   47CHL1   C10 5923   1.258   2.766   9.785 -0.2440 -1.0547 -0.6178
   47CHL1   C19 5924   1.170   2.893   9.762  0.1070 -0.7593 -1.0243
   47CHL1  H19A 5925   1.248   2.966   9.732 -1.1007  0.6526 -0.8523
   47CHL1  H19B 5926   1.098   2.889   9.678 -1.3346 -0.0161  0.1411
   47CHL1  H19C 5927   1.107   2.917   9.851 -1.0093  0.9562 -2.2175
   47CHL1    C1 5928   1.158   2.647   9.802 -0.4466 -0.0316  0.0510
   47CHL1   H1A 5929   1.096   2.658   9.710 -1.3732 -1.7033  0.4222
   47CHL1   H1B 5930   1.207   2.548   9.786 -1.0363 -0.3968  0.4557
   47CHL1    C2 5931   1.075   2.637   9.921  0.1558 -0.6073 -0.7685
   47CHL1   H2A 5932   1.019   2.541   9.925 -0.8259 -0.0146  2.3782
   47CHL1   H2B 5933   1.007   2.725   9.930  0.9816 -0.0903  0.8228
   47CHL1   C20 5934   1.621   2.816   9.182  0.9752  0.4837 -0.3896
   47CHL1   H20 5935   1.511   2.826   9.173  0.5954 -0.8873  1.7983
   47CHL1   C21 5936   1.688   2.716   9.091 -0.8709  0.2066 -0.1372
   47CHL1  H21A 5937   1.797   2.721   9.072 -0.7684 -0.4429  0.2333
   47CHL1  H21B 5938   1.658   2.718   8.985  1.8214 -0.7094 -0.9980
   47CHL1  H21C 5939   1.663   2.611   9.118 -2.0811 -0.2007 -2.5926
   47CHL1   C22 5940   1.682   2.958   9.151  0.0512  0.1300 -0.1671
   47CHL1  H22A 5941   1.657   3.027   9.235 -2.1740 -0.5048 -0.2386
   47CHL1  H22B 5942   1.792   2.946   9.152  0.1289 -0.7353 -3.9674
   47CHL1   C23 5943   1.632   3.019   9.025 -0.0179 -0.3848  0.6136
   47CHL1  H23A 5944   1.646   2.961   8.932 -1.2344  0.4868 -0.1580
   47CHL1  H23B 5945   1.526   3.046   9.044  0.5792  0.8621  2.4779
   47CHL1   C24 5946   1.693   3.155   8.999 -1.3156  0.0861 -0.0219
   47CHL1  H24A 5947   1.637   3.212   8.922 -0.2524  0.6296 -0.4153
   47CHL1  H24B 5948   1.685   3.211   9.095  2.2647 -0.8371  0.9594
   47CHL1   C25 5949   1.845   3.150   8.964  0.3151  0.0771 -0.3967
   47CHL1   H25 5950   1.891   3.064   9.018 -1.0324 -1.0484 -0.9485
   47CHL1   C26 5951   1.857   3.122   8.814  0.2327  0.4610  0.3703
   47CHL1  H26A 5952   1.815   3.026   8.776 -0.9661  0.9322  0.4464
   47CHL1  H26B 5953   1.965   3.123   8.790  1.0846 -0.9092  3.5408
   47CHL1  H26C 5954   1.806   3.205   8.762  1.7476  2.6510  2.1634
   47CHL1   C27 5955   1.911   3.280   9.014 -0.3410 -0.7798  0.5602
   47CHL1  H27A 5956   2.021   3.285   9.002 -0.4365 -0.1962 -0.2261
   47CHL1  H27B 5957   1.878   3.364   8.948  0.4503 -1.8754 -1.3292
   47CHL1  H27C 5958   1.885   3.320   9.114  0.3824  0.7242  0.1754
   48CHL1    C3 5959   4.120   3.377   9.851 -0.0027 -0.3980 -0.2845
   48CHL1    H3 5960   4.215   3.319   9.855  0.1942 -0.0974 -0.5676
   48CHL1    O3 5961   4.085   3.416   9.984 -0.5828 -0.0930  0.2085
   48CHL1   H3' 5962   4.001   3.457   9.964  0.0792 -0.0716 -3.2437
   48CHL1    C4 5963   4.142   3.507   9.776 -0.3820  0.5346 -0.3726
   48CHL1   H4A 5964   4.059   3.578   9.796 -2.5785 -2.1860  0.7037
   48CHL1   H4B 5965   4.229   3.563   9.818 -0.5122  0.6781 -0.2951
   48CHL1    C5 5966   4.156   3.473   9.627  0.4799 -0.4513 -0.3163
   48CHL1    C6 5967   4.251   3.533   9.552 -0.8046  0.2283  0.3059
   48CHL1    H6 5968   4.317   3.605   9.601  0.6054 -1.9964  1.8571
   48CHL1    C7 5969   4.265   3.507   9.400 -0.0589  0.2008 -0.7567
   48CHL1   H7A 5970   4.281   3.603   9.346  1.2112  1.0790  1.0709
   48CHL1   H7B 5971   4.351   3.440   9.376 -0.6445 -0.3848 -1.2726
   48CHL1    C8 5972   4.142   3.437   9.335  0.3094  1.0187  0.3941
   48CHL1    H8 5973   4.066   3.518   9.323 -0.1211  1.0254  2.6642
   48CHL1   C14 5974   4.188   3.380   9.195  0.0521 -0.0241 -0.1410
   48CHL1   H14 5975   4.270   3.308   9.217 -0.1402 -0.4139 -0.6843
   48CHL1   C15 5976   4.258   3.474   9.095 -0.0386 -0.4048  0.8374
   48CHL1  H15A 5977   4.205   3.572   9.088  0.2247 -0.3543 -0.9898
   48CHL1  H15B 5978   4.365   3.494   9.118  0.5556 -0.7492 -1.4047
   48CHL1   C16 5979   4.249   3.407   8.963  0.1530 -0.1414 -0.1527
   48CHL1  H16A 5980   4.202   3.476   8.889 -1.2226 -1.6443 -0.7307
   48CHL1  H16B 5981   4.348   3.376   8.924  0.8702  1.1902  0.5174
   48CHL1   C17 5982   4.168   3.277   8.992  0.4441  0.2647 -0.0349
   48CHL1   H17 5983   4.234   3.196   9.029 -2.6095 -1.3383  2.3713
   48CHL1   C13 5984   4.082   3.302   9.122 -0.2302  0.6378 -0.1287
   48CHL1   C18 5985   3.964   3.399   9.085 -0.5508  0.0025 -0.4534
   48CHL1  H18A 5986   3.910   3.438   9.174 -0.9181  1.4523 -1.2764
   48CHL1  H18B 5987   4.005   3.490   9.035  0.0239  0.5833  1.0192
   48CHL1  H18C 5988   3.900   3.341   9.016  0.4122 -1.3457 -0.2626
   48CHL1   C12 5989   4.043   3.181   9.209  0.1218 -0.1321  1.2241
   48CHL1  H12A 5990   3.963   3.123   9.160  0.4062 -0.9858  1.7420
   48CHL1  H12B 5991   4.135   3.123   9.231  0.4772  0.1173  0.4449
   48CHL1   C11 5992   3.993   3.229   9.353  0.5700  0.3145  0.7871
   48CHL1  H11A 5993   3.893   3.273   9.332  0.0349 -1.5482 -0.8117
   48CHL1  H11B 5994   3.981   3.136   9.412 -0.4472  0.6299  1.1017
   48CHL1    C9 5995   4.095   3.323   9.423 -0.9024  0.0459 -0.7987
   48CHL1    H9 5996   4.187   3.262   9.434 -1.6407 -0.9264  0.2540
   48CHL1   C10 5997   4.053   3.373   9.564 -0.4170  0.4686  0.1362
   48CHL1   C19 5998   3.910   3.447   9.559 -0.3848 -0.1978  0.5407
   48CHL1  H19A 5999   3.842   3.377   9.504  0.8811 -1.5077  0.5805
   48CHL1  H19B 6000   3.870   3.474   9.659  0.8173  0.9472  0.7240
   48CHL1  H19C 6001   3.909   3.536   9.493  1.5115 -0.4659  0.1065
   48CHL1    C1 6002   4.046   3.247   9.651  0.4285  0.5782  0.1370
   48CHL1   H1A 6003   3.960   3.188   9.614 -1.1526  3.1912 -0.6168
   48CHL1   H1B 6004   4.134   3.181   9.635 -1.7652 -2.1107 -1.6635
   48CHL1    C2 6005   4.009   3.287   9.796  0.4130  0.7238 -0.2261
   48CHL1   H2A 6006   4.000   3.197   9.861  0.5612  0.6266 -0.3388
   48CHL1   H2B 6007   3.909   3.334   9.800 -0.3524 -0.7730 -0.8318
   48CHL1   C20 6008   4.088   3.227   8.868 -0.0749 -0.4155  0.3965
   48CHL1   H20 6009   4.003   3.294   8.844  1.5648  0.9028 -2.1421
   48CHL1   C21 6010   4.041   3.083   8.896 -0.5228 -0.8459 -0.6500
   48CHL1  H21A 6011   3.963   3.077   8.974 -1.6425  0.2195 -1.6391
   48CHL1  H21B 6012   4.123   3.016   8.931 -0.6530 -0.8382 -0.3285
   48CHL1  H21C 6013   3.989   3.035   8.809 -2.4729 -0.7020  0.3806
   48CHL1   C22 6014   4.166   3.231   8.736  0.4446 -0.0967  0.5728
   48CHL1  H22A 6015   4.106   3.194   8.650 -0.6076  2.1186  0.2689
   48CHL1  H22B 6016   4.180   3.337   8.707 -1.1145 -0.5111 -2.0596
   48CHL1   C23 6017   4.311   3.171   8.729 -0.2408 -0.1496  0.0025
   48CHL1  H23A 6018   4.372   3.184   8.821  0.1285  1.9940 -0.5025
   48CHL1  H23B 6019   4.298   3.060   8.725 -0.2366 -0.1194 -1.5643
   48CHL1   C24 6020   4.391   3.203   8.596 -0.0584  0.0806  0.1867
   48CHL1  H24A 6021   4.416   3.312   8.591 -0.7145  0.1721 -2.4234
   48CHL1  H24B 6022   4.485   3.145   8.587 -0.5548 -0.7435  0.2283
   48CHL1   C25 6023   4.314   3.167   8.463  0.2944 -0.1165  0.3961
   48CHL1   H25 6024   4.214   3.217   8.464  0.1788 -0.3026 -0.9311
   48CHL1   C26 6025   4.402   3.221   8.345  0.4571  0.4946  0.2277
   48CHL1  H26A 6026   4.491   3.155   8.340 -0.1410 -0.2953 -0.1444
   48CHL1  H26B 6027   4.340   3.223   8.253 -0.0902 -2.2026  0.4455
   48CHL1  H26C 6028   4.433   3.326   8.366  1.4018 -0.2653  2.9920
   48CHL1   C27 6029   4.271   3.015   8.444 -0.2873  0.1229 -0.2761
   48CHL1  H27A 6030   4.364   2.954   8.439 -1.7090 -2.1378 -0.2940
   48CHL1  H27B 6031   4.213   2.992   8.536 -1.0718 -0.6070 -0.9309
   48CHL1  H27C 6032   4.213   3.013   8.349 -0.8623  2.6132 -0.0478
   49CHL1    C3 6033   6.741   6.210  10.050  0.2481 -0.5373  0.0821
   49CHL1    H3 6034   6.833   6.163  10.011  0.2029  0.5002 -1.3160
   49CHL1    O3 6035   6.754   6.215  10.190  0.1830 -0.2175 -0.0673
   49CHL1   H3' 6036   6.667   6.227  10.230  0.3525  0.0927  0.2113
   49CHL1    C4 6037   6.730   6.355  10.006  0.2405 -0.2850 -0.1879
   49CHL1   H4A 6038   6.641   6.405  10.050 -0.0857 -0.5037 -0.5915
   49CHL1   H4B 6039   6.826   6.403  10.036  0.5461  0.0728 -1.6579
   49CHL1    C5 6040   6.718   6.364   9.851  0.5158 -0.5919  0.1557
   49CHL1    C6 6041   6.808   6.427   9.772  0.1730 -0.3218  0.0334
   49CHL1    H6 6042   6.898   6.465   9.823  1.9338 -3.4128 -0.5481
   49CHL1    C7 6043   6.811   6.432   9.624  0.9681 -0.1920  0.1681
   49CHL1   H7A 6044   6.808   6.541   9.599 -4.2459 -0.3738 -1.2501
   49CHL1   H7B 6045   6.906   6.387   9.588  2.9013  4.6014 -1.5449
   49CHL1    C8 6046   6.679   6.385   9.559  0.4286 -0.1075  0.1222
   49CHL1    H8 6047   6.605   6.467   9.572  1.0605  0.8230 -1.8627
   49CHL1   C14 6048   6.702   6.347   9.416 -0.4364 -0.0673 -0.2561
   49CHL1   H14 6049   6.775   6.263   9.411  0.3339  0.5476  0.4366
   49CHL1   C15 6050   6.781   6.449   9.328  0.1360 -0.1231  0.4389
   49CHL1  H15A 6051   6.752   6.553   9.355 -0.1435 -0.1792  0.3512
   49CHL1  H15B 6052   6.889   6.439   9.353  0.1764 -1.6461 -0.2579
   49CHL1   C16 6053   6.737   6.421   9.187  0.5569 -0.0149 -0.1266
   49CHL1  H16A 6054   6.681   6.510   9.152 -0.6674 -0.7565 -0.0964
   49CHL1  H16B 6055   6.832   6.399   9.133  2.4132  2.6820  1.7842
   49CHL1   C17 6056   6.635   6.300   9.195  0.5270  0.5904 -0.6863
   49CHL1   H17 6057   6.694   6.206   9.195 -0.7974 -0.2853 -2.0348
   49CHL1   C13 6058   6.574   6.300   9.335 -0.3176 -0.3049 -0.1569
   49CHL1   C18 6059   6.456   6.393   9.335  0.2898  0.1926  0.1336
   49CHL1  H18A 6060   6.374   6.357   9.269  1.1394  0.8921 -1.3424
   49CHL1  H18B 6061   6.408   6.409   9.434  0.1159 -0.2085  0.1182
   49CHL1  H18C 6062   6.490   6.491   9.295 -0.0713  0.0568 -0.5172
   49CHL1   C12 6063   6.535   6.169   9.406  0.3476 -0.2083  0.2521
   49CHL1  H12A 6064   6.445   6.140   9.348  0.2348 -0.2113  0.4266
   49CHL1  H12B 6065   6.616   6.093   9.407  1.6924  1.1864 -0.5247
   49CHL1   C11 6066   6.499   6.198   9.556 -0.1524  0.1928  0.3592
   49CHL1  H11A 6067   6.410   6.261   9.579  1.3499  1.6356  2.6695
   49CHL1  H11B 6068   6.489   6.097   9.599  1.8374  0.0724  0.6591
   49CHL1    C9 6069   6.615   6.265   9.632 -0.7884 -0.4733 -0.1313
   49CHL1    H9 6070   6.699   6.195   9.615 -0.7584  0.0172 -2.3530
   49CHL1   C10 6071   6.611   6.282   9.791  0.2074 -0.3184  0.7442
   49CHL1   C19 6072   6.476   6.349   9.824  0.2803  0.1789 -0.1632
   49CHL1  H19A 6073   6.460   6.381   9.929  1.9760 -0.0750  0.2026
   49CHL1  H19B 6074   6.485   6.447   9.772  0.7809  0.0400 -0.3445
   49CHL1  H19C 6075   6.390   6.293   9.781  0.6055 -0.9029  0.5387
   49CHL1    C1 6076   6.606   6.140   9.851  0.3077  0.1884 -0.1324
   49CHL1   H1A 6077   6.508   6.094   9.826 -0.5368  3.1083 -2.6870
   49CHL1   H1B 6078   6.692   6.082   9.812  2.3838  2.0622  1.4003
   49CHL1    C2 6079   6.624   6.128  10.014  0.4771  0.1959  0.8306
   49CHL1   H2A 6080   6.640   6.023  10.045 -1.3005 -0.0217  1.1459
   49CHL1   H2B 6081   6.524   6.152  10.057 -1.2463 -2.3112 -1.4490
   49CHL1   C20 6082   6.535   6.289   9.075 -0.7567  0.4311 -0.2121
   49CHL1   H20 6083   6.476   6.383   9.068 -1.7449  0.0356  2.0483
   49CHL1   C21 6084   6.458   6.150   9.077 -0.3099  0.4690  0.5381
   49CHL1  H21A 6085   6.525   6.067   9.108  0.3176  0.9845  0.5773
   49CHL1  H21B 6086   6.416   6.128   8.976  0.0602 -0.3860  0.5638
   49CHL1  H21C 6087   6.374   6.161   9.148  0.0973 -0.2011  1.1340
   49CHL1   C22 6088   6.615   6.292   8.950 -0.0392 -0.4691  0.3893
   49CHL1  H22A 6089   6.696   6.366   8.963 -0.9967  0.6169  0.3606
   49CHL1  H22B 6090   6.656   6.189   8.954 -0.7151 -0.7777 -0.2698
   49CHL1   C23 6091   6.546   6.306   8.810 -0.5628  0.1415 -0.0917
   49CHL1  H23A 6092   6.630   6.311   8.737  0.2852  1.2976  0.9198
   49CHL1  H23B 6093   6.484   6.214   8.797  1.0001 -1.0224  0.3698
   49CHL1   C24 6094   6.468   6.432   8.799  0.0519 -0.0334 -0.1548
   49CHL1  H24A 6095   6.391   6.442   8.878 -0.2861  0.2097 -0.5068
   49CHL1  H24B 6096   6.539   6.513   8.826  0.8564 -0.7461 -0.0791
   49CHL1   C25 6097   6.402   6.460   8.661  0.1463  0.8215 -0.0727
   49CHL1   H25 6098   6.486   6.465   8.587  0.9646 -2.8988  0.4377
   49CHL1   C26 6099   6.312   6.341   8.620 -0.1703 -0.3729 -0.2704
   49CHL1  H26A 6100   6.261   6.372   8.526 -0.1968  0.9422  0.1474
   49CHL1  H26B 6101   6.363   6.244   8.609 -1.3856 -0.9706 -0.8877
   49CHL1  H26C 6102   6.237   6.334   8.702  0.5714 -1.2290  0.3476
   49CHL1   C27 6103   6.347   6.597   8.664 -0.4946 -0.9405 -0.7095
   49CHL1  H27A 6104   6.280   6.609   8.751 -0.2069 -2.0017 -0.3270
   49CHL1  H27B 6105   6.415   6.685   8.664 -3.5328  1.5862  0.1809
   49CHL1  H27C 6106   6.279   6.608   8.577  0.5053  3.2043 -1.1923
   50CHL1    C3 6107   3.200   1.719  10.174  0.2263 -0.2222  0.4340
   50CHL1    H3 6108   3.119   1.787  10.138  2.3060  0.4788 -3.4784
   50CHL1    O3 6109   3.230   1.727  10.310 -0.3383  0.0674  0.2468
   50CHL1   H3' 6110   3.241   1.820  10.328  0.5993  0.1240 -0.5364
   50CHL1    C4 6111   3.168   1.574  10.145 -0.2679 -0.2526 -0.5539
   50CHL1   H4A 6112   3.246   1.514  10.196 -0.6392 -1.0869 -0.9516
   50CHL1   H4B 6113   3.076   1.543  10.199 -0.0665  0.7985  0.4212
   50CHL1    C5 6114   3.163   1.541   9.998  0.5211 -0.0168 -0.1647
   50CHL1    C6 6115   3.052   1.484   9.947 -1.2026  0.7566  0.5900
   50CHL1    H6 6116   2.971   1.458  10.017 -0.7307  0.9058  1.2062
   50CHL1    C7 6117   3.025   1.462   9.802 -0.3404  0.6434  0.5393
   50CHL1   H7A 6118   2.990   1.358   9.783 -0.2136  1.0634 -2.4346
   50CHL1   H7B 6119   2.944   1.526   9.763 -0.7536  1.0253  1.9554
   50CHL1    C8 6120   3.162   1.478   9.720  0.3239  0.0486 -0.5185
   50CHL1    H8 6121   3.225   1.387   9.728  1.1117  0.5117 -1.2517
   50CHL1   C14 6122   3.133   1.500   9.570  0.2282  1.2574 -1.1344
   50CHL1   H14 6123   3.095   1.603   9.559  1.2361  1.6948 -0.6740
   50CHL1   C15 6124   3.028   1.407   9.506 -0.6375 -0.0583 -0.2006
   50CHL1  H15A 6125   3.055   1.308   9.549 -3.3273 -0.7972 -0.0510
   50CHL1  H15B 6126   2.923   1.409   9.543 -0.2852 -0.6762  0.8917
   50CHL1   C16 6127   3.052   1.407   9.357 -0.3771 -0.2989 -0.1532
   50CHL1  H16A 6128   3.079   1.308   9.315  0.0327  0.2255 -1.1564
   50CHL1  H16B 6129   2.968   1.453   9.299 -1.4991 -2.6799 -0.5208
   50CHL1   C17 6130   3.172   1.507   9.337  0.3513 -0.1739 -0.9591
   50CHL1   H17 6131   3.133   1.611   9.332  1.5990  0.6850  3.1257
   50CHL1   C13 6132   3.250   1.498   9.473  0.0291 -0.7109  0.4153
   50CHL1   C18 6133   3.323   1.357   9.476 -0.4080 -0.5258 -0.0706
   50CHL1  H18A 6134   3.427   1.367   9.437 -0.7397  0.8716 -0.6387
   50CHL1  H18B 6135   3.333   1.315   9.578 -3.5282  1.0613  1.0080
   50CHL1  H18C 6136   3.277   1.287   9.402  1.4103 -2.6155  0.6424
   50CHL1   C12 6137   3.340   1.620   9.516  0.3239  0.5647 -0.0298
   50CHL1  H12A 6138   3.434   1.627   9.459  0.9560 -0.6771  0.8089
   50CHL1  H12B 6139   3.278   1.710   9.498 -0.7813 -0.2832 -0.6192
   50CHL1   C11 6140   3.380   1.604   9.665 -0.0613  1.1035 -0.3609
   50CHL1  H11A 6141   3.443   1.513   9.666 -1.8885 -0.2344 -0.3927
   50CHL1  H11B 6142   3.430   1.700   9.685 -1.3698  1.8615 -0.5934
   50CHL1    C9 6143   3.255   1.589   9.764  0.2091 -0.3393 -0.1550
   50CHL1    H9 6144   3.201   1.684   9.750  0.1478 -0.1587  1.2056
   50CHL1   C10 6145   3.288   1.594   9.919 -0.3106  0.3929  0.0144
   50CHL1   C19 6146   3.415   1.502   9.938 -0.0265  0.4510 -0.2859
   50CHL1  H19A 6147   3.434   1.467  10.042 -2.0123  0.2061  0.0326
   50CHL1  H19B 6148   3.392   1.408   9.882  1.6573 -0.0788 -0.1598
   50CHL1  H19C 6149   3.513   1.541   9.902  0.5927 -1.5421 -0.9036
   50CHL1    C1 6150   3.333   1.734   9.955  0.3161 -0.7727 -0.7856
   50CHL1   H1A 6151   3.434   1.746   9.910  0.1936  1.0146 -0.6396
   50CHL1   H1B 6152   3.265   1.804   9.902 -0.8031 -0.9638  0.3607
   50CHL1    C2 6153   3.330   1.765  10.105  0.3194 -0.2773 -0.2876
   50CHL1   H2A 6154   3.356   1.871  10.123 -0.1115 -0.5530  2.3055
   50CHL1   H2B 6155   3.419   1.714  10.147  0.1068 -0.1191  0.3663
   50CHL1   C20 6156   3.244   1.476   9.206 -0.5582  0.3617 -0.3223
   50CHL1   H20 6157   3.292   1.376   9.209  0.0823  0.6642 -0.4346
   50CHL1   C21 6158   3.369   1.570   9.197 -0.2287 -0.1212 -0.4489
   50CHL1  H21A 6159   3.343   1.675   9.223 -2.1092 -0.7060  0.2134
   50CHL1  H21B 6160   3.392   1.570   9.089 -0.9075 -2.5596 -0.6627
   50CHL1  H21C 6161   3.450   1.533   9.264 -0.5799 -0.3037 -0.1147
   50CHL1   C22 6162   3.152   1.489   9.080 -0.2291 -0.8647  0.7021
   50CHL1  H22A 6163   3.060   1.427   9.087 -1.3389  0.6507  0.0811
   50CHL1  H22B 6164   3.107   1.587   9.053  0.1775 -0.5522  1.1402
   50CHL1   C23 6165   3.210   1.437   8.948 -0.0519 -0.4450  0.5708
   50CHL1  H23A 6166   3.307   1.480   8.915  0.6005 -1.0650  1.6201
   50CHL1  H23B 6167   3.225   1.327   8.956 -2.1631 -0.8399 -0.1302
   50CHL1   C24 6168   3.105   1.457   8.842 -0.8617 -0.2010  0.3052
   50CHL1  H24A 6169   3.019   1.389   8.861 -0.9564 -0.1927 -0.1003
   50CHL1  H24B 6170   3.062   1.560   8.848  1.0544  0.7835 -1.5643
   50CHL1   C25 6171   3.150   1.421   8.699 -0.3622  0.2744 -0.2568
   50CHL1   H25 6172   3.185   1.316   8.697  0.0459  0.3731 -3.5174
   50CHL1   C26 6173   3.035   1.447   8.591  0.2645  0.7260 -0.2445
   50CHL1  H26A 6174   3.063   1.397   8.495 -2.0410  0.7413 -0.9785
   50CHL1  H26B 6175   2.939   1.400   8.620  1.1115 -2.0503 -1.5465
   50CHL1  H26C 6176   3.020   1.556   8.581  1.4465  0.8838 -0.4386
   50CHL1   C27 6177   3.278   1.489   8.651 -0.3780  0.6166  0.7858
   50CHL1  H27A 6178   3.307   1.454   8.549  1.9021  0.2643  1.4891
   50CHL1  H27B 6179   3.261   1.597   8.637  1.9156  1.1549  1.6625
   50CHL1  H27C 6180   3.368   1.469   8.714  0.8632 -0.8455 -1.2945
   51CHL1    C3 6181   0.589   5.143  10.100 -0.3139 -0.2892  0.2342
   51CHL1    H3 6182   0.479   5.147  10.085 -0.6195 -2.1761  1.6045
   51CHL1    O3 6183   0.628   5.154  10.240 -0.0052 -0.0089  0.2329
   51CHL1   H3' 6184   0.723   5.159  10.232  0.1180 -2.5112 -0.9114
   51CHL1    C4 6185   0.633   5.003  10.047 -0.9454  0.9868 -0.1007
   51CHL1   H4A 6186   0.744   5.008  10.049 -0.7726 -1.6258  0.9651
   51CHL1   H4B 6187   0.596   4.920  10.110 -0.6127  0.1177 -1.0408
   51CHL1    C5 6188   0.578   4.986   9.903  0.5185 -0.3543 -0.0829
   51CHL1    C6 6189   0.485   4.895   9.875  0.2225  0.4779  0.1154
   51CHL1    H6 6190   0.465   4.820   9.953 -0.2888  0.5517  0.0555
   51CHL1    C7 6191   0.431   4.867   9.736  0.3320 -0.0641  0.1650
   51CHL1   H7A 6192   0.431   4.758   9.715 -0.1982 -0.4051  1.7671
   51CHL1   H7B 6193   0.326   4.903   9.729 -0.0793 -1.4406 -1.2962
   51CHL1    C8 6194   0.503   4.953   9.628 -0.3102  0.2828 -0.0211
   51CHL1    H8 6195   0.599   4.897   9.624  0.1631  0.8063  2.3875
   51CHL1   C14 6196   0.423   4.966   9.492 -0.7253  0.5956  0.3808
   51CHL1   H14 6197   0.340   5.034   9.519 -0.1702  1.8669 -0.9692
   51CHL1   C15 6198   0.355   4.835   9.435  0.3032 -0.2430  0.0051
   51CHL1  H15A 6199   0.425   4.751   9.455 -0.7184 -0.7165  1.7804
   51CHL1  H15B 6200   0.261   4.806   9.485  1.4491 -1.6578  1.4491
   51CHL1   C16 6201   0.337   4.868   9.283  0.5805  1.5755  0.3612
   51CHL1  H16A 6202   0.401   4.794   9.230  0.5154 -1.0503  3.6556
   51CHL1  H16B 6203   0.231   4.866   9.251  0.7210  0.1332 -0.0635
   51CHL1   C17 6204   0.392   5.015   9.276  0.5609 -0.0962  0.1166
   51CHL1   H17 6205   0.299   5.064   9.311  0.1682 -0.7043 -0.0564
   51CHL1   C13 6206   0.499   5.036   9.380  1.0813 -0.1668 -0.8201
   51CHL1   C18 6207   0.629   4.963   9.337  0.8704 -0.2565  0.5239
   51CHL1  H18A 6208   0.692   4.961   9.429  1.7920  1.7212 -0.0107
   51CHL1  H18B 6209   0.604   4.859   9.309  1.5880 -0.2079 -0.3170
   51CHL1  H18C 6210   0.677   5.010   9.249  1.7048  2.0515  2.1011
   51CHL1   C12 6211   0.525   5.181   9.423 -0.8445  0.6729  0.6112
   51CHL1  H12A 6212   0.597   5.233   9.356  1.9367 -1.9708  1.3069
   51CHL1  H12B 6213   0.428   5.235   9.419 -0.9198  0.5191  0.2572
   51CHL1   C11 6214   0.600   5.183   9.557 -0.4037  0.1482  0.2603
   51CHL1  H11A 6215   0.708   5.168   9.535 -0.2379  1.0434  0.4354
   51CHL1  H11B 6216   0.597   5.290   9.586  0.5059  0.7633 -1.7243
   51CHL1    C9 6217   0.551   5.096   9.677  0.0269  0.2410  0.4227
   51CHL1    H9 6218   0.457   5.149   9.704  1.4440  1.5720  3.2317
   51CHL1   C10 6219   0.631   5.095   9.801  0.0576  0.1239  0.5084
   51CHL1   C19 6220   0.782   5.067   9.772 -0.5434 -0.1714  0.3204
   51CHL1  H19A 6221   0.836   5.149   9.719 -0.1476 -1.6605 -1.7000
   51CHL1  H19B 6222   0.825   5.056   9.874 -2.2770 -1.0767  0.9787
   51CHL1  H19C 6223   0.797   4.975   9.712 -0.5687 -0.3464  0.5824
   51CHL1    C1 6224   0.617   5.237   9.867 -0.5749  0.1579 -0.3413
   51CHL1   H1A 6225   0.679   5.293   9.794  0.3725 -3.1251 -2.2981
   51CHL1   H1B 6226   0.515   5.281   9.861 -0.1060  1.2547 -0.4509
   51CHL1    C2 6227   0.662   5.248  10.014 -0.4167  0.0940  0.0323
   51CHL1   H2A 6228   0.628   5.344  10.058 -0.3774 -0.0193  0.3122
   51CHL1   H2B 6229   0.772   5.256  10.024 -0.3187  0.7586 -1.3254
   51CHL1   C20 6230   0.418   5.073   9.133  0.4975 -0.1338 -0.2063
   51CHL1   H20 6231   0.522   5.114   9.133 -0.1356  1.5999  1.4879
   51CHL1   C21 6232   0.321   5.192   9.119  0.1642 -0.2802 -0.1250
   51CHL1  H21A 6233   0.346   5.253   9.029 -0.1359  1.3061  0.8237
   51CHL1  H21B 6234   0.322   5.247   9.216  0.2758 -0.3179 -0.1047
   51CHL1  H21C 6235   0.216   5.157   9.114 -0.3793  0.8486  2.1662
   51CHL1   C22 6236   0.403   4.970   9.025 -0.6267 -0.2859  0.0117
   51CHL1  H22A 6237   0.451   4.873   9.052  1.1828  0.4189 -0.5194
   51CHL1  H22B 6238   0.295   4.952   9.007 -0.4105  0.1730 -1.9615
   51CHL1   C23 6239   0.467   5.010   8.885 -0.2645  0.3892 -0.8160
   51CHL1  H23A 6240   0.405   5.094   8.849  1.1179  2.7710  1.9069
   51CHL1  H23B 6241   0.571   5.048   8.892  0.2016 -0.7586 -1.1832
   51CHL1   C24 6242   0.463   4.888   8.794 -1.2708  0.6584 -0.5170
   51CHL1  H24A 6243   0.509   4.797   8.839 -3.0238  1.2968  2.8942
   51CHL1  H24B 6244   0.360   4.850   8.775 -1.5478  2.1977 -2.3811
   51CHL1   C25 6245   0.545   4.910   8.660  0.2408 -0.0803  0.5615
   51CHL1   H25 6246   0.640   4.961   8.685 -0.1760 -0.5146  3.3788
   51CHL1   C26 6247   0.575   4.780   8.579 -0.5660  0.3936  0.0384
   51CHL1  H26A 6248   0.654   4.807   8.506 -3.4160  0.8550 -3.0975
   51CHL1  H26B 6249   0.596   4.688   8.637  1.3046 -0.2954 -1.6307
   51CHL1  H26C 6250   0.481   4.757   8.524  1.4804  0.6159 -3.9060
   51CHL1   C27 6251   0.451   4.995   8.573 -0.3733 -0.4458  0.2455
   51CHL1  H27A 6252   0.443   5.099   8.611 -0.1875 -0.7151  1.0279
   51CHL1  H27B 6253   0.491   5.006   8.470 -0.9128 -1.6271 -0.1117
   51CHL1  H27C 6254   0.350   4.949   8.570 -1.5992  2.0658  0.3205
   52CHL1    C3 6255   0.577   2.826   9.726 -1.3581 -0.1743  0.4042
   52CHL1    H3 6256   0.522   2.738   9.685 -0.6873 -0.4701  0.1291
   52CHL1    O3 6257   0.523   2.841   9.859  0.8327  0.3807  0.1144
   52CHL1   H3' 6258   0.451   2.904   9.848 -0.9869 -1.5794  0.0919
   52CHL1    C4 6259   0.732   2.782   9.726 -1.1220  0.1131 -0.2089
   52CHL1   H4A 6260   0.787   2.862   9.780 -0.5213  0.1400 -0.8475
   52CHL1   H4B 6261   0.731   2.686   9.783 -2.9515 -0.6742 -1.4822
   52CHL1    C5 6262   0.782   2.769   9.583 -0.2975 -0.0242  0.1101
   52CHL1    C6 6263   0.841   2.652   9.546 -0.1443  0.8076  0.6394
   52CHL1    H6 6264   0.866   2.576   9.621  1.1394  1.7146  1.1612
   52CHL1    C7 6265   0.912   2.631   9.418 -0.6099  0.2438  0.5875
   52CHL1   H7A 6266   1.016   2.594   9.435 -1.1926 -1.6232  0.3682
   52CHL1   H7B 6267   0.858   2.549   9.366  1.8751 -1.2539  0.1537
   52CHL1    C8 6268   0.925   2.759   9.324 -0.3142 -0.1398 -0.4198
   52CHL1    H8 6269   1.014   2.817   9.356 -0.4576 -1.1026  1.8755
   52CHL1   C14 6270   0.948   2.722   9.176  0.4083  0.0602 -0.4679
   52CHL1   H14 6271   0.850   2.681   9.142  1.8251 -2.1232 -2.2360
   52CHL1   C15 6272   1.047   2.614   9.136 -0.0693 -0.3259  0.0404
   52CHL1  H15A 6273   1.138   2.635   9.196  0.2640  1.9682 -1.1609
   52CHL1  H15B 6274   1.022   2.507   9.154  0.1066  0.0372  2.9718
   52CHL1   C16 6275   1.067   2.643   8.990  1.0570  0.3769  0.1250
   52CHL1  H16A 6276   1.172   2.668   8.964  0.4931  0.1434 -2.7240
   52CHL1  H16B 6277   1.043   2.557   8.924 -0.9585 -0.7598  2.1799
   52CHL1   C17 6278   0.975   2.767   8.947 -0.1815 -0.4153 -0.1766
   52CHL1   H17 6279   0.876   2.723   8.921 -1.3737  0.8930  1.8463
   52CHL1   C13 6280   0.957   2.841   9.079 -0.1562 -0.6490  0.3583
   52CHL1   C18 6281   1.093   2.921   9.106 -0.3682 -0.2537 -0.4535
   52CHL1  H18A 6282   1.180   2.856   9.130 -0.1322  0.5041  0.8866
   52CHL1  H18B 6283   1.122   2.983   9.019 -0.1178 -0.3934 -0.4721
   52CHL1  H18C 6284   1.097   2.985   9.197  0.4274 -1.4644  0.3986
   52CHL1   C12 6285   0.834   2.931   9.099  0.1014 -0.3247 -0.4625
   52CHL1  H12A 6286   0.852   3.010   9.024 -0.4428 -2.2624 -2.7345
   52CHL1  H12B 6287   0.741   2.874   9.076 -0.7348  0.6605  0.3193
   52CHL1   C11 6288   0.814   2.973   9.243  0.0520 -0.6077 -0.4386
   52CHL1  H11A 6289   0.909   3.026   9.267 -0.1888  0.1058 -1.0113
   52CHL1  H11B 6290   0.735   3.048   9.263 -0.3015 -0.8512 -0.9172
   52CHL1    C9 6291   0.801   2.851   9.336  0.4068 -0.0971  0.1268
   52CHL1    H9 6292   0.718   2.792   9.292  1.6583 -0.1173 -2.3589
   52CHL1   C10 6293   0.768   2.886   9.483 -0.3963  0.5552 -0.4350
   52CHL1   C19 6294   0.854   3.006   9.537  0.7369 -0.3614 -0.0253
   52CHL1  H19A 6295   0.846   3.022   9.647 -0.7390  0.8805 -0.2767
   52CHL1  H19B 6296   0.958   2.991   9.499  0.8628  0.2283  0.0817
   52CHL1  H19C 6297   0.815   3.097   9.486 -4.1430 -0.4559  2.9567
   52CHL1    C1 6298   0.624   2.930   9.494  0.6739 -0.0819 -0.0676
   52CHL1   H1A 6299   0.608   3.022   9.434  1.8174  0.0514 -0.1828
   52CHL1   H1B 6300   0.569   2.853   9.437  1.7868 -0.9561  0.0012
   52CHL1    C2 6301   0.562   2.948   9.638  0.7126 -0.3765  0.5024
   52CHL1   H2A 6302   0.458   2.986   9.640  1.2476  1.1464  1.1515
   52CHL1   H2B 6303   0.618   3.035   9.679 -0.9384  1.5046 -1.0455
   52CHL1   C20 6304   1.031   2.827   8.816 -0.0621 -0.1065  0.2694
   52CHL1   H20 6305   1.133   2.865   8.838 -0.0536  0.1203 -0.1516
   52CHL1   C21 6306   0.947   2.949   8.768  0.5249 -0.4333  0.0615
   52CHL1  H21A 6307   0.838   2.928   8.765 -0.3616  3.3371  0.4614
   52CHL1  H21B 6308   0.986   2.999   8.676 -1.7426  1.3243 -0.0466
   52CHL1  H21C 6309   0.948   3.031   8.843  1.6629 -0.0476 -0.3611
   52CHL1   C22 6310   1.049   2.723   8.706  0.3349  0.1322 -0.3583
   52CHL1  H22A 6311   1.084   2.773   8.613 -0.4001 -1.9839 -1.8643
   52CHL1  H22B 6312   1.121   2.646   8.740 -0.2357 -0.3827 -0.2999
   52CHL1   C23 6313   0.921   2.647   8.670  0.2310  0.0321  0.3269
   52CHL1  H23A 6314   0.893   2.588   8.760 -0.1641 -1.3765 -0.6801
   52CHL1  H23B 6315   0.839   2.714   8.638  0.1466 -1.0712 -1.9811
   52CHL1   C24 6316   0.958   2.537   8.574 -1.0656  0.5631  0.3569
   52CHL1  H24A 6317   1.038   2.557   8.498 -1.9925  1.1607 -0.4859
   52CHL1  H24B 6318   1.002   2.461   8.641  1.2682  2.8950  1.6651
   52CHL1   C25 6319   0.838   2.473   8.504  0.1842  0.1256 -0.0412
   52CHL1   H25 6320   0.776   2.557   8.467  0.2540  0.4853  0.6394
   52CHL1   C26 6321   0.883   2.391   8.376  0.1695 -0.1919 -0.7429
   52CHL1  H26A 6322   0.967   2.324   8.405 -0.2864 -0.7986 -0.8030
   52CHL1  H26B 6323   0.800   2.330   8.335  0.2512 -1.0719  0.3498
   52CHL1  H26C 6324   0.924   2.450   8.291 -0.1171  0.9761 -0.0940
   52CHL1   C27 6325   0.754   2.389   8.603  0.4260  0.4465 -0.1833
   52CHL1  H27A 6326   0.681   2.329   8.545  0.2084  0.9493 -0.4421
   52CHL1  H27B 6327   0.829   2.326   8.656  1.3214 -0.0422 -1.9360
   52CHL1  H27C 6328   0.705   2.458   8.675 -1.0803 -0.7303 -0.0280
   53CHL1    C3 6329   2.805   2.035  10.237 -0.3141  0.2823  0.2273
   53CHL1    H3 6330   2.807   2.144  10.214  0.0409 -0.1664 -2.0564
   53CHL1    O3 6331   2.804   1.989  10.376 -0.6914 -0.9601  0.1789
   53CHL1   H3' 6332   2.758   1.905  10.366  2.6810 -2.8899 -1.2414
   53CHL1    C4 6333   2.694   1.969  10.156 -0.2364  0.0611 -0.2970
   53CHL1   H4A 6334   2.700   1.860  10.177  2.6517 -0.4229 -2.9267
   53CHL1   H4B 6335   2.599   2.007  10.199 -0.2121  0.9097 -0.9715
   53CHL1    C5 6336   2.709   1.988  10.004  0.5139 -0.7123  0.7018
   53CHL1    C6 6337   2.616   2.042   9.920 -0.7515 -0.0327 -0.5622
   53CHL1    H6 6338   2.517   2.076   9.954 -1.1539 -1.3911 -0.3248
   53CHL1    C7 6339   2.633   2.052   9.772  0.1560  0.0081 -0.0242
   53CHL1   H7A 6340   2.539   2.021   9.722 -1.6287  1.9198  1.9570
   53CHL1   H7B 6341   2.654   2.160   9.754 -0.5890  0.3121  0.8399
   53CHL1    C8 6342   2.757   1.979   9.713 -0.0569 -0.6547  0.8741
   53CHL1    H8 6343   2.726   1.873   9.717 -0.1188 -0.6656  0.2127
   53CHL1   C14 6344   2.798   2.011   9.568  0.0259  0.2808  0.1677
   53CHL1   H14 6345   2.842   2.113   9.568  0.6260  0.0271  0.7071
   53CHL1   C15 6346   2.688   2.021   9.463  0.5205  0.4137  0.2982
   53CHL1  H15A 6347   2.621   1.933   9.449 -2.9222  2.2196  3.4699
   53CHL1  H15B 6348   2.622   2.105   9.493 -0.7198 -0.7812  1.0134
   53CHL1   C16 6349   2.767   2.043   9.331  0.0199  0.4129 -0.0090
   53CHL1  H16A 6350   2.723   1.974   9.256  1.0667  1.2103 -1.4264
   53CHL1  H16B 6351   2.763   2.145   9.286  0.2057 -0.3275 -1.8011
   53CHL1   C17 6352   2.920   2.006   9.366  0.0788 -0.4597  0.8121
   53CHL1   H17 6353   2.968   2.104   9.388  0.5555 -1.2244  3.5889
   53CHL1   C13 6354   2.916   1.928   9.501 -0.2786 -0.2461 -0.3948
   53CHL1   C18 6355   2.881   1.783   9.478  0.0431  0.2941  0.4484
   53CHL1  H18A 6356   2.790   1.775   9.415  0.5200 -0.6929 -0.1315
   53CHL1  H18B 6357   2.967   1.726   9.437 -0.4665 -0.0986 -0.0894
   53CHL1  H18C 6358   2.857   1.722   9.567 -0.7408 -0.1445 -0.0577
   53CHL1   C12 6359   3.037   1.948   9.595  0.4896  0.3183 -0.1228
   53CHL1  H12A 6360   3.114   1.872   9.567 -0.2741 -0.6384  0.3104
   53CHL1  H12B 6361   3.079   2.051   9.585 -0.1900  0.6108 -0.0001
   53CHL1   C11 6362   3.006   1.902   9.742  0.3007 -0.1351  0.4417
   53CHL1  H11A 6363   2.988   1.793   9.741  0.5699 -0.2461  2.8660
   53CHL1  H11B 6364   3.094   1.919   9.808  0.3983 -0.1346  0.3131
   53CHL1    C9 6365   2.881   1.980   9.802  0.2666 -0.3432  0.6544
   53CHL1    H9 6366   2.912   2.086   9.807 -0.6463 -0.0281 -0.0344
   53CHL1   C10 6367   2.848   1.943   9.947  0.0705  0.0544  0.4565
   53CHL1   C19 6368   2.851   1.785   9.953 -0.5934 -0.2819 -0.0787
   53CHL1  H19A 6369   2.782   1.732   9.884 -0.4691  1.5563 -1.7035
   53CHL1  H19B 6370   2.960   1.765   9.939 -0.5528  0.5321 -1.1007
   53CHL1  H19C 6371   2.827   1.759  10.058 -0.3247  0.2579  0.1218
   53CHL1    C1 6372   2.950   2.014  10.039 -0.0710  0.8049  0.6793
   53CHL1   H1A 6373   3.051   1.992   9.999 -0.8225 -0.6568 -0.5264
   53CHL1   H1B 6374   2.947   2.124  10.030  2.1640  0.7658 -1.5028
   53CHL1    C2 6375   2.936   1.981  10.183  0.6765 -0.9881 -0.0604
   53CHL1   H2A 6376   3.019   2.032  10.235  0.4628  0.6305 -1.2412
   53CHL1   H2B 6377   2.943   1.870  10.191 -2.1175 -1.1821  0.6406
   53CHL1   C20 6378   3.004   1.939   9.255  0.2401  0.3133 -0.1965
   53CHL1   H20 6379   2.959   1.841   9.231 -1.0314  0.4273  1.5173
   53CHL1   C21 6380   3.154   1.925   9.288 -0.4987  0.0982  1.0812
   53CHL1  H21A 6381   3.204   2.020   9.314  0.9460 -0.8873  2.0578
   53CHL1  H21B 6382   3.194   1.874   9.197  0.4393  0.7436  1.1261
   53CHL1  H21C 6383   3.162   1.853   9.372 -0.9650 -1.4067 -0.0993
   53CHL1   C22 6384   2.991   2.016   9.126 -0.2564 -0.0474  0.1658
   53CHL1  H22A 6385   2.885   2.037   9.097 -0.0237  1.2139  0.1817
   53CHL1  H22B 6386   3.041   2.114   9.138 -0.9437  0.3437 -0.1001
   53CHL1   C23 6387   3.061   1.964   9.002 -0.8128  0.1445  0.2331
   53CHL1  H23A 6388   3.171   1.971   9.020 -0.7148  0.9380 -0.5481
   53CHL1  H23B 6389   3.041   1.861   8.968 -0.3148  0.6610 -1.8111
   53CHL1   C24 6390   3.030   2.062   8.887  0.4281  0.5492 -0.3162
   53CHL1  H24A 6391   2.921   2.081   8.886  0.6684  2.2426  1.0387
   53CHL1  H24B 6392   3.084   2.157   8.908  1.8552 -0.0686 -1.0071
   53CHL1   C25 6393   3.074   2.008   8.750 -0.0802 -0.4738  0.0828
   53CHL1   H25 6394   3.178   1.969   8.756  0.8157  0.9465 -3.4884
   53CHL1   C26 6395   2.972   1.917   8.689 -0.2338  0.3085  0.1006
   53CHL1  H26A 6396   2.996   1.906   8.581 -1.2984  0.8857 -0.2095
   53CHL1  H26B 6397   2.970   1.814   8.731 -1.1749  0.8068  1.3310
   53CHL1  H26C 6398   2.869   1.958   8.698  0.3867  1.6795  1.3945
   53CHL1   C27 6399   3.093   2.130   8.657  0.9847 -0.8768 -0.4378
   53CHL1  H27A 6400   3.165   2.204   8.698 -0.4602  0.1744  0.3090
   53CHL1  H27B 6401   3.128   2.096   8.557  1.9646  1.8462 -1.1213
   53CHL1  H27C 6402   2.998   2.179   8.624  1.3687  0.6185  0.5626
   54CHL1    C3 6403   3.029   3.551   9.973  0.6350  0.1158 -1.3192
   54CHL1    H3 6404   2.942   3.618   9.954 -1.0942 -1.5886  0.1099
   54CHL1    O3 6405   3.057   3.555  10.112  0.8658 -0.3702  0.1308
   54CHL1   H3' 6406   3.037   3.470  10.153 -0.5984 -0.6592 -1.0987
   54CHL1    C4 6407   2.982   3.407   9.941 -0.7820 -0.8618 -0.1629
   54CHL1   H4A 6408   3.065   3.343   9.977 -1.6831 -1.7569  0.3910
   54CHL1   H4B 6409   2.894   3.379  10.004 -2.0584 -2.0483 -2.3788
   54CHL1    C5 6410   2.946   3.391   9.795 -0.5795  0.4664  0.8897
   54CHL1    C6 6411   2.817   3.363   9.749 -0.0480  0.0872  0.4505
   54CHL1    H6 6412   2.746   3.339   9.830 -0.3343 -0.9807 -0.0921
   54CHL1    C7 6413   2.784   3.370   9.602  0.1384  0.0770 -0.1654
   54CHL1   H7A 6414   2.721   3.288   9.562  1.5446 -1.1428  0.0248
   54CHL1   H7B 6415   2.725   3.463   9.587  1.2675  0.7613 -0.6148
   54CHL1    C8 6416   2.905   3.360   9.512 -0.0523 -0.5990  1.0301
   54CHL1    H8 6417   2.942   3.256   9.517  0.9153 -0.2117  2.7614
   54CHL1   C14 6418   2.857   3.402   9.367 -0.0220 -0.0233 -0.8169
   54CHL1   H14 6419   2.827   3.509   9.380  3.2330  0.9484 -0.4629
   54CHL1   C15 6420   2.733   3.339   9.301 -0.6261 -0.1814  0.4159
   54CHL1  H15A 6421   2.739   3.231   9.324  0.8912  0.0679  1.3531
   54CHL1  H15B 6422   2.646   3.383   9.355  2.0650 -0.1753  5.3298
   54CHL1   C16 6423   2.749   3.371   9.150  0.5819 -0.5182 -0.2324
   54CHL1  H16A 6424   2.769   3.279   9.092 -1.1782 -0.9042 -0.2963
   54CHL1  H16B 6425   2.662   3.423   9.104  0.8234 -0.4067 -0.5656
   54CHL1   C17 6426   2.874   3.460   9.146 -0.5303 -0.0133 -0.1541
   54CHL1   H17 6427   2.831   3.557   9.181 -0.8876 -0.0552 -0.4670
   54CHL1   C13 6428   2.965   3.412   9.264  0.1670 -0.2045 -0.2757
   54CHL1   C18 6429   3.028   3.267   9.240 -0.2101 -0.4400  0.2973
   54CHL1  H18A 6430   2.948   3.197   9.206 -0.5748  0.2530 -0.2885
   54CHL1  H18B 6431   3.106   3.267   9.161  1.1968  3.9357  1.4377
   54CHL1  H18C 6432   3.098   3.238   9.321  3.7562  0.6610 -2.4411
   54CHL1   C12 6433   3.073   3.512   9.312 -0.2497 -0.0255  0.2432
   54CHL1  H12A 6434   3.155   3.515   9.236 -1.2278  0.9530 -0.8233
   54CHL1  H12B 6435   3.039   3.617   9.323  1.1777  0.3136  1.5996
   54CHL1   C11 6436   3.130   3.473   9.445  0.3815 -0.5417  0.6184
   54CHL1  H11A 6437   3.207   3.393   9.435  0.9874  0.1954 -1.1716
   54CHL1  H11B 6438   3.192   3.560   9.475  0.5307  0.6826 -2.7864
   54CHL1    C9 6439   3.021   3.459   9.552  0.0613  0.9197 -0.2062
   54CHL1    H9 6440   2.978   3.561   9.560 -0.8436  0.4358  1.7213
   54CHL1   C10 6441   3.065   3.439   9.703  0.9597  0.6932 -0.7798
   54CHL1   C19 6442   3.190   3.345   9.718 -0.0124  0.4213 -0.1929
   54CHL1  H19A 6443   3.218   3.334   9.825  0.0254  0.1556 -0.2298
   54CHL1  H19B 6444   3.173   3.246   9.670 -0.0466  1.4681 -2.5114
   54CHL1  H19C 6445   3.270   3.396   9.660  0.1317  1.2627  0.7220
   54CHL1    C1 6446   3.111   3.584   9.745 -0.2838 -0.1083 -0.3030
   54CHL1   H1A 6447   3.194   3.616   9.679  0.9633 -0.2411  1.1466
   54CHL1   H1B 6448   3.028   3.657   9.733 -0.6781 -0.5243 -0.1568
   54CHL1    C2 6449   3.150   3.596   9.893  0.1684 -0.2436 -0.0590
   54CHL1   H2A 6450   3.161   3.704   9.919  1.8448 -0.0284 -1.5012
   54CHL1   H2B 6451   3.238   3.534   9.918  0.6407 -0.0200 -1.1097
   54CHL1   C20 6452   2.931   3.482   9.002 -0.7418 -0.0100 -0.3017
   54CHL1   H20 6453   2.989   3.391   8.973 -1.0584 -1.5313  3.1963
   54CHL1   C21 6454   3.027   3.608   8.996  0.0601 -0.0887 -0.4627
   54CHL1  H21A 6455   3.070   3.619   8.894  1.7213 -1.7455  0.0078
   54CHL1  H21B 6456   3.113   3.606   9.066 -1.9891  0.0984  2.2042
   54CHL1  H21C 6457   2.969   3.698   9.025  1.1029  0.7729 -0.9565
   54CHL1   C22 6458   2.811   3.501   8.895  0.0647 -0.3085  0.2761
   54CHL1  H22A 6459   2.736   3.419   8.895 -1.7012  1.1900 -2.0892
   54CHL1  H22B 6460   2.758   3.595   8.921 -0.7880 -0.6132 -0.2926
   54CHL1   C23 6461   2.858   3.526   8.747  0.0390 -0.1560  0.5104
   54CHL1  H23A 6462   2.911   3.623   8.746  1.7710 -1.0572  0.1332
   54CHL1  H23B 6463   2.945   3.462   8.720 -0.5004 -0.5743 -0.2864
   54CHL1   C24 6464   2.746   3.537   8.639 -0.9554  0.5580 -0.3484
   54CHL1  H24A 6465   2.675   3.453   8.655  1.7075 -2.2452 -2.1187
   54CHL1  H24B 6466   2.684   3.628   8.657 -0.8471  0.7582 -0.9704
   54CHL1   C25 6467   2.798   3.557   8.487  0.0624  0.0217 -0.5845
   54CHL1   H25 6468   2.848   3.465   8.450 -0.7566 -0.0936 -1.4752
   54CHL1   C26 6469   2.682   3.585   8.392 -0.1587 -0.6365 -0.4098
   54CHL1  H26A 6470   2.618   3.494   8.390 -1.1174 -0.0826  1.8725
   54CHL1  H26B 6471   2.617   3.667   8.430  1.5177  0.5600 -0.0502
   54CHL1  H26C 6472   2.712   3.607   8.287  1.2347 -1.4403 -0.1969
   54CHL1   C27 6473   2.893   3.671   8.481 -0.3093  0.4563 -0.4469
   54CHL1  H27A 6474   2.973   3.638   8.550  0.2373 -1.0202 -1.7436
   54CHL1  H27B 6475   2.947   3.688   8.386 -0.0125 -0.3207 -0.4242
   54CHL1  H27C 6476   2.859   3.771   8.517 -2.1304  0.6170 -2.4224
   55CHL1    C3 6477   1.865   1.465   9.964 -0.2821 -0.5935 -0.0451
   55CHL1    H3 6478   1.765   1.506   9.940 -0.6647 -0.7265  1.2191
   55CHL1    O3 6479   1.907   1.503  10.100  1.1995 -0.1448  0.1468
   55CHL1   H3' 6480   2.002   1.508  10.088  1.2293  1.5794  0.7880
   55CHL1    C4 6481   1.853   1.311   9.956 -0.1312 -0.4269 -0.1498
   55CHL1   H4A 6482   1.946   1.277  10.005  1.0793  0.6358 -1.6104
   55CHL1   H4B 6483   1.792   1.263  10.035 -0.4771  1.2850  0.6706
   55CHL1    C5 6484   1.827   1.254   9.812  0.0456  0.2795 -0.3108
   55CHL1    C6 6485   1.715   1.176   9.793  1.0833  0.3947  0.0980
   55CHL1    H6 6486   1.643   1.146   9.871 -0.0390  1.9039 -0.3166
   55CHL1    C7 6487   1.684   1.109   9.665  0.0444  0.2363  0.2216
   55CHL1   H7A 6488   1.672   1.000   9.685  1.2091 -0.0271 -0.3956
   55CHL1   H7B 6489   1.600   1.161   9.615  1.2822  0.9112 -1.2562
   55CHL1    C8 6490   1.806   1.113   9.568  0.1329  0.1243  0.1063
   55CHL1    H8 6491   1.889   1.062   9.623  1.5028  1.1600 -0.9207
   55CHL1   C14 6492   1.781   1.051   9.435  0.4429 -0.9786  0.5641
   55CHL1   H14 6493   1.696   1.112   9.399 -0.8563 -0.4103  4.2140
   55CHL1   C15 6494   1.724   0.905   9.428  0.7050 -0.2900 -0.0424
   55CHL1  H15A 6495   1.795   0.832   9.473  0.4547 -0.7084 -0.3273
   55CHL1  H15B 6496   1.623   0.897   9.474  0.9059  2.6394  1.1473
   55CHL1   C16 6497   1.716   0.898   9.277 -0.1168 -0.0359 -0.3894
   55CHL1  H16A 6498   1.760   0.799   9.253 -0.2770 -0.6983  1.8302
   55CHL1  H16B 6499   1.611   0.897   9.241 -0.4126 -0.2861  0.4504
   55CHL1   C17 6500   1.802   1.013   9.209 -0.5171 -0.4716 -0.6623
   55CHL1   H17 6501   1.728   1.094   9.192 -0.1778  0.3044  1.3048
   55CHL1   C13 6502   1.882   1.071   9.325  0.2380  0.3450 -0.4351
   55CHL1   C18 6503   1.998   0.979   9.347 -0.5920 -0.5258 -0.3308
   55CHL1  H18A 6504   2.050   1.002   9.443 -4.6062  2.5944  1.4298
   55CHL1  H18B 6505   1.969   0.872   9.349 -0.2453 -0.7062 -2.6898
   55CHL1  H18C 6506   2.068   0.984   9.261  0.9329  0.7835  0.9268
   55CHL1   C12 6507   1.932   1.216   9.317 -0.1179 -0.1881 -0.0596
   55CHL1  H12A 6508   2.024   1.216   9.256 -0.0423  0.8192  0.0284
   55CHL1  H12B 6509   1.852   1.288   9.286  0.4392  0.5678  0.2303
   55CHL1   C11 6510   1.979   1.270   9.453 -0.3530  0.6047  0.3623
   55CHL1  H11A 6511   2.070   1.212   9.478  0.4586  3.0345  3.6550
   55CHL1  H11B 6512   2.009   1.377   9.453 -0.5305  0.6954  2.6681
   55CHL1    C9 6513   1.869   1.261   9.564  0.5205 -0.8982 -0.1802
   55CHL1    H9 6514   1.784   1.326   9.536  0.3450 -1.3384 -0.6550
   55CHL1   C10 6515   1.924   1.301   9.705  0.6157  0.5908  0.5674
   55CHL1   C19 6516   2.068   1.250   9.738  0.2054 -0.2736  0.5129
   55CHL1  H19A 6517   2.080   1.143   9.709  0.0706 -0.3597  0.7714
   55CHL1  H19B 6518   2.145   1.311   9.687  0.2101  0.7075  1.6605
   55CHL1  H19C 6519   2.088   1.261   9.847  3.3460 -0.8994  0.0921
   55CHL1    C1 6520   1.926   1.456   9.716  0.1960 -0.4263  0.6055
   55CHL1   H1A 6521   2.000   1.487   9.639 -1.2137  0.3209 -0.4950
   55CHL1   H1B 6522   1.830   1.508   9.696  0.3347 -0.1052  0.7668
   55CHL1    C2 6523   1.968   1.518   9.855 -0.2408  0.1618  0.4890
   55CHL1   H2A 6524   1.969   1.629   9.853 -0.3833  0.1972 -2.6191
   55CHL1   H2B 6525   2.073   1.489   9.875  0.3571  0.7828 -1.5136
   55CHL1   C20 6526   1.868   0.975   9.073 -0.5366  0.2322 -0.7458
   55CHL1   H20 6527   1.955   0.907   9.090  0.6028  1.9313  0.6078
   55CHL1   C21 6528   1.916   1.107   9.017 -0.1747 -0.1381  0.0557
   55CHL1  H21A 6529   1.958   1.098   8.914 -1.0831  4.3053 -0.9264
   55CHL1  H21B 6530   1.994   1.159   9.076  2.3693 -1.0364 -2.2611
   55CHL1  H21C 6531   1.825   1.169   9.001 -2.1514 -2.8864 -0.1343
   55CHL1   C22 6532   1.753   0.918   8.979 -0.0842  0.2161  0.4952
   55CHL1  H22A 6533   1.717   0.819   9.012 -2.3139  0.6080 -0.5052
   55CHL1  H22B 6534   1.658   0.977   8.980 -0.1933  0.0377  1.7193
   55CHL1   C23 6535   1.785   0.903   8.827 -0.2940 -0.6425  0.3548
   55CHL1  H23A 6536   1.780   1.006   8.785 -1.7992 -1.1661 -0.8385
   55CHL1  H23B 6537   1.889   0.864   8.832  0.4702  1.1889 -0.3696
   55CHL1   C24 6538   1.688   0.810   8.747 -0.0248 -0.7503 -0.5045
   55CHL1  H24A 6539   1.685   0.717   8.807 -1.0261 -0.0625  0.5553
   55CHL1  H24B 6540   1.586   0.855   8.750  1.3425  2.5895  1.1449
   55CHL1   C25 6541   1.731   0.782   8.598  0.6697  0.3050 -0.3329
   55CHL1   H25 6542   1.735   0.881   8.548 -3.6614  1.4131  1.1016
   55CHL1   C26 6543   1.865   0.712   8.597 -0.0021  0.5002  0.5089
   55CHL1  H26A 6544   1.869   0.635   8.677 -0.5397 -1.9433 -1.6796
   55CHL1  H26B 6545   1.891   0.663   8.501  2.0888 -0.0467  1.2973
   55CHL1  H26C 6546   1.954   0.773   8.621 -0.1735 -0.0887  2.9278
   55CHL1   C27 6547   1.619   0.706   8.522 -0.4746 -0.2777 -0.2262
   55CHL1  H27A 6548   1.660   0.680   8.422 -0.5472  2.9287 -1.1903
   55CHL1  H27B 6549   1.587   0.613   8.575  2.4813 -1.3229 -0.0636
   55CHL1  H27C 6550   1.525   0.760   8.500 -1.3216 -0.9398  1.5599
   56CHL1    C3 6551   2.596   5.789  10.128  0.2771 -0.3992 -0.4157
   56CHL1    H3 6552   2.707   5.784  10.136  0.1675 -2.8668  0.4403
   56CHL1    O3 6553   2.548   5.829  10.257  0.2245 -0.8351  0.4009
   56CHL1   H3' 6554   2.453   5.820  10.254  0.2575 -0.9386 -1.1897
   56CHL1    C4 6555   2.532   5.881  10.018 -0.2111  0.6244 -0.6960
   56CHL1   H4A 6556   2.421   5.876  10.023 -0.2838  1.6689 -1.1520
   56CHL1   H4B 6557   2.568   5.985  10.029 -0.4057  0.6083  0.1289
   56CHL1    C5 6558   2.573   5.826   9.885  0.1679 -0.0426  0.0270
   56CHL1    C6 6559   2.650   5.896   9.796 -0.8045 -0.5917 -0.2940
   56CHL1    H6 6560   2.680   5.995   9.832 -0.3054 -0.5009 -0.9447
   56CHL1    C7 6561   2.682   5.842   9.658  0.4430  0.0558  0.3331
   56CHL1   H7A 6562   2.710   5.917   9.581 -1.9635  2.0047  1.2413
   56CHL1   H7B 6563   2.779   5.787   9.664  0.7013  0.6080  1.8846
   56CHL1    C8 6564   2.579   5.736   9.611 -0.2085  0.0246  0.1311
   56CHL1    H8 6565   2.486   5.793   9.587 -0.5539 -0.5917 -0.0108
   56CHL1   C14 6566   2.626   5.667   9.477  0.0917  0.1947 -0.3308
   56CHL1   H14 6567   2.732   5.636   9.489 -0.4224 -1.0664  1.4125
   56CHL1   C15 6568   2.628   5.758   9.352  0.3097 -0.4401  0.4697
   56CHL1  H15A 6569   2.547   5.834   9.351 -1.4333 -2.1764 -1.9107
   56CHL1  H15B 6570   2.719   5.822   9.346 -1.0608  1.4843 -3.3339
   56CHL1   C16 6571   2.611   5.662   9.226 -0.3920  0.3291 -0.5986
   56CHL1  H16A 6572   2.516   5.687   9.175 -0.1275  0.7795 -0.8684
   56CHL1  H16B 6573   2.704   5.664   9.166 -1.2290  3.0710 -1.9213
   56CHL1   C17 6574   2.595   5.518   9.293 -0.6872 -0.2784  0.0888
   56CHL1   H17 6575   2.698   5.475   9.297 -0.3836  0.3671 -0.5334
   56CHL1   C13 6576   2.543   5.545   9.433 -0.2634  0.0897 -0.2999
   56CHL1   C18 6577   2.392   5.575   9.424 -0.3264 -0.3131 -0.1287
   56CHL1  H18A 6578   2.376   5.649   9.342  0.8373  1.2801  1.0044
   56CHL1  H18B 6579   2.331   5.485   9.406 -5.3448  2.3772  1.4402
   56CHL1  H18C 6580   2.344   5.623   9.512 -1.4502 -3.1366  0.8843
   56CHL1   C12 6581   2.572   5.439   9.541  0.0359 -0.0263 -0.4977
   56CHL1  H12A 6582   2.536   5.337   9.517  1.2638 -0.3227 -1.1542
   56CHL1  H12B 6583   2.681   5.424   9.553 -0.2622 -2.4794 -0.3985
   56CHL1   C11 6584   2.522   5.483   9.680  0.1185  0.4819  0.0198
   56CHL1  H11A 6585   2.413   5.466   9.670 -0.1633  1.0879  1.7828
   56CHL1  H11B 6586   2.554   5.401   9.748 -2.5493 -3.3999 -2.9494
   56CHL1    C9 6587   2.570   5.627   9.722  0.6785  0.6479  0.1567
   56CHL1    H9 6588   2.676   5.609   9.750 -0.2837 -1.5698  2.8028
   56CHL1   C10 6589   2.513   5.678   9.852 -0.2663 -0.3561  0.5233
   56CHL1   C19 6590   2.358   5.677   9.833  0.3893 -0.2586 -0.0243
   56CHL1  H19A 6591   2.301   5.734   9.910  0.2721  0.8521 -0.9130
   56CHL1  H19B 6592   2.324   5.719   9.736 -1.5850  0.3921  0.9102
   56CHL1  H19C 6593   2.326   5.571   9.831 -2.1789  0.4739 -1.6657
   56CHL1    C1 6594   2.571   5.592   9.966  0.0252  0.2777 -0.4784
   56CHL1   H1A 6595   2.515   5.497   9.962  2.6240 -1.4049  0.6776
   56CHL1   H1B 6596   2.674   5.551   9.957  1.0510  2.6814 -0.6991
   56CHL1    C2 6597   2.554   5.646  10.107  0.8134  0.9754 -0.1122
   56CHL1   H2A 6598   2.582   5.572  10.186 -0.3283  0.0749 -0.5212
   56CHL1   H2B 6599   2.444   5.637  10.123  0.8952  0.1070  0.0068
   56CHL1   C20 6600   2.519   5.435   9.198  0.2309 -0.6043  0.6012
   56CHL1   H20 6601   2.421   5.484   9.180 -0.3746 -1.1920  2.0782
   56CHL1   C21 6602   2.496   5.291   9.262  0.5798 -0.2194  0.5382
   56CHL1  H21A 6603   2.464   5.236   9.171 -1.2771  3.5615 -1.3134
   56CHL1  H21B 6604   2.413   5.280   9.335  1.1802  1.0413  1.4498
   56CHL1  H21C 6605   2.589   5.246   9.302  0.6118  0.4346  1.2151
   56CHL1   C22 6606   2.596   5.427   9.058 -0.5434 -0.3455 -0.4389
   56CHL1  H22A 6607   2.679   5.500   9.047 -1.2374  0.5237 -0.0251
   56CHL1  H22B 6608   2.638   5.324   9.052 -1.8938 -0.8799 -1.2173
   56CHL1   C23 6609   2.505   5.451   8.933 -0.6989  0.3316 -0.3125
   56CHL1  H23A 6610   2.428   5.371   8.943 -0.6107  0.4569  1.7441
   56CHL1  H23B 6611   2.450   5.546   8.950  0.7249  1.0006  0.7621
   56CHL1   C24 6612   2.591   5.456   8.801 -0.0710  0.1205 -0.0491
   56CHL1  H24A 6613   2.647   5.552   8.807 -2.2631  1.4154  0.6860
   56CHL1  H24B 6614   2.656   5.366   8.809  0.0540  0.2469  0.4243
   56CHL1   C25 6615   2.523   5.449   8.665 -0.6740  0.0623  0.6295
   56CHL1   H25 6616   2.489   5.555   8.658 -1.0146  0.3853  4.8065
   56CHL1   C26 6617   2.612   5.410   8.540  0.3886 -0.2219  0.4601
   56CHL1  H26A 6618   2.549   5.386   8.453  2.0052  1.7997 -1.3827
   56CHL1  H26B 6619   2.694   5.476   8.503 -0.4568  0.8107  0.4009
   56CHL1  H26C 6620   2.659   5.315   8.574  0.9783  0.4571  1.6082
   56CHL1   C27 6621   2.395   5.368   8.669 -0.4492  0.3431  0.7261
   56CHL1  H27A 6622   2.317   5.430   8.719 -1.8571  0.6196 -1.6742
   56CHL1  H27B 6623   2.347   5.363   8.569  0.0545  2.3450  0.3572
   56CHL1  H27C 6624   2.418   5.268   8.714 -0.6559 -0.0073  0.0621
   57CHL1    C3 6625   2.558   2.554  10.134  0.8320 -0.9868 -0.0462
   57CHL1    H3 6626   2.581   2.661  10.116 -3.3511  0.0467 -0.3722
   57CHL1    O3 6627   2.598   2.534  10.270  0.3127 -0.1667  0.3228
   57CHL1   H3' 6628   2.602   2.438  10.277  2.9218 -0.0096  3.3480
   57CHL1    C4 6629   2.407   2.554  10.120 -0.1596  0.8238  0.1400
   57CHL1   H4A 6630   2.377   2.452  10.153  0.8727  0.9476  1.5445
   57CHL1   H4B 6631   2.363   2.628  10.190 -1.7446  1.0113 -0.9768
   57CHL1    C5 6632   2.366   2.585   9.977  0.3076 -0.1824 -0.1418
   57CHL1    C6 6633   2.279   2.687   9.946 -1.1590  0.2532  0.4223
   57CHL1    H6 6634   2.246   2.757  10.024  0.1378 -1.2239  2.3931
   57CHL1    C7 6635   2.218   2.696   9.807  0.4314  0.3359 -0.0404
   57CHL1   H7A 6636   2.108   2.688   9.806  0.4569 -0.0335 -0.3069
   57CHL1   H7B 6637   2.245   2.793   9.760 -0.3775  0.4261 -0.3319
   57CHL1    C8 6638   2.264   2.588   9.704 -0.0003 -0.3260 -0.2151
   57CHL1    H8 6639   2.203   2.496   9.717  1.0915 -0.9413  0.5843
   57CHL1   C14 6640   2.230   2.616   9.551 -0.7580  0.5290 -0.4789
   57CHL1   H14 6641   2.300   2.699   9.526  2.3582 -0.3248  4.1393
   57CHL1   C15 6642   2.107   2.679   9.512  0.1744 -0.3490  0.1661
   57CHL1  H15A 6643   2.014   2.623   9.537  0.8095 -1.4912  0.0149
   57CHL1  H15B 6644   2.094   2.784   9.546  1.2643 -0.2645  0.3331
   57CHL1   C16 6645   2.097   2.664   9.357  0.8238 -0.2238  0.2929
   57CHL1  H16A 6646   2.011   2.598   9.333 -0.8937  0.9809  2.7685
   57CHL1  H16B 6647   2.092   2.766   9.314 -1.0859  0.3017  1.6286
   57CHL1   C17 6648   2.228   2.589   9.325 -0.4234 -0.0782 -0.1280
   57CHL1   H17 6649   2.312   2.661   9.317 -0.8244  0.4176  0.0739
   57CHL1   C13 6650   2.270   2.511   9.447 -0.2424  0.3238 -1.0150
   57CHL1   C18 6651   2.178   2.392   9.466 -0.7267  0.4633 -0.2661
   57CHL1  H18A 6652   2.189   2.344   9.565 -1.0064 -1.2075 -1.0185
   57CHL1  H18B 6653   2.075   2.430   9.448 -0.3980  0.7302 -1.6895
   57CHL1  H18C 6654   2.211   2.312   9.397  1.6240  0.3948  0.8170
   57CHL1   C12 6655   2.419   2.482   9.474  0.2145 -0.2885  0.3693
   57CHL1  H12A 6656   2.462   2.403   9.409  0.4727  0.8884 -0.9557
   57CHL1  H12B 6657   2.486   2.562   9.434 -0.0920  0.3880  1.1726
   57CHL1   C11 6658   2.458   2.458   9.625 -0.0455 -0.3910  0.7737
   57CHL1  H11A 6659   2.413   2.358   9.640 -4.7033  1.3709  0.3667
   57CHL1  H11B 6660   2.569   2.461   9.624 -0.0043 -1.5333  1.1222
   57CHL1    C9 6661   2.407   2.556   9.729  0.1048  0.0752  0.4221
   57CHL1    H9 6662   2.467   2.649   9.726 -2.1743  1.6466  1.2600
   57CHL1   C10 6663   2.429   2.495   9.870 -0.5842 -0.4822  0.9785
   57CHL1   C19 6664   2.362   2.358   9.892 -0.5740 -0.2743  0.2472
   57CHL1  H19A 6665   2.373   2.325   9.998 -0.2471 -1.6080 -0.1832
   57CHL1  H19B 6666   2.258   2.347   9.855 -1.1451  0.9097  1.4101
   57CHL1  H19C 6667   2.415   2.285   9.827 -0.6683 -1.8288  1.8367
   57CHL1    C1 6668   2.586   2.474   9.898  0.2242 -0.1057 -0.1896
   57CHL1   H1A 6669   2.607   2.377   9.849  0.6180  0.3496 -0.9454
   57CHL1   H1B 6670   2.642   2.553   9.844 -2.4198  1.9858 -0.1091
   57CHL1    C2 6671   2.634   2.460  10.045 -0.2614 -0.9262 -0.2371
   57CHL1   H2A 6672   2.744   2.469  10.057  0.0100 -1.2007 -2.1522
   57CHL1   H2B 6673   2.611   2.358  10.083 -1.6587 -0.9524 -1.0747
   57CHL1   C20 6674   2.217   2.520   9.189 -0.6640 -0.1295  0.2832
   57CHL1   H20 6675   2.153   2.430   9.202  0.8525 -1.2510  0.2081
   57CHL1   C21 6676   2.349   2.460   9.145  0.1338 -0.6815 -0.1993
   57CHL1  H21A 6677   2.393   2.392   9.220 -0.1722 -0.5558  0.0962
   57CHL1  H21B 6678   2.421   2.543   9.123 -0.5521 -0.3142 -1.1336
   57CHL1  H21C 6679   2.334   2.395   9.056  0.4606 -0.9006 -0.0933
   57CHL1   C22 6680   2.149   2.601   9.072 -0.3407 -0.5076 -0.1928
   57CHL1  H22A 6681   2.148   2.541   8.978  0.1722  0.9510 -1.1660
   57CHL1  H22B 6682   2.043   2.623   9.095 -0.4076 -0.1704 -0.8059
   57CHL1   C23 6683   2.218   2.734   9.047  0.1633 -0.9389 -0.4701
   57CHL1  H23A 6684   2.225   2.785   9.145  1.9892  0.3588 -1.2381
   57CHL1  H23B 6685   2.320   2.714   9.009  0.4644 -0.5795  0.1375
   57CHL1   C24 6686   2.125   2.822   8.950  0.0277 -0.4167  0.1118
   57CHL1  H24A 6687   2.018   2.803   8.972 -0.1932  1.1232  0.4822
   57CHL1  H24B 6688   2.120   2.929   8.980 -2.1643  0.4532 -2.8810
   57CHL1   C25 6689   2.148   2.790   8.802 -0.2644 -0.3116 -0.5049
   57CHL1   H25 6690   2.211   2.699   8.795  0.6193  0.1586  0.9158
   57CHL1   C26 6691   2.019   2.764   8.720 -0.3637  1.0156  0.3128
   57CHL1  H26A 6692   2.044   2.742   8.614  0.7117  3.8715 -0.1135
   57CHL1  H26B 6693   1.957   2.681   8.759 -0.4494  0.9046 -0.0535
   57CHL1  H26C 6694   1.958   2.856   8.716 -1.1278  0.5056 -0.0735
   57CHL1   C27 6695   2.235   2.902   8.732 -0.1788  0.3233 -0.1486
   57CHL1  H27A 6696   2.177   2.996   8.716  0.5967  0.5140 -2.1019
   57CHL1  H27B 6697   2.318   2.935   8.798  0.4626 -0.1345 -0.7133
   57CHL1  H27C 6698   2.272   2.865   8.635 -0.4586  1.2885 -0.6408
   58CHL1    C3 6699   6.395   1.637   9.916  0.6371 -0.2213 -0.1940
   58CHL1    H3 6700   6.472   1.707   9.954  0.2094  0.0182  0.2488
   58CHL1    O3 6701   6.320   1.599  10.030  0.0618 -0.1013 -0.4490
   58CHL1   H3' 6702   6.317   1.670  10.094  1.9993  0.1711 -0.6212
   58CHL1    C4 6703   6.301   1.710   9.817  0.2501  0.9114  0.2827
   58CHL1   H4A 6704   6.215   1.643   9.799  0.4806  0.5975  0.3435
   58CHL1   H4B 6705   6.260   1.800   9.870 -2.3193 -0.5407  0.9406
   58CHL1    C5 6706   6.372   1.743   9.685 -0.1756 -0.5866 -0.0119
   58CHL1    C6 6707   6.367   1.867   9.637 -0.7080 -0.6755  0.1240
   58CHL1    H6 6708   6.315   1.949   9.689 -0.4438 -0.8067  0.5993
   58CHL1    C7 6709   6.428   1.906   9.502 -0.2428 -0.3750  0.3735
   58CHL1   H7A 6710   6.359   1.966   9.440  1.5806  0.4741 -0.9352
   58CHL1   H7B 6711   6.509   1.981   9.519 -1.8190  1.3291  0.6578
   58CHL1    C8 6712   6.478   1.791   9.412  0.0213  0.5275 -0.5591
   58CHL1    H8 6713   6.395   1.752   9.350  0.7401 -0.6387 -0.8240
   58CHL1   C14 6714   6.575   1.829   9.318  0.9256 -0.6541  0.3901
   58CHL1   H14 6715   6.674   1.852   9.361  1.9605 -1.3111 -1.5353
   58CHL1   C15 6716   6.529   1.948   9.223 -0.4207 -0.5195 -0.1405
   58CHL1  H15A 6717   6.418   1.940   9.214 -0.4636  0.1359 -0.2652
   58CHL1  H15B 6718   6.552   2.038   9.284  0.6288 -1.9097  1.6169
   58CHL1   C16 6719   6.610   1.939   9.096 -0.1241  0.4722 -0.1707
   58CHL1  H16A 6720   6.543   1.928   9.008  0.1973 -2.0086 -0.1970
   58CHL1  H16B 6721   6.690   2.015   9.089  2.5529 -2.2312 -0.9521
   58CHL1   C17 6722   6.697   1.809   9.112  0.1000 -0.1200  0.0922
   58CHL1   H17 6723   6.790   1.848   9.159 -0.0953  2.6007 -1.5819
   58CHL1   C13 6724   6.612   1.719   9.212 -0.8540  0.3362  0.5468
   58CHL1   C18 6725   6.487   1.657   9.139  0.0473  0.0080  0.6865
   58CHL1  H18A 6726   6.528   1.571   9.082  1.1420 -0.0226  1.4990
   58CHL1  H18B 6727   6.411   1.616   9.209  1.3467  0.3360  2.3366
   58CHL1  H18C 6728   6.443   1.729   9.066 -1.3409  0.1386  1.6254
   58CHL1   C12 6729   6.684   1.614   9.286 -0.5023  1.2250 -0.3879
   58CHL1  H12A 6730   6.700   1.527   9.220  0.4764 -0.5299  2.0032
   58CHL1  H12B 6731   6.787   1.647   9.313  0.7447 -2.1207 -0.5413
   58CHL1   C11 6732   6.600   1.561   9.404 -0.6396 -0.4112  0.0850
   58CHL1  H11A 6733   6.510   1.508   9.364 -1.0155  0.5533 -0.3656
   58CHL1  H11B 6734   6.658   1.490   9.467 -0.2396 -0.4342 -0.3125
   58CHL1    C9 6735   6.541   1.672   9.495  0.1587 -0.7393  0.3662
   58CHL1    H9 6736   6.632   1.715   9.540 -0.2397  0.4131  0.1231
   58CHL1   C10 6737   6.455   1.624   9.615  0.8205 -0.5720 -0.3679
   58CHL1   C19 6738   6.353   1.524   9.573 -0.0171  0.7325  0.0034
   58CHL1  H19A 6739   6.288   1.490   9.656 -0.9906  0.8220 -0.7110
   58CHL1  H19B 6740   6.285   1.552   9.489 -2.5121  1.2499  2.0708
   58CHL1  H19C 6741   6.405   1.432   9.538 -1.3247  0.4114 -1.1740
   58CHL1    C1 6742   6.540   1.553   9.716 -0.2593  0.1993 -0.0773
   58CHL1   H1A 6743   6.591   1.464   9.674  0.4426  2.0885 -3.5836
   58CHL1   H1B 6744   6.619   1.622   9.753 -1.5373  0.7053  1.8837
   58CHL1    C2 6745   6.463   1.513   9.849 -0.4034 -0.3185  0.1268
   58CHL1   H2A 6746   6.541   1.487   9.923  1.2181  2.3728 -0.5104
   58CHL1   H2B 6747   6.389   1.430   9.838 -1.7865  0.7365  1.0999
   58CHL1   C20 6748   6.735   1.758   8.974  0.7778 -0.2505  0.3008
   58CHL1   H20 6749   6.649   1.714   8.920  0.1589 -0.1527  1.1811
   58CHL1   C21 6750   6.832   1.639   8.995  0.5493  0.3391 -0.1350
   58CHL1  H21A 6751   6.851   1.591   8.896  2.5441 -0.1542  0.4524
   58CHL1  H21B 6752   6.777   1.557   9.045  0.9623 -1.4764 -2.4679
   58CHL1  H21C 6753   6.931   1.665   9.038  0.4322  0.7255 -0.0967
   58CHL1   C22 6754   6.804   1.872   8.881  0.2943  0.1080  0.0425
   58CHL1  H22A 6755   6.712   1.934   8.868 -1.5842 -2.2520  1.2922
   58CHL1  H22B 6756   6.884   1.919   8.942  1.6616 -0.2764 -1.3884
   58CHL1   C23 6757   6.850   1.821   8.749 -0.0901  0.4883  0.1055
   58CHL1  H23A 6758   6.941   1.759   8.757 -0.1723  0.3777  0.1873
   58CHL1  H23B 6759   6.771   1.753   8.709  1.1188 -0.2370 -1.1322
   58CHL1   C24 6760   6.863   1.939   8.651  0.0322  0.3661 -0.5022
   58CHL1  H24A 6761   6.764   1.989   8.648 -0.5259 -0.6149  0.6522
   58CHL1  H24B 6762   6.932   2.009   8.703  0.5760 -1.9412  2.1628
   58CHL1   C25 6763   6.925   1.913   8.512 -0.1695  0.1346 -0.1576
   58CHL1   H25 6764   7.019   1.855   8.524 -0.2934  0.2668  1.8599
   58CHL1   C26 6765   6.819   1.829   8.441  0.4347  0.1611  0.0868
   58CHL1  H26A 6766   6.795   1.736   8.497 -1.9818  0.2314 -0.7080
   58CHL1  H26B 6767   6.732   1.897   8.446  1.6848  1.8903 -0.7287
   58CHL1  H26C 6768   6.852   1.806   8.337  1.0753  2.5876 -0.2936
   58CHL1   C27 6769   6.958   2.051   8.447  0.1711 -0.8071  0.3963
   58CHL1  H27A 6770   7.021   2.045   8.355  0.8533 -0.7750  0.8554
   58CHL1  H27B 6771   6.862   2.101   8.424  0.4124 -0.7263 -0.4747
   58CHL1  H27C 6772   7.023   2.114   8.512 -0.9855 -0.4968  1.2770
   59CHL1    C3 6773   5.528   0.314  10.422  0.1497 -0.2862 -0.0501
   59CHL1    H3 6774   5.637   0.314  10.399  0.6160  0.9940  1.9246
   59CHL1    O3 6775   5.506   0.297  10.567 -0.2980 -0.0715  0.2961
   59CHL1   H3' 6776   5.478   0.205  10.576 -1.5561  0.3663  1.1321
   59CHL1    C4 6777   5.456   0.439  10.356 -0.2095 -0.0611 -0.0502
   59CHL1   H4A 6778   5.359   0.459  10.404 -0.7514 -3.0497  0.3200
   59CHL1   H4B 6779   5.524   0.517  10.396 -1.2359  0.4322  0.7508
   59CHL1    C5 6780   5.466   0.452  10.206 -0.1089  0.5360 -0.7425
   59CHL1    C6 6781   5.489   0.568  10.140 -0.6651  0.5254 -0.4301
   59CHL1    H6 6782   5.522   0.657  10.197  1.3716  0.1434 -0.9160
   59CHL1    C7 6783   5.490   0.583   9.995 -0.2565  0.3566  0.0362
   59CHL1   H7A 6784   5.430   0.672   9.966 -2.1649 -0.6378  0.7631
   59CHL1   H7B 6785   5.592   0.620   9.969 -0.4947  1.3299  0.4705
   59CHL1    C8 6786   5.417   0.466   9.929 -0.0106  0.0458 -0.1781
   59CHL1    H8 6787   5.309   0.473   9.953 -0.3882 -1.1621 -1.3773
   59CHL1   C14 6788   5.443   0.463   9.775 -0.1359  0.3679 -1.0719
   59CHL1   H14 6789   5.552   0.449   9.764  0.2033  0.9084  1.0800
   59CHL1   C15 6790   5.405   0.596   9.705 -0.0905 -0.9052 -0.4522
   59CHL1  H15A 6791   5.300   0.616   9.736 -0.9031 -1.2725 -2.7668
   59CHL1  H15B 6792   5.479   0.679   9.715 -0.4194 -0.6279 -0.2940
   59CHL1   C16 6793   5.415   0.546   9.557 -0.1437  0.3305  0.6127
   59CHL1  H16A 6794   5.326   0.586   9.504  0.3023  1.2880  0.5748
   59CHL1  H16B 6795   5.508   0.585   9.511 -1.8161  2.6998 -0.9870
   59CHL1   C17 6796   5.416   0.392   9.552  0.4027  0.6056  0.1229
   59CHL1   H17 6797   5.523   0.368   9.532  0.3771  1.9477 -1.9787
   59CHL1   C13 6798   5.381   0.357   9.696  0.3236  0.1711  0.0740
   59CHL1   C18 6799   5.224   0.363   9.709 -1.1491 -0.1763 -0.0064
   59CHL1  H18A 6800   5.177   0.451   9.660  0.4059 -0.0212 -1.3332
   59CHL1  H18B 6801   5.179   0.280   9.649 -0.2326 -0.3728 -0.4438
   59CHL1  H18C 6802   5.188   0.358   9.814 -0.0995  1.4918  0.4606
   59CHL1   C12 6803   5.433   0.214   9.754 -0.3437 -0.5072 -0.1906
   59CHL1  H12A 6804   5.375   0.134   9.704 -0.8101  0.0677 -0.5943
   59CHL1  H12B 6805   5.541   0.208   9.730 -0.2605  0.7806 -0.2455
   59CHL1   C11 6806   5.413   0.213   9.903 -0.2410  0.1922 -0.5115
   59CHL1  H11A 6807   5.303   0.196   9.912 -0.3718 -0.4160 -2.6454
   59CHL1  H11B 6808   5.471   0.123   9.931  0.1068  1.0227  1.5822
   59CHL1    C9 6809   5.463   0.333   9.990  0.1160  0.7193  0.1634
   59CHL1    H9 6810   5.574   0.330   9.984  0.3895 -2.1387  3.4584
   59CHL1   C10 6811   5.433   0.315  10.140  0.6623 -0.4229 -0.0629
   59CHL1   C19 6812   5.272   0.295  10.158 -0.4111  0.2866  0.1030
   59CHL1  H19A 6813   5.248   0.188  10.142  1.5366  0.0510 -1.6162
   59CHL1  H19B 6814   5.246   0.331  10.260  0.6804 -2.1214  1.3045
   59CHL1  H19C 6815   5.217   0.367  10.093 -2.9582  0.4531  2.2493
   59CHL1    C1 6816   5.502   0.194  10.201  0.3638  0.5989 -0.8843
   59CHL1   H1A 6817   5.469   0.102  10.149  0.6721  0.1171 -0.2471
   59CHL1   H1B 6818   5.611   0.212  10.186  0.6073  1.1437  1.1533
   59CHL1    C2 6819   5.482   0.183  10.357  0.3008 -0.1928 -0.1043
   59CHL1   H2A 6820   5.556   0.115  10.405  0.7285  1.7949  2.1882
   59CHL1   H2B 6821   5.376   0.168  10.385  0.5327 -0.5813  0.5946
   59CHL1   C20 6822   5.328   0.342   9.438  0.3877  0.5155  0.2169
   59CHL1   H20 6823   5.226   0.380   9.464 -0.5581 -1.7396  0.0535
   59CHL1   C21 6824   5.333   0.189   9.436 -0.0015  0.7526  0.5017
   59CHL1  H21A 6825   5.430   0.151   9.398 -0.3344 -2.7560  2.7562
   59CHL1  H21B 6826   5.251   0.151   9.371 -0.8774  1.2252  1.3023
   59CHL1  H21C 6827   5.308   0.142   9.533 -0.6870  0.2332  0.0807
   59CHL1   C22 6828   5.371   0.397   9.301  0.4654  0.5648 -0.1313
   59CHL1  H22A 6829   5.371   0.508   9.305  0.4995  0.6509 -1.8710
   59CHL1  H22B 6830   5.475   0.376   9.267  0.8464  2.4481 -0.2352
   59CHL1   C23 6831   5.280   0.353   9.189  0.8658  0.1428  0.0745
   59CHL1  H23A 6832   5.273   0.242   9.188 -0.7243  0.2073 -1.8926
   59CHL1  H23B 6833   5.179   0.395   9.207 -0.3487 -0.9660 -3.3556
   59CHL1   C24 6834   5.313   0.407   9.051  0.4762 -0.0282  0.8252
   59CHL1  H24A 6835   5.304   0.518   9.058 -0.3440  0.0972 -1.4011
   59CHL1  H24B 6836   5.415   0.387   9.014  0.7100  2.2143  0.1049
   59CHL1   C25 6837   5.201   0.392   8.942  0.9650  0.1716 -0.7915
   59CHL1   H25 6838   5.109   0.448   8.969  1.2096  0.2719 -0.1364
   59CHL1   C26 6839   5.247   0.434   8.806  0.5149 -0.2475  0.0357
   59CHL1  H26A 6840   5.316   0.354   8.772  0.0332 -1.2329  1.3229
   59CHL1  H26B 6841   5.161   0.452   8.737  0.0983 -0.7785  0.4078
   59CHL1  H26C 6842   5.306   0.528   8.808  1.6486 -0.9589  0.6566
   59CHL1   C27 6843   5.154   0.242   8.945  0.5986  0.0863 -0.2158
   59CHL1  H27A 6844   5.092   0.229   9.037  1.7724  1.7869  0.8944
   59CHL1  H27B 6845   5.085   0.232   8.859 -1.6052 -0.6525  1.5362
   59CHL1  H27C 6846   5.247   0.183   8.934 -0.0952 -0.7353 -2.0159
   60CHL1    C3 6847   5.272   6.713  10.226 -1.0574  0.3831  0.1796
   60CHL1    H3 6848   5.328   6.800  10.187 -1.1812  0.8671  1.0561
   60CHL1    O3 6849   5.275   6.715  10.370  0.5232 -0.0549  0.0634
   60CHL1   H3' 6850   5.350   6.661  10.396 -0.3438 -1.3348  0.0168
   60CHL1    C4 6851   5.128   6.745  10.182  0.3845 -0.2889 -0.1851
   60CHL1   H4A 6852   5.057   6.669  10.221 -0.2899  0.0832 -0.6702
   60CHL1   H4B 6853   5.103   6.843  10.227  0.5355 -0.6759  0.7583
   60CHL1    C5 6854   5.117   6.743  10.033 -0.1766  0.2718 -0.2456
   60CHL1    C6 6855   5.084   6.854   9.966 -0.1683 -0.2722 -0.1610
   60CHL1    H6 6856   5.050   6.943  10.020 -0.3767  1.1864 -2.5578
   60CHL1    C7 6857   5.056   6.862   9.817 -0.6461 -0.7691 -0.4462
   60CHL1   H7A 6858   4.968   6.924   9.787 -0.6739 -1.2628 -1.4344
   60CHL1   H7B 6859   5.138   6.922   9.772 -0.1563 -1.4079 -0.4087
   60CHL1    C8 6860   5.056   6.724   9.753  0.5185  0.2023 -0.2758
   60CHL1    H8 6861   4.954   6.685   9.775  0.4306 -0.0867 -1.1677
   60CHL1   C14 6862   5.081   6.748   9.605 -0.0433  1.0683 -0.0571
   60CHL1   H14 6863   5.185   6.786   9.593  0.0381  0.2544 -2.3454
   60CHL1   C15 6864   4.987   6.858   9.529 -0.6692  0.5380  0.3189
   60CHL1  H15A 6865   4.885   6.846   9.569 -0.8921 -2.4394 -0.8849
   60CHL1  H15B 6866   5.033   6.959   9.523  2.8023 -0.6970  2.8677
   60CHL1   C16 6867   4.989   6.802   9.384 -0.0463  0.6468 -0.4947
   60CHL1  H16A 6868   4.887   6.767   9.357  0.2735 -0.6593 -0.0859
   60CHL1  H16B 6869   5.014   6.891   9.323 -2.0390  1.3163 -0.3931
   60CHL1   C17 6870   5.094   6.683   9.382  0.5712  0.1037  0.3429
   60CHL1   H17 6871   5.194   6.730   9.370  0.0274  0.8035 -1.9581
   60CHL1   C13 6872   5.090   6.620   9.519  0.4728  0.0760 -0.4133
   60CHL1   C18 6873   4.962   6.544   9.541 -0.0787 -0.2256  0.2252
   60CHL1  H18A 6874   4.947   6.507   9.644 -0.8211 -2.9761 -0.7665
   60CHL1  H18B 6875   4.879   6.618   9.539  0.1165  0.0129  0.8211
   60CHL1  H18C 6876   4.942   6.449   9.486  2.0057 -0.9954  0.7006
   60CHL1   C12 6877   5.207   6.536   9.563  0.2472 -0.0523 -0.0874
   60CHL1  H12A 6878   5.210   6.440   9.507 -1.2607  0.9452 -1.9748
   60CHL1  H12B 6879   5.303   6.585   9.537  1.6769 -2.8553 -0.4987
   60CHL1   C11 6880   5.195   6.510   9.722 -0.5115  1.0591  0.5570
   60CHL1  H11A 6881   5.110   6.440   9.735  1.4037 -1.2079  1.6268
   60CHL1  H11B 6882   5.287   6.455   9.750 -0.7934  0.5435  0.4895
   60CHL1    C9 6883   5.174   6.633   9.807 -0.6798  0.7659 -0.1245
   60CHL1    H9 6884   5.267   6.690   9.790  0.2755  0.2570  2.7649
   60CHL1   C10 6885   5.155   6.610   9.963 -0.3783  0.8585  0.7423
   60CHL1   C19 6886   5.049   6.505   9.988  0.4354 -0.1572  0.2346
   60CHL1  H19A 6887   5.052   6.459  10.089 -1.8890 -1.3828 -0.1733
   60CHL1  H19B 6888   4.953   6.541   9.946  1.3846  0.2900 -1.6703
   60CHL1  H19C 6889   5.069   6.410   9.933  3.0307 -0.1152  0.9705
   60CHL1    C1 6890   5.290   6.562  10.022  0.4073  0.2647  0.3570
   60CHL1   H1A 6891   5.322   6.461   9.987 -1.5454  0.8360 -3.6500
   60CHL1   H1B 6892   5.362   6.636   9.983  1.1866 -0.5778  0.1522
   60CHL1    C2 6893   5.317   6.579  10.170  0.2338 -0.5064 -0.4627
   60CHL1   H2A 6894   5.423   6.571  10.201  0.2397 -0.2079 -0.4050
   60CHL1   H2B 6895   5.247   6.512  10.225 -1.5746  0.5335 -1.3841
   60CHL1   C20 6896   5.077   6.591   9.253 -0.8699 -0.7242 -0.6871
   60CHL1   H20 6897   5.003   6.514   9.282  0.0494 -0.9347  1.2448
   60CHL1   C21 6898   5.216   6.530   9.213  0.0637 -0.0246  0.4277
   60CHL1  H21A 6899   5.280   6.618   9.191 -0.4705 -0.0376 -1.2453
   60CHL1  H21B 6900   5.215   6.466   9.123 -0.8743 -0.2003  0.5585
   60CHL1  H21C 6901   5.266   6.476   9.296 -1.5060 -0.1429  1.3475
   60CHL1   C22 6902   5.021   6.670   9.127  0.0021 -0.1871 -0.2222
   60CHL1  H22A 6903   4.926   6.723   9.151  1.2921  1.2837  2.0321
   60CHL1  H22B 6904   5.096   6.751   9.119 -0.9393  0.9235  1.4728
   60CHL1   C23 6905   5.013   6.598   9.000 -0.2023 -0.5995  0.5606
   60CHL1  H23A 6906   5.116   6.579   8.964  0.5472  0.1133  2.2298
   60CHL1  H23B 6907   4.959   6.501   9.007  2.3509 -2.1846 -0.2959
   60CHL1   C24 6908   4.954   6.675   8.876 -0.0484  0.0343 -1.1062
   60CHL1  H24A 6909   4.845   6.693   8.882 -0.1872 -0.9042 -0.5138
   60CHL1  H24B 6910   4.998   6.776   8.865 -1.1552  0.5742 -0.6834
   60CHL1   C25 6911   4.981   6.607   8.744  0.2166  0.3159  0.0434
   60CHL1   H25 6912   5.086   6.638   8.722  0.0093  1.3069  0.4037
   60CHL1   C26 6913   4.965   6.452   8.730 -0.5762  0.8523 -0.7018
   60CHL1  H26A 6914   4.974   6.428   8.622  0.8038 -1.7781 -0.0799
   60CHL1  H26B 6915   5.048   6.412   8.792 -0.1422  2.9995  0.2152
   60CHL1  H26C 6916   4.867   6.412   8.763 -0.1990  0.8522  0.4459
   60CHL1   C27 6917   4.900   6.662   8.620  0.3593 -0.5380  0.3030
   60CHL1  H27A 6918   4.798   6.619   8.629  0.4428 -1.8522 -3.3843
   60CHL1  H27B 6919   4.885   6.771   8.605 -0.7214 -0.9665 -2.3180
   60CHL1  H27C 6920   4.947   6.622   8.527  0.8419 -1.0786  0.7773
   61CHL1    C3 6921   4.676   6.738  10.316  0.8487  0.4940  0.4260
   61CHL1    H3 6922   4.747   6.823  10.304  4.0925 -2.1418 -0.4837
   61CHL1    O3 6923   4.673   6.693  10.444 -0.3455  0.0209  0.5074
   61CHL1   H3' 6924   4.585   6.670  10.475  0.6264 -1.6363  2.2331
   61CHL1    C4 6925   4.527   6.778  10.282 -1.0026  0.2188 -0.5512
   61CHL1   H4A 6926   4.460   6.700  10.324  0.7890 -1.1998 -0.2204
   61CHL1   H4B 6927   4.508   6.868  10.344  1.9371  0.5917 -0.0242
   61CHL1    C5 6928   4.513   6.797  10.135  0.0068 -0.9621 -1.1740
   61CHL1    C6 6929   4.470   6.920  10.094  0.1386 -0.1185 -0.3126
   61CHL1    H6 6930   4.429   6.995  10.164 -1.1414  1.0307 -2.2175
   61CHL1    C7 6931   4.436   6.954   9.955 -0.0550 -0.2242  0.1353
   61CHL1   H7A 6932   4.337   6.999   9.931  0.8165  0.6259 -2.1875
   61CHL1   H7B 6933   4.513   7.031   9.934  0.4262 -0.3055  1.5203
   61CHL1    C8 6934   4.445   6.833   9.855  0.0932 -0.6548  0.0840
   61CHL1    H8 6935   4.347   6.785   9.873 -1.1234  0.7780 -2.3083
   61CHL1   C14 6936   4.460   6.891   9.713 -0.4754  0.3532  0.0499
   61CHL1   H14 6937   4.564   6.929   9.705  0.3057 -1.1960  1.8738
   61CHL1   C15 6938   4.352   6.989   9.667  0.3772  0.1036 -0.7622
   61CHL1  H15A 6939   4.253   6.942   9.682 -0.3097  2.2041  2.4529
   61CHL1  H15B 6940   4.348   7.086   9.721 -0.4021 -1.0644  1.4367
   61CHL1   C16 6941   4.372   6.984   9.510  0.3789 -0.4097 -0.2139
   61CHL1  H16A 6942   4.274   6.961   9.463  0.1776  2.8642 -1.6097
   61CHL1  H16B 6943   4.409   7.084   9.480  1.0591  0.2113  2.4419
   61CHL1   C17 6944   4.466   6.867   9.472  0.0358  0.0515 -0.2140
   61CHL1   H17 6945   4.568   6.911   9.465 -0.1557  0.9970  1.9713
   61CHL1   C13 6946   4.470   6.787   9.606 -0.4797  0.9845  0.2791
   61CHL1   C18 6947   4.344   6.696   9.613  0.3188 -0.2731 -0.4727
   61CHL1  H18A 6948   4.336   6.611   9.542  0.2232  1.3470 -2.4900
   61CHL1  H18B 6949   4.330   6.647   9.712  2.0599 -1.3956 -0.7438
   61CHL1  H18C 6950   4.246   6.746   9.596 -0.3451 -0.9451  1.1847
   61CHL1   C12 6951   4.592   6.695   9.639  0.1460  0.1532 -0.0840
   61CHL1  H12A 6952   4.594   6.610   9.568  1.7754  0.3063 -0.2651
   61CHL1  H12B 6953   4.687   6.752   9.628  0.4164  0.5494  3.3557
   61CHL1   C11 6954   4.595   6.634   9.786  0.8994  0.2010  0.0828
   61CHL1  H11A 6955   4.513   6.559   9.787 -1.5801  2.5862 -2.9188
   61CHL1  H11B 6956   4.692   6.582   9.804  0.8852  0.5512  1.2797
   61CHL1    C9 6957   4.570   6.747   9.894  0.1543  1.2008  1.0757
   61CHL1    H9 6958   4.656   6.817   9.888  0.7775  0.5019  1.5427
   61CHL1   C10 6959   4.565   6.696  10.036 -0.1754 -0.6500 -0.0168
   61CHL1   C19 6960   4.461   6.584  10.051  0.0186  0.2412 -0.0987
   61CHL1  H19A 6961   4.513   6.493  10.012  0.2462  0.3689 -0.0950
   61CHL1  H19B 6962   4.431   6.566  10.157 -1.3778  0.1851 -0.4832
   61CHL1  H19C 6963   4.364   6.612  10.005  0.2649  4.3965  1.5385
   61CHL1    C1 6964   4.715   6.662  10.077 -0.9982 -0.2241  0.3825
   61CHL1   H1A 6965   4.743   6.572  10.017  1.1275  0.0411  0.9003
   61CHL1   H1B 6966   4.789   6.740  10.048  0.1552 -0.7798  1.6938
   61CHL1    C2 6967   4.736   6.631  10.227  1.0563  0.0751  0.3643
   61CHL1   H2A 6968   4.840   6.627  10.264 -0.0600 -1.1313  3.6794
   61CHL1   H2B 6969   4.686   6.534  10.248  0.9118 -0.4067 -1.9442
   61CHL1   C20 6970   4.433   6.792   9.340 -0.2283 -0.0211 -0.4901
   61CHL1   H20 6971   4.339   6.735   9.353 -0.0297 -0.9303 -2.6682
   61CHL1   C21 6972   4.540   6.694   9.304 -0.1992  0.5567  0.3046
   61CHL1  H21A 6973   4.639   6.736   9.275  0.0348  1.0951  1.7681
   61CHL1  H21B 6974   4.502   6.641   9.214 -0.7258 -2.1474  2.0077
   61CHL1  H21C 6975   4.556   6.611   9.377 -0.8693  0.3746  0.2449
   61CHL1   C22 6976   4.429   6.885   9.217  0.1306  0.1926  0.2634
   61CHL1  H22A 6977   4.379   6.979   9.248 -0.5227  0.1276 -0.5621
   61CHL1  H22B 6978   4.531   6.908   9.179 -0.5246 -0.4127 -2.0427
   61CHL1   C23 6979   4.343   6.832   9.103  0.7814  0.0564 -0.3029
   61CHL1  H23A 6980   4.378   6.736   9.060  0.4585  0.3059 -1.1430
   61CHL1  H23B 6981   4.244   6.815   9.150  0.0825  1.2469 -1.2834
   61CHL1   C24 6982   4.343   6.943   8.995 -0.4623 -0.1251  0.0507
   61CHL1  H24A 6983   4.304   7.040   9.033 -0.8563 -0.0659 -0.4941
   61CHL1  H24B 6984   4.445   6.972   8.964 -0.7149 -0.8932 -1.6128
   61CHL1   C25 6985   4.256   6.916   8.867 -0.4785 -0.2903  0.3449
   61CHL1   H25 6986   4.292   6.831   8.805  0.1336 -0.0373  0.3455
   61CHL1   C26 6987   4.117   6.879   8.904  0.8254 -0.2472  0.4412
   61CHL1  H26A 6988   4.078   6.959   8.969  1.2009  0.1620  0.1652
   61CHL1  H26B 6989   4.055   6.876   8.812  1.2463 -4.2064  0.0743
   61CHL1  H26C 6990   4.109   6.787   8.966 -2.6688 -0.0598  0.4866
   61CHL1   C27 6991   4.255   7.046   8.775 -0.3794  0.3006 -0.6822
   61CHL1  H27A 6992   4.356   7.091   8.769  0.0674  0.0680  2.8103
   61CHL1  H27B 6993   4.230   7.007   8.674  0.4274 -2.0757 -0.0338
   61CHL1  H27C 6994   4.176   7.115   8.813 -1.6329 -0.8377 -1.1326
   62CHL1    C3 6995   2.520   1.604   9.861 -0.0199  0.7003  0.4771
   62CHL1    H3 6996   2.567   1.693   9.813 -0.5503  0.2445 -0.9369
   62CHL1    O3 6997   2.499   1.613   9.999  0.0193 -0.4455  0.0477
   62CHL1   H3' 6998   2.440   1.687  10.014 -0.1921 -0.4405 -0.7703
   62CHL1    C4 6999   2.385   1.599   9.788 -0.2213  0.3598  0.3686
   62CHL1   H4A 7000   2.325   1.515   9.830  0.0663 -0.5208 -0.9359
   62CHL1   H4B 7001   2.341   1.701   9.791  1.6763  1.2157  0.8592
   62CHL1    C5 7002   2.386   1.550   9.639 -0.2865 -0.2379 -0.1421
   62CHL1    C6 7003   2.316   1.617   9.547 -0.4138 -0.0369  0.2376
   62CHL1    H6 7004   2.254   1.704   9.574 -1.8907 -0.7978 -0.5417
   62CHL1    C7 7005   2.296   1.580   9.403  0.0091 -0.8351  0.9663
   62CHL1   H7A 7006   2.187   1.578   9.382 -0.0245 -2.6190  1.1171
   62CHL1   H7B 7007   2.353   1.656   9.346  1.1671 -2.6005 -0.3340
   62CHL1    C8 7008   2.353   1.437   9.389  0.5145 -0.4133 -0.2700
   62CHL1    H8 7009   2.282   1.363   9.430  0.5098 -0.3118 -0.0939
   62CHL1   C14 7010   2.363   1.414   9.239  0.3872  0.1196 -0.2335
   62CHL1   H14 7011   2.438   1.492   9.212  0.8316  0.1675  1.0708
   62CHL1   C15 7012   2.236   1.446   9.149  0.1022 -0.2083 -0.1194
   62CHL1  H15A 7013   2.150   1.393   9.195  0.3927 -0.5902 -0.0143
   62CHL1  H15B 7014   2.220   1.555   9.133 -1.8680 -0.0064  2.5786
   62CHL1   C16 7015   2.275   1.381   9.016  0.0302 -0.3874  0.3075
   62CHL1  H16A 7016   2.199   1.306   8.986  0.9628 -1.3270  0.2005
   62CHL1  H16B 7017   2.293   1.447   8.929 -0.8282  0.1681  0.5370
   62CHL1   C17 7018   2.404   1.300   9.038 -0.1524  0.5201  0.8856
   62CHL1   H17 7019   2.490   1.363   9.008  2.5586 -3.5546 -0.8292
   62CHL1   C13 7020   2.423   1.287   9.191 -0.1021  0.1220 -0.2447
   62CHL1   C18 7021   2.332   1.169   9.237  0.0737  0.0044 -0.4126
   62CHL1  H18A 7022   2.330   1.154   9.347  0.3244 -0.3076 -0.4510
   62CHL1  H18B 7023   2.228   1.191   9.205 -0.4067 -0.6244  0.6805
   62CHL1  H18C 7024   2.360   1.077   9.183  2.7830  0.2560  0.4096
   62CHL1   C12 7025   2.568   1.280   9.241  0.3749 -0.3035 -0.2025
   62CHL1  H12A 7026   2.613   1.183   9.210  0.2571 -1.4539  2.8178
   62CHL1  H12B 7027   2.632   1.365   9.208  0.0174 -0.0614 -0.2743
   62CHL1   C11 7028   2.571   1.305   9.398 -0.3666  0.1439 -1.0133
   62CHL1  H11A 7029   2.520   1.212   9.432 -1.6038  1.0440 -0.3596
   62CHL1  H11B 7030   2.676   1.306   9.434 -0.9522  0.2795  0.8036
   62CHL1    C9 7031   2.494   1.426   9.448 -0.4524  0.9597 -0.5031
   62CHL1    H9 7032   2.556   1.511   9.413 -1.1254  2.4155  1.6365
   62CHL1   C10 7033   2.481   1.430   9.604  0.3243 -0.0363  0.3007
   62CHL1   C19 7034   2.431   1.299   9.654 -0.5326  0.7797  0.6390
   62CHL1  H19A 7035   2.338   1.262   9.605  1.1359 -0.9447 -1.4291
   62CHL1  H19B 7036   2.501   1.216   9.629  1.0242  2.4089 -0.6834
   62CHL1  H19C 7037   2.416   1.298   9.764 -2.2657  1.1196  0.4370
   62CHL1    C1 7038   2.611   1.446   9.682 -0.0373  0.0882  0.4402
   62CHL1   H1A 7039   2.673   1.355   9.667 -1.5922 -0.7285 -1.4614
   62CHL1   H1B 7040   2.669   1.527   9.632  0.3933 -1.2002 -1.2313
   62CHL1    C2 7041   2.603   1.482   9.834 -0.0980 -0.0092 -0.3195
   62CHL1   H2A 7042   2.703   1.483   9.884  0.7160 -0.3780 -1.8598
   62CHL1   H2B 7043   2.550   1.396   9.878 -1.3784  0.1124 -1.5546
   62CHL1   C20 7044   2.408   1.171   8.958  0.1556 -0.7080 -0.4563
   62CHL1   H20 7045   2.329   1.102   8.996  1.4232 -0.2479  3.4462
   62CHL1   C21 7046   2.548   1.098   8.960  0.2948  0.2646 -0.2199
   62CHL1  H21A 7047   2.550   1.031   8.871 -1.1886 -0.4383  0.2551
   62CHL1  H21B 7048   2.557   1.037   9.052  0.7708  2.1536  1.0312
   62CHL1  H21C 7049   2.618   1.184   8.948 -1.0953  1.4488 -0.1874
   62CHL1   C22 7050   2.386   1.194   8.809 -0.2335  0.0903 -0.0207
   62CHL1  H22A 7051   2.317   1.278   8.792 -0.4345  0.0034  0.3524
   62CHL1  H22B 7052   2.479   1.231   8.761 -0.8412  1.0210 -0.5032
   62CHL1   C23 7053   2.323   1.071   8.737 -0.1454 -0.2544 -0.1115
   62CHL1  H23A 7054   2.390   0.983   8.736  0.1948  0.0020  0.0716
   62CHL1  H23B 7055   2.237   1.029   8.793 -0.1223 -4.0007 -2.4752
   62CHL1   C24 7056   2.255   1.112   8.599  0.1548  0.6887  0.0734
   62CHL1  H24A 7057   2.170   1.176   8.630 -1.6978 -2.0704  1.1233
   62CHL1  H24B 7058   2.331   1.175   8.548  0.6141 -0.1513 -0.2926
   62CHL1   C25 7059   2.197   0.996   8.514  0.4613 -0.0124  0.0443
   62CHL1   H25 7060   2.142   0.934   8.588  0.1578 -0.6572 -0.6988
   62CHL1   C26 7061   2.103   1.049   8.406 -0.7132 -0.4516 -0.5150
   62CHL1  H26A 7062   2.158   1.105   8.327 -0.0499  0.6539  0.6973
   62CHL1  H26B 7063   2.061   0.968   8.343 -1.5805  1.2092 -2.2058
   62CHL1  H26C 7064   2.018   1.109   8.445 -1.4065  0.2557 -2.9639
   62CHL1   C27 7065   2.304   0.919   8.454  0.2208  0.3927  0.3726
   62CHL1  H27A 7066   2.268   0.866   8.363  0.7476  1.6297 -0.5926
   62CHL1  H27B 7067   2.385   0.991   8.428  0.4302  1.1367  2.8338
   62CHL1  H27C 7068   2.344   0.845   8.526  0.6160 -0.6463 -0.8829
   63CHL1    C3 7069   5.791   3.995  10.199 -0.2303 -0.5057 -0.2430
   63CHL1    H3 7070   5.692   4.038  10.177  0.1846  0.0839 -1.0068
   63CHL1    O3 7071   5.809   3.939  10.330 -0.5763 -0.2652  0.1002
   63CHL1   H3' 7072   5.880   3.877  10.316 -1.1376 -0.5591 -1.7937
   63CHL1    C4 7073   5.807   3.877  10.097 -0.7798  0.4569 -0.2508
   63CHL1   H4A 7074   5.896   3.813  10.117 -1.2516 -0.0003  0.4473
   63CHL1   H4B 7075   5.717   3.813  10.108  0.6119 -1.2851  1.8140
   63CHL1    C5 7076   5.820   3.931   9.958 -0.0453 -0.3971 -0.6628
   63CHL1    C6 7077   5.738   3.897   9.863  0.1932  0.5660  0.2610
   63CHL1    H6 7078   5.660   3.823   9.887  0.5566  0.4835  1.2291
   63CHL1    C7 7079   5.738   3.941   9.718  0.1374  0.4097 -0.0736
   63CHL1   H7A 7080   5.740   3.848   9.657 -1.2778 -1.0725  2.0058
   63CHL1   H7B 7081   5.645   3.999   9.700  0.3899  0.8607  0.0770
   63CHL1    C8 7082   5.867   4.026   9.681  0.3321 -0.1925  0.0071
   63CHL1    H8 7083   5.956   3.960   9.669  0.1234 -0.2067 -1.7077
   63CHL1   C14 7084   5.845   4.107   9.551 -0.2243  0.4833 -0.1759
   63CHL1   H14 7085   5.775   4.190   9.574 -0.2799 -0.3728  3.3796
   63CHL1   C15 7086   5.789   4.035   9.427  0.2555 -0.4553 -0.6574
   63CHL1  H15A 7087   5.845   3.939   9.418 -0.5777 -1.2073  1.5424
   63CHL1  H15B 7088   5.680   4.012   9.429  0.5207 -1.7467  0.0626
   63CHL1   C16 7089   5.819   4.126   9.314 -0.0007  0.2597  0.3384
   63CHL1  H16A 7090   5.892   4.074   9.248  0.7080  1.6624 -0.0164
   63CHL1  H16B 7091   5.738   4.159   9.247 -1.2107 -0.3150  1.4776
   63CHL1   C17 7092   5.902   4.247   9.372  0.5892  0.0258 -0.0888
   63CHL1   H17 7093   5.830   4.326   9.402 -0.2382  1.0695 -4.2388
   63CHL1   C13 7094   5.968   4.192   9.504  0.3039  0.3402  0.9078
   63CHL1   C18 7095   6.082   4.102   9.466 -0.5055  0.1435  0.8802
   63CHL1  H18A 7096   6.158   4.165   9.414 -0.7904  1.3757  1.9158
   63CHL1  H18B 7097   6.138   4.060   9.552  0.1573 -2.3765 -0.6484
   63CHL1  H18C 7098   6.054   4.008   9.414 -1.7510 -0.6143  2.8184
   63CHL1   C12 7099   5.998   4.300   9.611 -0.0655  0.1224 -0.3647
   63CHL1  H12A 7100   6.096   4.350   9.593 -0.1699 -0.2431 -2.0126
   63CHL1  H12B 7101   5.913   4.370   9.601 -0.3652 -0.4580 -2.1169
   63CHL1   C11 7102   6.011   4.229   9.753 -0.6905 -0.0162 -0.2343
   63CHL1  H11A 7103   6.110   4.178   9.754 -1.0396 -0.7043  0.8767
   63CHL1  H11B 7104   6.013   4.308   9.830 -0.7439 -0.0794 -0.1680
   63CHL1    C9 7105   5.899   4.125   9.793 -0.5508  0.4157  0.4910
   63CHL1    H9 7106   5.803   4.175   9.818 -1.3880 -1.4912  1.2924
   63CHL1   C10 7107   5.921   4.049   9.928 -0.9132  0.2786  0.3996
   63CHL1   C19 7108   6.058   3.982   9.927 -0.2285 -0.5961  0.1770
   63CHL1  H19A 7109   6.083   3.929  10.022 -1.9171 -1.9277 -0.0602
   63CHL1  H19B 7110   6.070   3.919   9.837 -1.8950 -1.4944  0.5362
   63CHL1  H19C 7111   6.139   4.056   9.910  0.1959 -1.4199 -1.5781
   63CHL1    C1 7112   5.905   4.152  10.037 -0.0610 -1.2355 -0.6301
   63CHL1   H1A 7113   5.986   4.228  10.030  0.2912 -0.8634  4.0878
   63CHL1   H1B 7114   5.808   4.204  10.022 -1.0861 -2.1523  2.1048
   63CHL1    C2 7115   5.905   4.083  10.176  0.1664  0.1380  0.8013
   63CHL1   H2A 7116   5.894   4.163  10.253 -0.2597 -1.7063  2.7254
   63CHL1   H2B 7117   5.999   4.030  10.201 -1.2395 -1.8104  2.1851
   63CHL1   C20 7118   5.992   4.309   9.259  0.1986 -0.3013  0.1242
   63CHL1   H20 7119   6.053   4.232   9.206  1.5506  1.0849 -0.3905
   63CHL1   C21 7120   6.088   4.409   9.320 -0.4856  0.0755  0.1684
   63CHL1  H21A 7121   6.158   4.368   9.396  0.8374  0.0445 -1.0280
   63CHL1  H21B 7122   6.044   4.493   9.377  2.6918  0.6013  2.1083
   63CHL1  H21C 7123   6.148   4.463   9.244 -0.2671 -2.2024 -1.4033
   63CHL1   C22 7124   5.916   4.378   9.136 -0.6265  0.0512 -0.3317
   63CHL1  H22A 7125   5.827   4.320   9.102  0.5608 -0.7240 -2.2569
   63CHL1  H22B 7126   5.877   4.471   9.182  1.9079  0.8372  0.4156
   63CHL1   C23 7127   6.007   4.414   9.018 -0.2281  0.5554  0.4972
   63CHL1  H23A 7128   6.076   4.494   9.053 -0.2168  0.4327  0.7625
   63CHL1  H23B 7129   6.061   4.328   8.973  1.1926  1.8772 -0.3861
   63CHL1   C24 7130   5.910   4.469   8.911  0.0701 -0.5723  0.2298
   63CHL1  H24A 7131   5.819   4.406   8.899  0.5618 -0.9401 -2.0350
   63CHL1  H24B 7132   5.866   4.564   8.947  2.4660  0.8526 -0.3963
   63CHL1   C25 7133   5.964   4.486   8.764 -0.6936  0.2435  0.1395
   63CHL1   H25 7134   5.977   4.381   8.732  0.1721  0.5018 -0.3947
   63CHL1   C26 7135   5.860   4.547   8.672  0.1578 -0.6023  0.2408
   63CHL1  H26A 7136   5.845   4.654   8.700  2.2042 -0.5866  1.4840
   63CHL1  H26B 7137   5.890   4.556   8.566  2.2777 -0.8727  0.7659
   63CHL1  H26C 7138   5.764   4.492   8.683  0.8590 -1.8940  0.0719
   63CHL1   C27 7139   6.086   4.571   8.765  0.6305  0.6345  0.0592
   63CHL1  H27A 7140   6.167   4.533   8.830  1.0820  0.0827 -0.8101
   63CHL1  H27B 7141   6.132   4.570   8.664  1.1730  0.0628  0.3037
   63CHL1  H27C 7142   6.072   4.680   8.786  1.3959  1.3096 -2.5669
   64CHL1    C3 7143   5.059   3.157  10.095  0.3110  0.1228  0.3068
   64CHL1    H3 7144   5.161   3.198  10.111  1.7373 -2.6256 -1.0978
   64CHL1    O3 7145   5.033   3.078  10.209 -0.3868 -0.2975 -0.6869
   64CHL1   H3' 7146   4.993   3.132  10.277  1.1311  0.4869 -0.3669
   64CHL1    C4 7147   4.957   3.279  10.097  0.3221  0.2054  0.4788
   64CHL1   H4A 7148   4.852   3.242  10.099 -0.3601  1.9823 -0.5707
   64CHL1   H4B 7149   4.968   3.343  10.187 -2.6805  0.7855  0.5332
   64CHL1    C5 7150   4.961   3.369   9.977 -0.7021  0.1859 -0.2563
   64CHL1    C6 7151   4.971   3.503   9.994  0.7337 -0.2512  0.2084
   64CHL1    H6 7152   4.984   3.549  10.093  1.2580  0.2286 -0.0791
   64CHL1    C7 7153   4.980   3.599   9.876  0.2531  0.0869 -0.3242
   64CHL1   H7A 7154   4.922   3.694   9.876 -0.3166 -0.2408 -1.5767
   64CHL1   H7B 7155   5.087   3.622   9.857 -0.0340  0.8891 -1.0763
   64CHL1    C8 7156   4.941   3.525   9.743  0.0212  0.5872  0.2311
   64CHL1    H8 7157   4.831   3.511   9.748  0.1194 -0.4474 -0.2368
   64CHL1   C14 7158   4.977   3.615   9.624  0.2025 -0.6240 -0.2539
   64CHL1   H14 7159   5.087   3.623   9.636 -0.1326  0.2907  3.9322
   64CHL1   C15 7160   4.944   3.765   9.626 -0.2416 -0.2774 -0.9180
   64CHL1  H15A 7161   4.834   3.776   9.639 -0.6396 -3.0984 -1.2664
   64CHL1  H15B 7162   4.999   3.820   9.705  1.9366 -1.5662 -1.4544
   64CHL1   C16 7163   4.973   3.807   9.482  0.3257  0.2145 -0.0735
   64CHL1  H16A 7164   4.881   3.860   9.446 -0.8067 -0.3792  1.8212
   64CHL1  H16B 7165   5.058   3.878   9.483  3.6267 -3.4532 -0.6034
   64CHL1   C17 7166   4.998   3.679   9.398  0.2808 -0.3479  0.2398
   64CHL1   H17 7167   5.109   3.679   9.402  0.6207  3.0809 -3.3685
   64CHL1   C13 7168   4.947   3.562   9.486  0.0532  0.4137  0.2412
   64CHL1   C18 7169   4.796   3.555   9.469  0.8871 -0.8136 -0.3582
   64CHL1  H18A 7170   4.774   3.488   9.383  2.8270 -1.8127 -0.1340
   64CHL1  H18B 7171   4.733   3.515   9.551 -1.5000  1.3415 -1.0315
   64CHL1  H18C 7172   4.756   3.657   9.448 -0.8067 -1.8950 -3.0111
   64CHL1   C12 7173   5.021   3.425   9.470  0.2047  0.6274 -0.5914
   64CHL1  H12A 7174   4.981   3.366   9.386  0.3665  0.9150 -0.8763
   64CHL1  H12B 7175   5.131   3.438   9.461  0.1292  1.3589 -0.5596
   64CHL1   C11 7176   4.973   3.333   9.586 -0.1176  0.1328  0.0288
   64CHL1  H11A 7177   4.865   3.307   9.581 -0.6831  1.9548  1.4782
   64CHL1  H11B 7178   5.028   3.237   9.580 -2.0607 -0.9817 -1.2265
   64CHL1    C9 7179   5.006   3.388   9.728 -0.0867  0.3277 -0.3469
   64CHL1    H9 7180   5.114   3.407   9.749  0.0274 -1.0936  0.4895
   64CHL1   C10 7181   4.970   3.293   9.842 -0.4525 -0.8370 -0.2521
   64CHL1   C19 7182   4.830   3.235   9.827  0.4512 -0.1845  0.2481
   64CHL1  H19A 7183   4.773   3.327   9.800 -0.9797  0.4736  4.6717
   64CHL1  H19B 7184   4.825   3.158   9.748  0.5037  2.7838 -2.8911
   64CHL1  H19C 7185   4.790   3.197   9.924  1.5539  1.3463  1.3601
   64CHL1    C1 7186   5.070   3.179   9.842 -0.0381  0.7192 -0.0672
   64CHL1   H1A 7187   5.057   3.115   9.753  1.2086 -0.5971  0.6581
   64CHL1   H1B 7188   5.175   3.214   9.848 -0.0241  0.4655  2.4384
   64CHL1    C2 7189   5.044   3.084   9.968  0.1165  0.1295  0.5119
   64CHL1   H2A 7190   5.127   3.011   9.961  0.4664  0.7124 -2.4929
   64CHL1   H2B 7191   4.945   3.034   9.956 -0.7692  2.0364 -0.6314
   64CHL1   C20 7192   4.965   3.685   9.253 -0.0322  0.2610 -0.0310
   64CHL1   H20 7193   4.857   3.700   9.236 -0.4970 -0.8714  1.6479
   64CHL1   C21 7194   5.012   3.557   9.185  0.2457  0.0915 -0.3516
   64CHL1  H21A 7195   5.120   3.538   9.200  0.4104  1.8517  1.0387
   64CHL1  H21B 7196   4.988   3.561   9.077 -0.9759  1.9893 -0.0729
   64CHL1  H21C 7197   4.951   3.474   9.227 -0.6470  0.8601 -0.0809
   64CHL1   C22 7198   5.043   3.799   9.188 -0.1632 -0.0886 -0.2583
   64CHL1  H22A 7199   5.027   3.886   9.255  1.1645 -2.4119  3.3355
   64CHL1  H22B 7200   5.153   3.789   9.201 -0.3548 -2.5622 -0.0931
   64CHL1   C23 7201   5.015   3.825   9.035 -0.1122  0.4529  0.3027
   64CHL1  H23A 7202   5.056   3.749   8.965  0.7598  1.9709 -0.8941
   64CHL1  H23B 7203   4.906   3.827   9.018  0.0682  0.1019 -1.0286
   64CHL1   C24 7204   5.064   3.961   8.993 -0.4399 -0.5966  0.7202
   64CHL1  H24A 7205   4.999   4.037   9.040 -0.5631 -0.1132 -0.1945
   64CHL1  H24B 7206   5.164   3.988   9.034 -0.1651 -0.6103  0.0765
   64CHL1   C25 7207   5.071   3.992   8.839  0.4849 -0.5998  0.6241
   64CHL1   H25 7208   5.164   3.959   8.787  0.9520  2.6244 -0.8397
   64CHL1   C26 7209   4.945   3.936   8.761  0.5848 -0.0340 -0.3906
   64CHL1  H26A 7210   4.963   3.974   8.658 -2.2315  1.6127 -0.3912
   64CHL1  H26B 7211   4.925   3.827   8.771 -0.3919 -0.0154 -1.7864
   64CHL1  H26C 7212   4.850   3.983   8.794 -0.0877 -1.0471 -0.8348
   64CHL1   C27 7213   5.077   4.147   8.818  0.3515  0.7150  0.0692
   64CHL1  H27A 7214   5.077   4.165   8.709 -2.4748 -0.6288 -0.2283
   64CHL1  H27B 7215   4.993   4.202   8.866 -2.5211 -1.7894 -1.7459
   64CHL1  H27C 7216   5.171   4.195   8.854  0.7666  0.1234 -0.2081
   65CHL1    C3 7217   6.368   0.049  10.085  0.1743 -0.5227  0.5319
   65CHL1    H3 7218   6.466   0.089  10.053 -0.4393  2.7649  2.3154
   65CHL1    O3 7219   6.360   0.063  10.226 -0.5608  0.1784 -0.2926
   65CHL1   H3' 7220   6.380   0.153  10.254  3.0358 -0.8211  0.8474
   65CHL1    C4 7221   6.253   0.135  10.022 -0.1603 -0.5223  0.1787
   65CHL1   H4A 7222   6.160   0.097  10.069 -0.5227 -1.9231 -1.5410
   65CHL1   H4B 7223   6.270   0.234  10.068  1.4068 -0.5638 -0.2382
   65CHL1    C5 7224   6.259   0.141   9.878  0.2112 -0.2621 -0.0859
   65CHL1    C6 7225   6.282   0.255   9.809  0.2192 -0.0562 -0.5766
   65CHL1    H6 7226   6.276   0.354   9.858 -4.2353  0.5817 -1.9532
   65CHL1    C7 7227   6.299   0.258   9.662 -0.1569  0.5801  0.2338
   65CHL1   H7A 7228   6.248   0.347   9.620 -0.4097 -0.1192 -0.9893
   65CHL1   H7B 7229   6.407   0.277   9.640 -0.0563 -0.9818 -0.8115
   65CHL1    C8 7230   6.251   0.127   9.596 -0.3131 -0.2690  0.1989
   65CHL1    H8 7231   6.140   0.127   9.593 -0.3121  0.9809 -0.3085
   65CHL1   C14 7232   6.306   0.127   9.457  0.1326  0.1863 -0.6306
   65CHL1   H14 7233   6.416   0.128   9.464  0.0886  0.1543  0.1876
   65CHL1   C15 7234   6.271   0.252   9.365  0.1917  0.0534 -0.4038
   65CHL1  H15A 7235   6.178   0.307   9.389  0.0176  0.1172 -1.1827
   65CHL1  H15B 7236   6.353   0.323   9.388 -0.5770  0.8432 -0.0435
   65CHL1   C16 7237   6.298   0.200   9.224  0.0026 -0.6298  0.3206
   65CHL1  H16A 7238   6.198   0.209   9.177  0.0605  1.3491  0.4896
   65CHL1  H16B 7239   6.377   0.256   9.168 -1.4081 -1.5218 -2.7970
   65CHL1   C17 7240   6.327   0.048   9.233 -0.3542  0.2010  0.7343
   65CHL1   H17 7241   6.436   0.028   9.244 -0.7481 -0.8199  4.2505
   65CHL1   C13 7242   6.271   0.012   9.373  0.1382 -0.2963  0.1386
   65CHL1   C18 7243   6.117   0.003   9.352  1.2701 -0.1605 -0.2358
   65CHL1  H18A 7244   6.070   0.093   9.306  0.9711 -0.4500 -0.4958
   65CHL1  H18B 7245   6.099  -0.083   9.284  1.2391 -0.2495 -0.1141
   65CHL1  H18C 7246   6.069  -0.034   9.445  0.6101 -0.0884 -0.5480
   65CHL1   C12 7247   6.330  -0.112   9.438  0.1187  0.5544  0.8676
   65CHL1  H12A 7248   6.302  -0.211   9.396 -1.7009  0.6969  1.6527
   65CHL1  H12B 7249   6.441  -0.108   9.450  0.0364  0.6969  1.6446
   65CHL1   C11 7250   6.288  -0.121   9.585  0.4003  0.2101 -0.5848
   65CHL1  H11A 7251   6.181  -0.148   9.574  0.9185 -1.3878 -2.0770
   65CHL1  H11B 7252   6.342  -0.205   9.633  0.3875  0.6706  0.2600
   65CHL1    C9 7253   6.308   0.005   9.668  0.0879 -0.5071  0.3426
   65CHL1    H9 7254   6.418   0.017   9.663  0.2987 -2.0661  0.5683
   65CHL1   C10 7255   6.261  -0.002   9.816 -0.1146  0.1014 -0.4029
   65CHL1   C19 7256   6.110  -0.043   9.825 -0.0512 -0.5735 -0.1461
   65CHL1  H19A 7257   6.043   0.037   9.787 -2.3684 -0.8200  3.0314
   65CHL1  H19B 7258   6.086  -0.144   9.785 -2.0840 -0.4347  0.6306
   65CHL1  H19C 7259   6.072  -0.049   9.929 -1.9076  0.4229 -0.7207
   65CHL1    C1 7260   6.348  -0.111   9.888 -0.0339 -0.7521  0.3454
   65CHL1   H1A 7261   6.314  -0.215   9.870 -0.2618 -1.4094  3.8829
   65CHL1   H1B 7262   6.449  -0.089   9.847 -0.2282 -0.9420 -0.2496
   65CHL1    C2 7263   6.348  -0.096  10.042 -0.1122  0.0651  0.6533
   65CHL1   H2A 7264   6.419  -0.172  10.080  1.0690  0.9615  0.3066
   65CHL1   H2B 7265   6.248  -0.134  10.074 -1.3526  2.0602 -0.6004
   65CHL1   C20 7266   6.275  -0.019   9.103 -0.8076  0.4014  0.1681
   65CHL1   H20 7267   6.164  -0.010   9.105 -0.8455 -0.1002  0.6554
   65CHL1   C21 7268   6.329  -0.165   9.096 -0.2282 -0.1970 -0.0708
   65CHL1  H21A 7269   6.292  -0.214   9.189 -1.7166 -0.2939 -0.6908
   65CHL1  H21B 7270   6.440  -0.161   9.101 -0.2962  1.8199  0.7016
   65CHL1  H21C 7271   6.303  -0.217   9.001 -4.6773  0.2369  0.6986
   65CHL1   C22 7272   6.310   0.050   8.966  0.6045  0.5641  0.0071
   65CHL1  H22A 7273   6.270  -0.018   8.888  1.1230 -1.2051  1.2316
   65CHL1  H22B 7274   6.252   0.144   8.951  0.0686  0.0268 -1.4498
   65CHL1   C23 7275   6.462   0.071   8.933 -0.3222  0.5773 -0.6385
   65CHL1  H23A 7276   6.518   0.121   9.015  0.0307 -1.5558  0.4949
   65CHL1  H23B 7277   6.506  -0.028   8.906 -0.1533  1.0683 -2.3006
   65CHL1   C24 7278   6.490   0.145   8.806 -0.9824 -0.5590  0.8458
   65CHL1  H24A 7279   6.436   0.081   8.733 -1.2054  0.3104  0.2341
   65CHL1  H24B 7280   6.436   0.242   8.806 -2.2782 -1.2573  1.0204
   65CHL1   C25 7281   6.641   0.140   8.761 -0.0092 -0.6536 -0.1010
   65CHL1   H25 7282   6.713   0.174   8.838 -1.1465  0.7945  0.3646
   65CHL1   C26 7283   6.685   0.004   8.710  0.1530 -0.6169  0.7086
   65CHL1  H26A 7284   6.612  -0.044   8.642 -0.4298 -0.7383  1.4119
   65CHL1  H26B 7285   6.776   0.005   8.647 -0.5054 -0.0181 -0.2553
   65CHL1  H26C 7286   6.692  -0.069   8.794  0.6936 -2.6191 -1.0071
   65CHL1   C27 7287   6.672   0.238   8.648 -0.2111  0.2739 -1.2717
   65CHL1  H27A 7288   6.621   0.198   8.558 -3.6109  0.0122  0.6218
   65CHL1  H27B 7289   6.637   0.342   8.667  3.2880  1.2964  0.6987
   65CHL1  H27C 7290   6.778   0.260   8.621  0.2501 -1.7702 -1.3099
   66CHL1    C3 7291   5.077   6.068  10.448  0.3096  0.5183 -0.3980
   66CHL1    H3 7292   4.970   6.092  10.460  0.6807  2.5805 -0.8931
   66CHL1    O3 7293   5.120   6.063  10.582 -0.0381  0.0959 -0.3133
   66CHL1   H3' 7294   5.212   6.091  10.584  0.1171 -0.3877 -0.4483
   66CHL1    C4 7295   5.079   5.930  10.380  0.0823 -0.3140  0.2391
   66CHL1   H4A 7296   5.177   5.884  10.403 -1.0162 -1.2002  3.6470
   66CHL1   H4B 7297   5.016   5.859  10.436  0.9487 -1.2774  0.0244
   66CHL1    C5 7298   5.041   5.932  10.235 -0.0998  0.7079 -0.4829
   66CHL1    C6 7299   4.948   5.843  10.187 -1.1948 -0.2269  0.2300
   66CHL1    H6 7300   4.909   5.760  10.249  0.0791 -1.5513 -0.6568
   66CHL1    C7 7301   4.913   5.834  10.038 -0.0104 -0.9607 -0.4160
   66CHL1   H7A 7302   4.924   5.733   9.993  0.2364 -0.0385 -2.5361
   66CHL1   H7B 7303   4.809   5.870  10.020 -0.6799 -0.9142  2.8780
   66CHL1    C8 7304   5.025   5.913   9.950  0.1917  0.1694 -0.5507
   66CHL1    H8 7305   5.118   5.852   9.941 -0.1838 -0.3443 -1.0366
   66CHL1   C14 7306   4.975   5.931   9.808  0.4094 -0.1044  0.0259
   66CHL1   H14 7307   4.896   6.008   9.820  0.7716  0.3673 -0.5586
   66CHL1   C15 7308   4.915   5.813   9.730  0.1079 -0.0513 -0.3218
   66CHL1  H15A 7309   4.979   5.724   9.747 -0.3457 -0.4142 -0.4892
   66CHL1  H15B 7310   4.811   5.780   9.751 -0.3305  1.7318  0.4924
   66CHL1   C16 7311   4.923   5.865   9.584 -0.0903  0.0923 -0.4325
   66CHL1  H16A 7312   4.960   5.787   9.514 -0.0253 -0.2175 -0.0551
   66CHL1  H16B 7313   4.819   5.884   9.552  0.4139 -0.1309 -2.3010
   66CHL1   C17 7314   5.009   5.999   9.585  0.1111  0.1667  0.4877
   66CHL1   H17 7315   4.938   6.083   9.599  1.9258  1.9775 -0.6072
   66CHL1   C13 7316   5.083   5.986   9.715 -0.4148 -0.2690 -0.5596
   66CHL1   C18 7317   5.212   5.896   9.692  0.3078 -0.0574 -0.0085
   66CHL1  H18A 7318   5.256   5.863   9.789 -0.7771 -3.9598 -0.6514
   66CHL1  H18B 7319   5.185   5.802   9.639  0.3780 -0.0659 -0.0289
   66CHL1  H18C 7320   5.286   5.953   9.632 -1.2636  1.6832 -0.3868
   66CHL1   C12 7321   5.121   6.131   9.769 -0.2207  0.4665 -0.3229
   66CHL1  H12A 7322   5.199   6.183   9.710 -1.2726  1.0495 -1.2430
   66CHL1  H12B 7323   5.032   6.197   9.772  0.6893  1.8066 -1.4855
   66CHL1   C11 7324   5.171   6.112   9.918 -0.0859 -0.0209  0.0645
   66CHL1  H11A 7325   5.270   6.063   9.915 -0.1510 -0.3388  1.8916
   66CHL1  H11B 7326   5.188   6.214   9.958 -0.0117  0.9965 -2.3502
   66CHL1    C9 7327   5.072   6.047  10.013  0.5319 -0.0361  0.5283
   66CHL1    H9 7328   4.979   6.109  10.011  0.9008  0.5401 -1.3396
   66CHL1   C10 7329   5.122   6.030  10.161  0.8043 -0.0299  0.1622
   66CHL1   C19 7330   5.264   5.970  10.160  0.6801 -0.0772  0.3758
   66CHL1  H19A 7331   5.308   5.976  10.262  0.6811 -1.1105  0.4438
   66CHL1  H19B 7332   5.273   5.867  10.121 -1.7551 -0.6060  1.0917
   66CHL1  H19C 7333   5.338   6.042  10.119  2.4678 -1.8373  0.3629
   66CHL1    C1 7334   5.116   6.175  10.222  0.2201  0.4439 -0.5866
   66CHL1   H1A 7335   5.196   6.233  10.171  0.2653 -0.6379 -1.7955
   66CHL1   H1B 7336   5.014   6.220  10.218 -0.0273 -0.0555  0.0157
   66CHL1    C2 7337   5.158   6.172  10.374  0.4618 -0.5773  0.5102
   66CHL1   H2A 7338   5.135   6.272  10.416  0.8426 -0.4462  0.4059
   66CHL1   H2B 7339   5.262   6.134  10.379  0.5374 -1.8401 -4.6228
   66CHL1   C20 7340   5.070   6.031   9.448  0.6236 -0.3523  0.7163
   66CHL1   H20 7341   5.147   5.955   9.422  0.6339  0.4183 -1.7783
   66CHL1   C21 7342   5.134   6.172   9.457 -0.0240  0.0402 -0.0658
   66CHL1  H21A 7343   5.160   6.216   9.359 -0.7621  2.1930  0.6451
   66CHL1  H21B 7344   5.228   6.157   9.516 -0.6236 -2.2499  0.4129
   66CHL1  H21C 7345   5.065   6.237   9.514 -0.8294 -0.5842 -0.3111
   66CHL1   C22 7346   4.971   6.023   9.330  0.4160 -0.7730 -0.3030
   66CHL1  H22A 7347   4.893   5.949   9.356 -1.6437  1.1895 -0.5603
   66CHL1  H22B 7348   4.917   6.120   9.326 -1.5488 -1.8509 -1.2950
   66CHL1   C23 7349   5.048   6.018   9.191  0.4569 -0.1651  0.4664
   66CHL1  H23A 7350   5.112   6.109   9.193 -0.3816  0.4639  3.2857
   66CHL1  H23B 7351   5.107   5.926   9.173 -0.7172 -0.7348 -0.6315
   66CHL1   C24 7352   4.952   6.043   9.078 -0.2426  0.1508  0.0312
   66CHL1  H24A 7353   4.863   5.977   9.080  0.5643 -0.9847  2.2245
   66CHL1  H24B 7354   4.913   6.145   9.098 -0.9108 -0.1810  0.4448
   66CHL1   C25 7355   5.031   6.048   8.943  0.6136  0.1540 -0.6609
   66CHL1   H25 7356   5.089   5.953   8.938 -1.5934 -1.3376  0.4858
   66CHL1   C26 7357   4.927   6.049   8.823 -0.5937  0.1835  0.2126
   66CHL1  H26A 7358   4.863   5.958   8.823  0.8263 -0.8566  1.3975
   66CHL1  H26B 7359   4.858   6.131   8.851 -0.5012  1.0549 -1.9124
   66CHL1  H26C 7360   4.970   6.067   8.722 -2.1301  0.5236 -0.4090
   66CHL1   C27 7361   5.125   6.168   8.932  0.1019  0.5400  0.2471
   66CHL1  H27A 7362   5.072   6.263   8.956  0.0024  0.1804  1.5163
   66CHL1  H27B 7363   5.215   6.158   8.996  0.0205  0.3538  0.3324
   66CHL1  H27C 7364   5.167   6.192   8.832 -4.4065  2.1544 -1.5384
   67CHL1    C3 7365   2.821   4.632  10.169  0.4378 -0.5563 -0.2189
   67CHL1    H3 7366   2.812   4.737  10.135 -2.8849 -0.8098 -0.4633
   67CHL1    O3 7367   2.818   4.638  10.313 -0.2223  0.1097 -0.1932
   67CHL1   H3' 7368   2.724   4.642  10.334 -0.1286 -1.1433  0.5917
   67CHL1    C4 7369   2.692   4.567  10.120  0.5870  0.3315 -0.1541
   67CHL1   H4A 7370   2.688   4.469  10.172 -2.9987 -1.3923 -3.1969
   67CHL1   H4B 7371   2.619   4.639  10.163  2.6030  0.8430  2.6552
   67CHL1    C5 7372   2.680   4.550   9.973  0.1561  0.2918  0.1159
   67CHL1    C6 7373   2.563   4.591   9.912  1.1684  1.0307  0.1203
   67CHL1    H6 7374   2.484   4.643   9.968 -0.7037 -0.6762 -0.8270
   67CHL1    C7 7375   2.553   4.580   9.765  0.5068 -0.4333 -0.0598
   67CHL1   H7A 7376   2.454   4.538   9.741  0.6998 -1.6378  1.1284
   67CHL1   H7B 7377   2.564   4.682   9.724 -2.9597  0.4341  0.8257
   67CHL1    C8 7378   2.654   4.487   9.691 -0.2879 -0.3449  0.4278
   67CHL1    H8 7379   2.631   4.380   9.711 -0.6504 -0.4418 -0.4289
   67CHL1   C14 7380   2.654   4.492   9.539 -0.5675  0.1531  0.1813
   67CHL1   H14 7381   2.680   4.599   9.526  0.8511 -0.2741 -0.7923
   67CHL1   C15 7382   2.521   4.467   9.471 -0.6642  0.4536  0.1916
   67CHL1  H15A 7383   2.473   4.373   9.505  1.9790 -1.3461 -0.7269
   67CHL1  H15B 7384   2.446   4.548   9.487 -1.1397  0.3355 -1.2173
   67CHL1   C16 7385   2.570   4.441   9.324 -0.3976 -0.7155  0.1565
   67CHL1  H16A 7386   2.527   4.356   9.268 -0.1766  1.5451 -3.8163
   67CHL1  H16B 7387   2.536   4.524   9.258 -2.0221 -2.4220 -1.2399
   67CHL1   C17 7388   2.733   4.435   9.327  0.0149 -0.4240 -0.1295
   67CHL1   H17 7389   2.758   4.540   9.305 -2.6655  0.4962  0.7920
   67CHL1   C13 7390   2.768   4.414   9.472  0.4025 -0.4283 -0.5426
   67CHL1   C18 7391   2.746   4.263   9.506 -0.2666  0.4892 -0.6680
   67CHL1  H18A 7392   2.833   4.198   9.482  0.3048  0.1298  1.9904
   67CHL1  H18B 7393   2.739   4.243   9.615  1.3352 -0.0190 -0.6295
   67CHL1  H18C 7394   2.666   4.213   9.448  1.8606 -0.5632 -2.8208
   67CHL1   C12 7395   2.910   4.469   9.527  1.0958 -0.2145  0.0932
   67CHL1  H12A 7396   2.987   4.403   9.482  1.4980  0.4550 -0.2129
   67CHL1  H12B 7397   2.923   4.577   9.503 -1.3171 -0.0951 -1.0236
   67CHL1   C11 7398   2.916   4.451   9.682  0.1388  1.1750  0.5081
   67CHL1  H11A 7399   2.906   4.343   9.703 -1.7558  1.7718  3.2738
   67CHL1  H11B 7400   3.017   4.485   9.712  0.1996  0.9615  0.5447
   67CHL1    C9 7401   2.797   4.523   9.750  0.7547  0.3174  0.1370
   67CHL1    H9 7402   2.807   4.632   9.729 -0.9499  1.5027  4.3642
   67CHL1   C10 7403   2.806   4.499   9.905 -0.6811 -0.3331  0.7413
   67CHL1   C19 7404   2.807   4.353   9.936 -0.5474  0.0977 -0.6247
   67CHL1  H19A 7405   2.788   4.327  10.043  1.3850 -0.3580 -0.3521
   67CHL1  H19B 7406   2.746   4.282   9.876 -0.7439  1.7939 -2.5382
   67CHL1  H19C 7407   2.909   4.320   9.908 -1.3465 -0.7447 -2.7458
   67CHL1    C1 7408   2.941   4.568   9.957  0.6517 -0.1278  0.1421
   67CHL1   H1A 7409   3.024   4.503   9.921  1.3039  1.4444 -1.3215
   67CHL1   H1B 7410   2.943   4.670   9.912  0.0579 -1.1189 -2.3268
   67CHL1    C2 7411   2.950   4.571  10.110  0.4446 -0.5933  0.0366
   67CHL1   H2A 7412   3.041   4.631  10.134  0.7844 -0.0143 -2.3567
   67CHL1   H2B 7413   2.956   4.467  10.148  0.1980 -0.5191  0.2765
   67CHL1   C20 7414   2.789   4.340   9.220  0.2249 -0.2028  0.3313
   67CHL1   H20 7415   2.754   4.236   9.239  0.6040 -0.3094  0.4543
   67CHL1   C21 7416   2.946   4.343   9.207  0.5452 -0.1789  0.5773
   67CHL1  H21A 7417   2.968   4.288   9.113 -2.7333 -1.4222  0.4168
   67CHL1  H21B 7418   2.988   4.290   9.295 -0.2832 -0.5605  0.7518
   67CHL1  H21C 7419   2.991   4.445   9.199  0.6350 -0.1732  1.1128
   67CHL1   C22 7420   2.717   4.372   9.079 -0.1358 -0.5017 -0.1013
   67CHL1  H22A 7421   2.619   4.321   9.085 -0.7087  0.5422 -0.4006
   67CHL1  H22B 7422   2.676   4.475   9.078 -1.2877 -0.9457 -1.2099
   67CHL1   C23 7423   2.795   4.352   8.945 -0.1000 -0.4176 -0.2179
   67CHL1  H23A 7424   2.869   4.433   8.928 -1.2936  0.3909 -1.8175
   67CHL1  H23B 7425   2.838   4.250   8.940 -1.3658 -0.9354 -0.9366
   67CHL1   C24 7426   2.707   4.372   8.822 -0.7044 -0.6015 -0.2563
   67CHL1  H24A 7427   2.615   4.311   8.833 -0.9213 -0.0306  1.4654
   67CHL1  H24B 7428   2.680   4.478   8.837  2.1689  0.0112  1.3368
   67CHL1   C25 7429   2.786   4.348   8.691 -0.0537  0.2141 -0.4679
   67CHL1   H25 7430   2.881   4.401   8.712  1.0060 -1.9913  0.7794
   67CHL1   C26 7431   2.823   4.202   8.667  0.2248 -0.6743  0.3000
   67CHL1  H26A 7432   2.863   4.192   8.564  3.6142 -1.0811  1.5245
   67CHL1  H26B 7433   2.887   4.148   8.740  0.8492 -1.8243 -1.0457
   67CHL1  H26C 7434   2.727   4.147   8.673 -1.8807  2.6444 -0.3163
   67CHL1   C27 7435   2.711   4.401   8.577 -0.6721  0.5004  0.3158
   67CHL1  H27A 7436   2.708   4.511   8.570 -0.9379  0.4709 -0.0527
   67CHL1  H27B 7437   2.764   4.371   8.483 -0.3009  1.0151  0.3540
   67CHL1  H27C 7438   2.607   4.362   8.573 -0.2798 -0.6965  1.2813
   68CHL1    C3 7439   6.798   0.102  10.138  0.2252  0.3143  0.0322
   68CHL1    H3 7440   6.693   0.067  10.122  0.2509  0.5244 -0.6092
   68CHL1    O3 7441   6.821   0.072  10.275 -0.4882 -0.4572 -0.5393
   68CHL1   H3' 7442   6.897   0.123  10.303  1.1815 -1.6505 -2.6068
   68CHL1    C4 7443   6.898   0.031  10.046  0.6956 -0.7579 -0.4866
   68CHL1   H4A 7444   7.003   0.063  10.057  0.3995  0.0815 -0.0156
   68CHL1   H4B 7445   6.903  -0.076  10.072  3.0288 -0.2724  1.3699
   68CHL1    C5 7446   6.871   0.064   9.899  0.4188  0.1728 -0.1487
   68CHL1    C6 7447   6.842  -0.032   9.808 -0.2595 -0.1906 -0.0643
   68CHL1    H6 7448   6.854  -0.138   9.835 -1.6426  0.0971  1.8857
   68CHL1    C7 7449   6.806  -0.000   9.662 -0.0320 -0.1768 -0.7217
   68CHL1   H7A 7450   6.855  -0.076   9.597 -0.0739 -0.7657 -0.0750
   68CHL1   H7B 7451   6.697  -0.013   9.651 -0.1418  0.7298 -0.8094
   68CHL1    C8 7452   6.840   0.142   9.618 -0.4370  0.1436  0.5514
   68CHL1    H8 7453   6.950   0.151   9.612 -0.4040 -0.3278  0.3395
   68CHL1   C14 7454   6.775   0.180   9.477  0.1136  0.2177  0.4504
   68CHL1   H14 7455   6.666   0.176   9.499 -0.5373  0.5705 -2.3865
   68CHL1   C15 7456   6.798   0.097   9.356 -0.0214  0.9450  0.0614
   68CHL1  H15A 7457   6.908   0.095   9.336 -0.3094 -1.6390 -1.7984
   68CHL1  H15B 7458   6.759  -0.007   9.355 -0.8789  1.2606 -0.2070
   68CHL1   C16 7459   6.751   0.183   9.235  0.5415  0.6132 -0.0535
   68CHL1  H16A 7460   6.836   0.171   9.165 -1.1020 -0.9879 -1.8943
   68CHL1  H16B 7461   6.652   0.160   9.190  0.6622  1.3954 -0.7362
   68CHL1   C17 7462   6.720   0.326   9.292  0.2857  0.3145  0.0051
   68CHL1   H17 7463   6.610   0.323   9.308  0.3419  0.6262  0.4756
   68CHL1   C13 7464   6.797   0.328   9.427  0.1674  0.8072 -0.0431
   68CHL1   C18 7465   6.942   0.359   9.411 -0.3193 -0.3123  0.2560
   68CHL1  H18A 7466   6.994   0.298   9.333  1.9247  0.6349  0.9318
   68CHL1  H18B 7467   6.956   0.465   9.382  1.9727 -0.3540  1.0070
   68CHL1  H18C 7468   6.997   0.347   9.506  0.7413 -1.6343 -0.4922
   68CHL1   C12 7469   6.730   0.413   9.535  0.4782 -0.4804 -0.7889
   68CHL1  H12A 7470   6.736   0.519   9.500  0.2084 -0.8722 -2.0756
   68CHL1  H12B 7471   6.621   0.392   9.536  0.2853  0.0966 -3.2808
   68CHL1   C11 7472   6.790   0.395   9.680 -0.4065  0.5707 -0.0253
   68CHL1  H11A 7473   6.896   0.431   9.673 -0.4679  0.8181  0.2840
   68CHL1  H11B 7474   6.742   0.457   9.759  0.9847  0.4601  0.9481
   68CHL1    C9 7475   6.787   0.240   9.723  0.8722 -0.1001  0.5431
   68CHL1    H9 7476   6.681   0.207   9.726  1.1474 -1.1663 -0.9490
   68CHL1   C10 7477   6.851   0.220   9.867 -0.3682  0.6894  0.8304
   68CHL1   C19 7478   6.988   0.288   9.882  0.3941 -0.0826 -0.5557
   68CHL1  H19A 7479   7.057   0.229   9.818  4.6969  1.2406  2.4778
   68CHL1  H19B 7480   6.988   0.395   9.853  0.2918  0.3707  1.0330
   68CHL1  H19C 7481   7.017   0.278   9.988 -3.2868 -0.0378  0.6116
   68CHL1    C1 7482   6.754   0.289   9.968  0.0988  0.2901 -0.0366
   68CHL1   H1A 7483   6.777   0.397   9.953 -0.9632  0.3355 -1.5034
   68CHL1   H1B 7484   6.652   0.250   9.948  0.3432 -0.2645 -0.2132
   68CHL1    C2 7485   6.786   0.248  10.116  0.5123  0.0990 -0.7397
   68CHL1   H2A 7486   6.703   0.292  10.174 -1.4664 -1.9276 -1.8794
   68CHL1   H2B 7487   6.878   0.301  10.149 -0.3520  0.3485  1.3894
   68CHL1   C20 7488   6.742   0.438   9.188 -0.3485 -0.1013 -0.5611
   68CHL1   H20 7489   6.851   0.435   9.165 -0.4187  0.0806 -0.9246
   68CHL1   C21 7490   6.710   0.578   9.247  0.1805 -0.6767 -0.1505
   68CHL1  H21A 7491   6.707   0.661   9.173 -1.4187 -0.3867  0.2075
   68CHL1  H21B 7492   6.786   0.606   9.323  0.1169 -0.7263 -0.0700
   68CHL1  H21C 7493   6.613   0.580   9.300  0.2216  2.9591  0.0222
   68CHL1   C22 7494   6.663   0.428   9.058  0.5312 -0.2652 -0.1624
   68CHL1  H22A 7495   6.641   0.320   9.041 -0.7600 -0.4130  2.0535
   68CHL1  H22B 7496   6.562   0.465   9.084 -0.0765 -0.6830 -1.7830
   68CHL1   C23 7497   6.716   0.505   8.937 -0.1525 -0.0721  0.4008
   68CHL1  H23A 7498   6.662   0.460   8.850 -0.1912 -0.6841  0.7394
   68CHL1  H23B 7499   6.701   0.614   8.953 -0.4577  0.0881 -0.8228
   68CHL1   C24 7500   6.869   0.485   8.908  0.1142 -0.5163 -0.5878
   68CHL1  H24A 7501   6.919   0.541   8.990 -2.2597 -1.8315  1.8905
   68CHL1  H24B 7502   6.895   0.377   8.908  0.2507 -0.4832 -0.1047
   68CHL1   C25 7503   6.915   0.552   8.777  0.8700  0.6736 -0.1521
   68CHL1   H25 7504   6.846   0.521   8.696  0.3238  0.4509  0.3888
   68CHL1   C26 7505   6.903   0.702   8.786 -0.0680 -0.5848  0.6200
   68CHL1  H26A 7506   6.796   0.730   8.782  0.2662  0.7233  0.1567
   68CHL1  H26B 7507   6.947   0.732   8.884 -2.3311  0.4954  1.3817
   68CHL1  H26C 7508   6.959   0.750   8.703 -2.9473  0.2671 -0.9446
   68CHL1   C27 7509   7.057   0.513   8.739 -0.6888 -0.0018 -0.5231
   68CHL1  H27A 7510   7.138   0.562   8.798  0.1454  0.0211 -1.6642
   68CHL1  H27B 7511   7.075   0.408   8.771  2.1096  1.3691  3.1384
   68CHL1  H27C 7512   7.085   0.533   8.634  0.8090 -0.9695 -0.3348
   69CHL1    C3 7513   5.683   6.222   6.732 -0.3315 -0.2529  0.4627
   69CHL1    H3 7514   5.646   6.319   6.772  0.3742 -0.4477  1.6168
   69CHL1    O3 7515   5.691   6.252   6.592 -0.0367 -0.2387 -0.0242
   69CHL1   H3' 7516   5.668   6.165   6.558  1.7301 -1.0747  0.7366
   69CHL1    C4 7517   5.821   6.199   6.790  0.6534  0.2802  0.7160
   69CHL1   H4A 7518   5.858   6.107   6.740 -1.7423 -0.8576  0.9058
   69CHL1   H4B 7519   5.881   6.290   6.768 -0.5513  1.2469  1.3503
   69CHL1    C5 7520   5.808   6.176   6.938 -0.1019 -0.4213  0.2413
   69CHL1    C6 7521   5.871   6.257   7.022 -0.4659  0.2525  0.8328
   69CHL1    H6 7522   5.935   6.337   6.982  0.2536 -0.5048  0.4241
   69CHL1    C7 7523   5.867   6.236   7.168  0.2771  0.4606  0.1600
   69CHL1   H7A 7524   5.971   6.244   7.204  0.3421 -2.2434  0.7949
   69CHL1   H7B 7525   5.795   6.311   7.207  0.7211 -0.5228  3.1360
   69CHL1    C8 7526   5.812   6.097   7.214 -1.5278  0.6278 -0.3576
   69CHL1    H8 7527   5.885   6.019   7.184 -0.9106  1.1462 -0.2202
   69CHL1   C14 7528   5.784   6.097   7.363 -0.2400 -0.4117  0.1566
   69CHL1   H14 7529   5.715   6.183   7.372  1.9844  1.3651  1.5738
   69CHL1   C15 7530   5.903   6.125   7.458  0.6777  0.1075 -0.6075
   69CHL1  H15A 7531   5.987   6.057   7.433  0.5166  0.3397 -1.8506
   69CHL1  H15B 7532   5.946   6.226   7.446  2.2404 -0.5749 -0.9475
   69CHL1   C16 7533   5.857   6.077   7.602 -0.3329  0.2870  0.1512
   69CHL1  H16A 7534   5.926   6.007   7.654 -0.9743  0.2370  0.9657
   69CHL1  H16B 7535   5.847   6.169   7.664 -0.2517  1.5396 -1.6428
   69CHL1   C17 7536   5.724   6.010   7.574  0.3160  0.4093 -0.1101
   69CHL1   H17 7537   5.649   6.087   7.602 -0.0189 -0.4306  1.3938
   69CHL1   C13 7538   5.714   5.972   7.421 -0.0123  0.1629 -0.4792
   69CHL1   C18 7539   5.799   5.849   7.390  0.6095  0.1599  0.3712
   69CHL1  H18A 7540   5.842   5.849   7.288  1.7739 -0.2274  0.8412
   69CHL1  H18B 7541   5.889   5.843   7.455 -0.1923  0.7301  1.5782
   69CHL1  H18C 7542   5.743   5.754   7.404 -0.4422  0.7477  0.2328
   69CHL1   C12 7543   5.578   5.963   7.350  0.5078  0.1343  0.0939
   69CHL1  H12A 7544   5.514   5.877   7.378 -1.3010  1.5350  0.4146
   69CHL1  H12B 7545   5.513   6.051   7.368 -2.2411 -1.8143  0.2424
   69CHL1   C11 7546   5.597   5.948   7.195 -1.0184  0.1777 -0.0724
   69CHL1  H11A 7547   5.647   5.850   7.181 -0.0463  0.3158  2.1061
   69CHL1  H11B 7548   5.496   5.936   7.151 -0.9472  1.8213 -0.7735
   69CHL1    C9 7549   5.677   6.067   7.137 -0.3892 -0.8817  0.5158
   69CHL1    H9 7550   5.610   6.154   7.154 -1.2667 -1.1784 -1.2103
   69CHL1   C10 7551   5.704   6.063   6.983 -0.4446 -0.2362  0.5829
   69CHL1   C19 7552   5.767   5.932   6.942  0.1782 -0.8642  0.1441
   69CHL1  H19A 7553   5.703   5.842   6.955  0.2873 -0.9643 -0.0003
   69CHL1  H19B 7554   5.781   5.937   6.832 -1.2894  0.1316 -0.0268
   69CHL1  H19C 7555   5.866   5.914   6.988  0.5441 -0.8053 -0.6017
   69CHL1    C1 7556   5.571   6.094   6.906  0.1501 -1.1013 -0.6135
   69CHL1   H1A 7557   5.494   6.016   6.923 -0.0264 -0.5536  1.2661
   69CHL1   H1B 7558   5.525   6.185   6.950  1.0245  0.0487 -1.9665
   69CHL1    C2 7559   5.593   6.108   6.752 -0.2280 -0.6062 -0.5083
   69CHL1   H2A 7560   5.496   6.127   6.701 -2.0901 -0.3006  2.8351
   69CHL1   H2B 7561   5.633   6.015   6.706  0.2185  0.3069 -2.0142
   69CHL1   C20 7562   5.699   5.893   7.673 -0.8453 -0.1402  0.1041
   69CHL1   H20 7563   5.770   5.812   7.647  1.2489  1.0359  1.9079
   69CHL1   C21 7564   5.562   5.833   7.645  0.7686  0.0599 -0.6544
   69CHL1  H21A 7565   5.558   5.768   7.555 -1.0365 -0.2886 -0.3660
   69CHL1  H21B 7566   5.487   5.916   7.643 -1.8371 -2.1335  0.0768
   69CHL1  H21C 7567   5.521   5.772   7.728 -0.5158 -0.0406 -1.3259
   69CHL1   C22 7568   5.713   5.923   7.825 -0.9281 -0.5995  0.1509
   69CHL1  H22A 7569   5.684   5.831   7.879 -1.6947 -1.5042 -1.7251
   69CHL1  H22B 7570   5.819   5.948   7.850 -1.9672  3.2876  1.4845
   69CHL1   C23 7571   5.633   6.045   7.886  0.3197 -0.0214  1.1769
   69CHL1  H23A 7572   5.634   6.138   7.825 -4.5390  0.7271  1.8548
   69CHL1  H23B 7573   5.526   6.014   7.881  0.4803 -1.0682  3.1966
   69CHL1   C24 7574   5.663   6.072   8.028  0.6174  0.2150  0.2393
   69CHL1  H24A 7575   5.641   5.985   8.094  0.0422 -0.5120 -0.8860
   69CHL1  H24B 7576   5.771   6.095   8.039  0.1592  1.6687  2.3869
   69CHL1   C25 7577   5.613   6.208   8.081  0.6750  0.1820 -0.3310
   69CHL1   H25 7578   5.507   6.217   8.050  0.4966  0.1630  0.2645
   69CHL1   C26 7579   5.609   6.216   8.234 -0.3194 -0.0315 -0.0523
   69CHL1  H26A 7580   5.707   6.192   8.281  0.3943  2.2693 -0.2614
   69CHL1  H26B 7581   5.584   6.320   8.263  2.3949  0.4602  0.7621
   69CHL1  H26C 7582   5.534   6.144   8.274 -1.2323  0.8006 -0.2288
   69CHL1   C27 7583   5.688   6.334   8.036  0.7277 -0.5298  0.4944
   69CHL1  H27A 7584   5.715   6.318   7.930 -1.1820 -0.2127 -0.0661
   69CHL1  H27B 7585   5.612   6.414   8.046 -0.5649 -1.7700  0.9013
   69CHL1  H27C 7586   5.774   6.343   8.107 -0.0368  1.3654  1.2545
   70CHL1    C3 7587   4.351   1.287   6.999 -0.1163 -0.6193  0.6843
   70CHL1    H3 7588   4.453   1.331   7.013  1.7699 -4.4605  0.4152
   70CHL1    O3 7589   4.329   1.297   6.855  0.2161  0.1731  0.3772
   70CHL1   H3' 7590   4.242   1.258   6.843  0.0608  0.5928  0.1176
   70CHL1    C4 7591   4.356   1.142   7.040  0.0483  0.2748  0.0232
   70CHL1   H4A 7592   4.253   1.107   7.021  0.7450 -2.1935  0.5087
   70CHL1   H4B 7593   4.422   1.098   6.963 -0.8534 -0.3644 -0.4016
   70CHL1    C5 7594   4.387   1.116   7.190  0.1121  0.3452 -0.1537
   70CHL1    C6 7595   4.483   1.030   7.230  0.0256  0.4307 -0.4846
   70CHL1    H6 7596   4.545   0.981   7.154  1.3527  0.1175  0.7361
   70CHL1    C7 7597   4.525   0.995   7.369 -0.1966  0.2668  0.3216
   70CHL1   H7A 7598   4.557   0.889   7.378  1.2175  0.5228 -1.2120
   70CHL1   H7B 7599   4.615   1.055   7.395 -0.4986  2.7950 -3.7144
   70CHL1    C8 7600   4.418   1.035   7.473  0.4589  0.0372  0.0808
   70CHL1    H8 7601   4.336   0.961   7.466 -0.7467  1.3925 -0.5642
   70CHL1   C14 7602   4.468   1.033   7.616 -0.0520  0.0286 -0.7385
   70CHL1   H14 7603   4.553   1.105   7.617  2.1219 -2.3865 -0.0658
   70CHL1   C15 7604   4.530   0.894   7.671  0.3202 -0.1212 -1.1860
   70CHL1  H15A 7605   4.458   0.818   7.633  0.9291 -0.8492 -0.9178
   70CHL1  H15B 7606   4.625   0.854   7.630  0.2136 -2.3962  0.5222
   70CHL1   C16 7607   4.526   0.917   7.822  0.1292  0.1369 -0.3371
   70CHL1  H16A 7608   4.458   0.851   7.880  0.8147 -0.0880  0.2227
   70CHL1  H16B 7609   4.633   0.915   7.854  0.5046  2.2886 -1.2637
   70CHL1   C17 7610   4.467   1.061   7.849  0.1405 -0.7433  0.3461
   70CHL1   H17 7611   4.549   1.135   7.842 -0.5453 -0.0164 -0.2782
   70CHL1   C13 7612   4.372   1.086   7.720 -0.4407  0.0011 -0.4925
   70CHL1   C18 7613   4.246   0.991   7.737  0.4817 -0.5336  0.2430
   70CHL1  H18A 7614   4.162   1.045   7.786  0.5732 -0.8499  0.7635
   70CHL1  H18B 7615   4.198   0.969   7.639 -0.5839  1.8059  0.1718
   70CHL1  H18C 7616   4.267   0.896   7.792  0.3934 -0.9773 -0.4728
   70CHL1   C12 7617   4.326   1.235   7.686  0.7136  0.6636 -0.5779
   70CHL1  H12A 7618   4.238   1.257   7.751  1.0171  0.0412  0.0724
   70CHL1  H12B 7619   4.408   1.308   7.704  0.3298  1.7274 -2.8485
   70CHL1   C11 7620   4.272   1.244   7.542 -1.0425  0.4250 -0.3753
   70CHL1  H11A 7621   4.176   1.189   7.540  0.0178 -1.5076 -0.1978
   70CHL1  H11B 7622   4.250   1.351   7.520  2.4748  2.0668  2.8145
   70CHL1    C9 7623   4.369   1.176   7.436  0.1847  0.1700 -0.5092
   70CHL1    H9 7624   4.466   1.230   7.438  1.0491 -1.3099 -1.0365
   70CHL1   C10 7625   4.307   1.197   7.285  0.0537 -0.4250 -0.6166
   70CHL1   C19 7626   4.163   1.142   7.285  0.1586 -0.5406  0.4275
   70CHL1  H19A 7627   4.123   1.112   7.186 -0.1797  1.5735 -0.1255
   70CHL1  H19B 7628   4.160   1.047   7.341  4.0923 -2.2275 -1.8118
   70CHL1  H19C 7629   4.106   1.219   7.341  2.2482 -0.6675  2.9255
   70CHL1    C1 7630   4.312   1.346   7.238 -0.0795 -0.3974 -0.5302
   70CHL1   H1A 7631   4.257   1.407   7.313 -0.0973 -0.0747 -0.8041
   70CHL1   H1B 7632   4.421   1.368   7.247  0.1444 -1.6380  0.0192
   70CHL1    C2 7633   4.261   1.364   7.100 -0.1870 -0.1046  0.5168
   70CHL1   H2A 7634   4.256   1.471   7.069  2.2340  1.1321  3.7622
   70CHL1   H2B 7635   4.158   1.324   7.096 -0.4915  0.6387  0.6729
   70CHL1   C20 7636   4.409   1.071   7.988 -0.0567 -0.4292  0.1097
   70CHL1   H20 7637   4.319   1.008   8.007 -0.8904  0.8487  0.5884
   70CHL1   C21 7638   4.365   1.219   8.006 -0.3036 -0.0284  0.0626
   70CHL1  H21A 7639   4.428   1.300   7.964  0.3746 -0.6538 -0.1702
   70CHL1  H21B 7640   4.362   1.239   8.116 -1.0032 -2.6489  0.6066
   70CHL1  H21C 7641   4.271   1.231   7.949  1.1336  0.1870 -2.4113
   70CHL1   C22 7642   4.512   1.031   8.098 -0.0416 -0.4107 -0.7268
   70CHL1  H22A 7643   4.474   1.053   8.200  0.8764  1.5409 -0.7477
   70CHL1  H22B 7644   4.522   0.921   8.098 -2.4260 -0.9260  4.4840
   70CHL1   C23 7645   4.651   1.103   8.093  0.2599 -0.4397  0.3617
   70CHL1  H23A 7646   4.721   1.033   8.041  0.1400  0.0483 -0.4817
   70CHL1  H23B 7647   4.652   1.189   8.023 -1.0597  0.1250  1.0167
   70CHL1   C24 7648   4.698   1.163   8.228  0.1443  0.3340 -0.5921
   70CHL1  H24A 7649   4.609   1.215   8.271  0.7323 -0.7600  2.1549
   70CHL1  H24B 7650   4.723   1.084   8.302 -1.0147  0.2765 -0.2347
   70CHL1   C25 7651   4.821   1.247   8.215 -0.8245 -0.1967  0.1167
   70CHL1   H25 7652   4.806   1.328   8.141  2.3738  0.0661 -0.3635
   70CHL1   C26 7653   4.847   1.319   8.347  0.1459 -0.4087  0.6779
   70CHL1  H26A 7654   4.840   1.246   8.430 -0.4296 -1.2717 -0.1145
   70CHL1  H26B 7655   4.946   1.369   8.351 -1.2114  2.3705  2.2985
   70CHL1  H26C 7656   4.769   1.397   8.364  1.3549  1.2940 -1.1819
   70CHL1   C27 7657   4.950   1.163   8.183 -0.1503  0.2965 -0.3044
   70CHL1  H27A 7658   5.042   1.225   8.193  0.0139  0.3872 -2.0285
   70CHL1  H27B 7659   4.961   1.084   8.261 -0.7782 -0.5456 -1.0485
   70CHL1  H27C 7660   4.945   1.118   8.082 -1.5518 -2.2962  0.8176
   71CHL1    C3 7661   4.260   4.655   6.733  0.9421 -0.1307 -0.5045
   71CHL1    H3 7662   4.323   4.563   6.741  2.3042  0.5805 -2.3272
   71CHL1    O3 7663   4.244   4.687   6.597 -0.3640  0.1982 -0.8366
   71CHL1   H3' 7664   4.183   4.761   6.589 -0.7228 -0.1028 -0.9330
   71CHL1    C4 7665   4.121   4.627   6.795  0.2460 -0.1672  0.4818
   71CHL1   H4A 7666   4.067   4.718   6.763 -0.4562 -1.8324 -3.7014
   71CHL1   H4B 7667   4.064   4.549   6.740  0.0411 -0.2375  0.7890
   71CHL1    C5 7668   4.130   4.605   6.946 -0.4508  0.4219  0.0509
   71CHL1    C6 7669   4.092   4.488   7.005 -0.1173 -0.0249  0.3480
   71CHL1    H6 7670   4.041   4.410   6.947 -1.8756  0.1530  1.5405
   71CHL1    C7 7671   4.093   4.468   7.153  0.2770 -0.5373  0.0315
   71CHL1   H7A 7672   3.990   4.435   7.175 -0.4074  0.3833 -1.6073
   71CHL1   H7B 7673   4.164   4.392   7.191  2.1792  0.6565 -0.9457
   71CHL1    C8 7674   4.105   4.606   7.221  0.2386  0.2185  0.1974
   71CHL1    H8 7675   4.012   4.663   7.203 -0.4254 -1.1105 -0.7618
   71CHL1   C14 7676   4.125   4.582   7.367 -0.5813 -1.5981 -0.3111
   71CHL1   H14 7677   4.212   4.514   7.381  1.1103  0.8408  2.0495
   71CHL1   C15 7678   4.005   4.510   7.439 -0.5358 -0.6455 -0.4276
   71CHL1  H15A 7679   3.910   4.564   7.417 -0.3116 -0.6761 -1.5432
   71CHL1  H15B 7680   4.001   4.405   7.402 -0.6807 -0.7340 -0.1583
   71CHL1   C16 7681   4.043   4.525   7.581 -0.4247 -0.1173 -0.4161
   71CHL1  H16A 7682   3.965   4.576   7.640 -0.3309 -0.1424 -0.2691
   71CHL1  H16B 7683   4.064   4.428   7.632  0.2244 -0.4512 -1.2847
   71CHL1   C17 7684   4.175   4.613   7.591 -0.0196 -0.1937  0.8157
   71CHL1   H17 7685   4.261   4.544   7.575  1.9008  2.2332 -0.1027
   71CHL1   C13 7686   4.163   4.701   7.459  0.5153 -0.7651  0.0170
   71CHL1   C18 7687   4.043   4.798   7.464  0.4185 -0.2118  0.3760
   71CHL1  H18A 7688   3.956   4.751   7.515 -1.3530  2.4565  0.0317
   71CHL1  H18B 7689   4.063   4.896   7.512 -1.2974  1.0142 -1.2679
   71CHL1  H18C 7690   4.002   4.817   7.363 -2.8256  0.3942  1.6758
   71CHL1   C12 7691   4.285   4.760   7.408  0.3376 -0.4841  0.0040
   71CHL1  H12A 7692   4.321   4.850   7.462 -1.1093 -0.2059  0.5442
   71CHL1  H12B 7693   4.371   4.690   7.415  2.4865  1.9076 -0.9065
   71CHL1   C11 7694   4.270   4.807   7.260  0.1367  0.1503  0.2340
   71CHL1  H11A 7695   4.203   4.895   7.251 -1.4270 -1.0419 -0.2591
   71CHL1  H11B 7696   4.367   4.834   7.215 -0.9591  3.4586 -0.3832
   71CHL1    C9 7697   4.220   4.693   7.165 -0.1304 -0.1095  0.3229
   71CHL1    H9 7698   4.299   4.618   7.184 -1.3099 -0.8287  2.7413
   71CHL1   C10 7699   4.201   4.727   7.018  0.6729 -0.0742 -0.2874
   71CHL1   C19 7700   4.102   4.849   7.012  1.0524  0.2223  0.2987
   71CHL1  H19A 7701   4.093   4.885   6.907  1.1286  2.6420  1.0661
   71CHL1  H19B 7702   4.000   4.828   7.051  0.6639  0.2153 -0.6858
   71CHL1  H19C 7703   4.144   4.934   7.069 -0.6863  0.2389  1.6543
   71CHL1    C1 7704   4.340   4.761   6.951 -0.0010 -0.2245 -0.1864
   71CHL1   H1A 7705   4.372   4.860   6.990  1.7839  0.2914 -2.6702
   71CHL1   H1B 7706   4.424   4.692   6.975  1.8880  1.7771 -0.7134
   71CHL1    C2 7707   4.334   4.769   6.796 -0.4053 -0.3822 -0.2051
   71CHL1   H2A 7708   4.437   4.767   6.753 -0.4860  0.9438 -0.5020
   71CHL1   H2B 7709   4.280   4.864   6.776  0.7147  0.7634  1.8497
   71CHL1   C20 7710   4.194   4.692   7.717 -0.4894 -0.8082 -1.2037
   71CHL1   H20 7711   4.150   4.793   7.704  0.3412 -0.1687  0.6636
   71CHL1   C21 7712   4.342   4.710   7.739  0.2968 -0.4698 -0.6877
   71CHL1  H21A 7713   4.363   4.770   7.831 -2.3201  1.7761 -1.4135
   71CHL1  H21B 7714   4.392   4.766   7.657 -0.7095  1.4644 -0.0557
   71CHL1  H21C 7715   4.397   4.617   7.764  1.5785  0.7658  1.3668
   71CHL1   C22 7716   4.136   4.621   7.845 -0.4157  0.0652 -0.8913
   71CHL1  H22A 7717   4.029   4.596   7.834 -0.6443  1.0924 -1.0601
   71CHL1  H22B 7718   4.196   4.528   7.858 -0.6562 -0.2443 -1.9245
   71CHL1   C23 7719   4.150   4.699   7.974 -0.4630  0.1699  1.0167
   71CHL1  H23A 7720   4.258   4.715   7.994  0.1238 -2.0320 -0.0098
   71CHL1  H23B 7721   4.097   4.796   7.962 -0.4920  0.0732  0.3138
   71CHL1   C24 7722   4.093   4.635   8.103  0.2317 -0.5242  0.6673
   71CHL1  H24A 7723   4.077   4.715   8.178 -2.6779  0.4948 -0.8776
   71CHL1  H24B 7724   3.994   4.591   8.079  0.9088 -0.9543 -1.5990
   71CHL1   C25 7725   4.177   4.527   8.172 -0.3223 -0.0619 -0.3223
   71CHL1   H25 7726   4.227   4.459   8.099  0.1216 -1.8136  1.5132
   71CHL1   C26 7727   4.283   4.590   8.259 -0.1792 -0.7466  0.0903
   71CHL1  H26A 7728   4.247   4.632   8.356 -0.0184 -0.5945  0.0862
   71CHL1  H26B 7729   4.362   4.527   8.305  1.3383  1.3905  0.5990
   71CHL1  H26C 7730   4.346   4.666   8.208 -2.0572  0.3109 -0.7619
   71CHL1   C27 7731   4.092   4.439   8.270  0.1431  0.5075 -0.1872
   71CHL1  H27A 7732   4.032   4.497   8.342 -1.3158 -0.5490 -0.5099
   71CHL1  H27B 7733   4.020   4.380   8.210  2.6135 -1.5295 -1.3740
   71CHL1  H27C 7734   4.156   4.365   8.322 -1.2515 -0.0763  0.7442
   72CHL1    C3 7735   4.488   3.265   6.938  0.5335 -0.1336  0.3992
   72CHL1    H3 7736   4.532   3.163   6.931 -0.0873 -0.4563  1.0490
   72CHL1    O3 7737   4.488   3.325   6.811 -0.2246 -0.7299  0.0228
   72CHL1   H3' 7738   4.422   3.282   6.756 -0.4798 -1.0203  0.5565
   72CHL1    C4 7739   4.337   3.228   6.972 -0.1245  0.3186 -0.0584
   72CHL1   H4A 7740   4.270   3.316   6.963 -2.3579 -1.1691  1.0786
   72CHL1   H4B 7741   4.295   3.159   6.896  2.2561 -0.8969 -0.3567
   72CHL1    C5 7742   4.329   3.160   7.105  0.3097 -0.2480 -0.2998
   72CHL1    C6 7743   4.280   3.038   7.119 -0.1775 -0.2409  0.4380
   72CHL1    H6 7744   4.236   2.993   7.029  1.3544  0.7201 -0.8574
   72CHL1    C7 7745   4.272   2.965   7.253  0.2299  0.7638 -0.9053
   72CHL1   H7A 7746   4.180   2.908   7.278  0.5411  1.5696  2.6859
   72CHL1   H7B 7747   4.358   2.899   7.281 -1.3992 -0.5542  1.3384
   72CHL1    C8 7748   4.294   3.060   7.372  0.5037 -0.4034 -0.0056
   72CHL1    H8 7749   4.203   3.117   7.401  0.0066 -2.0173  1.8370
   72CHL1   C14 7750   4.324   2.970   7.501  0.5641  0.4530 -0.0156
   72CHL1   H14 7751   4.424   2.924   7.489  0.4283  0.4361 -1.1853
   72CHL1   C15 7752   4.231   2.866   7.544  0.4919  0.0669 -0.5687
   72CHL1  H15A 7753   4.128   2.902   7.523  0.8708  2.6609  1.6299
   72CHL1  H15B 7754   4.263   2.784   7.476  2.2179 -1.1520  1.5683
   72CHL1   C16 7755   4.266   2.825   7.692  0.5224  0.2432 -0.3106
   72CHL1  H16A 7756   4.172   2.818   7.751  0.2561 -1.9995 -0.9193
   72CHL1  H16B 7757   4.320   2.728   7.700  0.8577  0.4490 -0.0574
   72CHL1   C17 7758   4.349   2.940   7.749  0.1171  0.5010  0.2551
   72CHL1   H17 7759   4.455   2.911   7.731  0.0409  0.5725 -0.3567
   72CHL1   C13 7760   4.338   3.049   7.636 -0.4913  0.1505 -0.3430
   72CHL1   C18 7761   4.206   3.132   7.663  0.5627 -0.0646 -0.8231
   72CHL1  H18A 7762   4.220   3.193   7.755 -0.2883 -1.0627 -0.0164
   72CHL1  H18B 7763   4.188   3.202   7.578 -0.4391 -0.2984 -0.8058
   72CHL1  H18C 7764   4.114   3.073   7.681  0.3167  0.3219 -0.8031
   72CHL1   C12 7765   4.466   3.137   7.613  0.0362  0.6786 -0.2510
   72CHL1  H12A 7766   4.491   3.200   7.701  0.3113  0.2278 -0.0000
   72CHL1  H12B 7767   4.556   3.074   7.596 -1.2290 -0.8665 -1.4712
   72CHL1   C11 7768   4.455   3.220   7.486 -0.5294 -0.3777 -0.0509
   72CHL1  H11A 7769   4.370   3.288   7.511  0.3933  0.2347  1.5706
   72CHL1  H11B 7770   4.551   3.273   7.471 -2.1960  2.3213 -2.2536
   72CHL1    C9 7771   4.420   3.148   7.355  0.1897 -0.0732  0.2971
   72CHL1    H9 7772   4.505   3.079   7.339 -0.0320 -0.0495 -1.0506
   72CHL1   C10 7773   4.401   3.235   7.224 -0.0775  0.5332 -1.2967
   72CHL1   C19 7774   4.309   3.350   7.253 -0.1715  0.2112  0.2139
   72CHL1  H19A 7775   4.353   3.421   7.326 -3.8286  0.4740  2.4055
   72CHL1  H19B 7776   4.270   3.411   7.169  0.6798  1.4042  0.6706
   72CHL1  H19C 7777   4.221   3.305   7.303 -0.4768 -0.0272 -0.5258
   72CHL1    C1 7778   4.547   3.269   7.182 -0.5341 -0.4248 -0.1324
   72CHL1   H1A 7779   4.597   3.336   7.256  2.3534 -2.1791 -0.3409
   72CHL1   H1B 7780   4.617   3.183   7.169  0.1645  0.0225  0.5225
   72CHL1    C2 7781   4.551   3.343   7.053 -0.2422 -0.0714  0.3901
   72CHL1   H2A 7782   4.656   3.356   7.022 -0.6704  0.4902 -0.8751
   72CHL1   H2B 7783   4.507   3.445   7.056 -1.6645 -0.6758  2.0112
   72CHL1   C20 7784   4.333   2.978   7.900 -0.0699  0.8950  0.1699
   72CHL1   H20 7785   4.228   3.009   7.917 -0.3404  1.3859 -2.1569
   72CHL1   C21 7786   4.424   3.092   7.934 -0.4237  0.7195 -0.0543
   72CHL1  H21A 7787   4.401   3.179   7.869 -1.7124  1.8061  1.7409
   72CHL1  H21B 7788   4.528   3.063   7.910 -0.3568 -1.5049  2.4035
   72CHL1  H21C 7789   4.407   3.124   8.039  0.2021 -2.1455  1.0063
   72CHL1   C22 7790   4.363   2.853   7.991 -0.2489  0.4326 -0.4438
   72CHL1  H22A 7791   4.316   2.763   7.946 -0.5087  1.1285 -1.5843
   72CHL1  H22B 7792   4.473   2.848   7.983 -0.1293  1.2031  0.4835
   72CHL1   C23 7793   4.310   2.856   8.138  0.0272  0.4370  0.1344
   72CHL1  H23A 7794   4.370   2.936   8.187 -0.5095  0.4227  0.8251
   72CHL1  H23B 7795   4.205   2.891   8.129 -0.4480 -1.2697 -1.4796
   72CHL1   C24 7796   4.315   2.717   8.203 -0.1431 -0.5748  0.0587
   72CHL1  H24A 7797   4.267   2.721   8.303  0.1987 -0.5390  0.2259
   72CHL1  H24B 7798   4.244   2.650   8.150 -1.9872  1.6548 -0.4490
   72CHL1   C25 7799   4.456   2.647   8.213 -0.5541 -0.2562  0.2417
   72CHL1   H25 7800   4.496   2.651   8.109  0.5873  0.5872  0.6916
   72CHL1   C26 7801   4.556   2.723   8.302  0.4250 -0.1456  0.2091
   72CHL1  H26A 7802   4.566   2.825   8.260 -0.7425  0.3919  1.1873
   72CHL1  H26B 7803   4.511   2.749   8.399 -0.6037  0.2694 -0.3666
   72CHL1  H26C 7804   4.652   2.668   8.313  1.2418  0.8427 -1.5106
   72CHL1   C27 7805   4.430   2.503   8.267 -1.1194  0.3481  0.4613
   72CHL1  H27A 7806   4.515   2.434   8.251 -0.8410  0.4676  1.3840
   72CHL1  H27B 7807   4.409   2.508   8.376  2.7666  1.3248  1.3151
   72CHL1  H27C 7808   4.340   2.457   8.221 -2.0174  1.3854  1.1254
   73CHL1    C3 7809   5.098   6.411   6.901  0.1062  0.4566 -0.7045
   73CHL1    H3 7810   5.192   6.469   6.915 -0.0775  0.6358 -0.2163
   73CHL1    O3 7811   5.074   6.407   6.757  0.0020 -0.0502 -0.1700
   73CHL1   H3' 7812   5.129   6.340   6.716  0.6190  0.7373 -0.6615
   73CHL1    C4 7813   5.113   6.265   6.954 -0.5023  0.5713  0.3145
   73CHL1   H4A 7814   5.017   6.217   6.925  0.5480 -2.5596  1.6158
   73CHL1   H4B 7815   5.197   6.220   6.897 -1.3778 -0.8282  0.0802
   73CHL1    C5 7816   5.130   6.245   7.101 -0.6737 -0.2196 -0.3871
   73CHL1    C6 7817   5.242   6.192   7.158 -0.6314  0.3320 -0.2797
   73CHL1    H6 7818   5.319   6.164   7.084 -0.5530 -1.4838  0.4399
   73CHL1    C7 7819   5.274   6.174   7.301 -0.1247  0.2484 -0.0843
   73CHL1   H7A 7820   5.318   6.074   7.319  2.3218  1.2588 -0.0034
   73CHL1   H7B 7821   5.350   6.248   7.335  0.6418 -1.1405  1.3147
   73CHL1    C8 7822   5.153   6.201   7.391  1.0171 -0.6505  0.5283
   73CHL1    H8 7823   5.079   6.120   7.378 -1.1952  1.5181 -1.4822
   73CHL1   C14 7824   5.186   6.228   7.537  0.0448 -0.4957  0.0611
   73CHL1   H14 7825   5.247   6.322   7.539 -0.1670 -0.3210 -1.1045
   73CHL1   C15 7826   5.276   6.121   7.614  0.5006 -0.8081  0.3636
   73CHL1  H15A 7827   5.237   6.022   7.583 -1.1820 -0.5270  1.4874
   73CHL1  H15B 7828   5.385   6.128   7.593  0.1631  1.9791 -0.8412
   73CHL1   C16 7829   5.246   6.149   7.764 -0.8397  0.0933  0.6225
   73CHL1  H16A 7830   5.233   6.051   7.815  3.9064 -1.3814 -0.5328
   73CHL1  H16B 7831   5.342   6.188   7.804 -0.0971 -0.6695 -0.3553
   73CHL1   C17 7832   5.138   6.269   7.769 -0.2147  1.1624 -0.2135
   73CHL1   H17 7833   5.202   6.359   7.776 -1.9399  2.3788  0.4962
   73CHL1   C13 7834   5.066   6.271   7.628  0.0041  0.0702  0.7272
   73CHL1   C18 7835   4.963   6.163   7.623 -0.6868 -0.3339 -0.7947
   73CHL1  H18A 7836   4.875   6.184   7.688 -0.3794 -2.1961  0.3070
   73CHL1  H18B 7837   4.925   6.137   7.522 -0.4831 -1.0722 -0.6872
   73CHL1  H18C 7838   4.998   6.072   7.677  0.1602  0.4172 -0.0662
   73CHL1   C12 7839   5.013   6.402   7.585  0.2893  0.7449 -0.1608
   73CHL1  H12A 7840   4.920   6.428   7.640  0.9509 -1.2324  2.0398
   73CHL1  H12B 7841   5.094   6.478   7.594  2.5572 -1.5819  0.1575
   73CHL1   C11 7842   4.973   6.397   7.433  0.6058 -0.9311 -0.1222
   73CHL1  H11A 7843   4.876   6.342   7.428 -0.6196  1.0473  0.4147
   73CHL1  H11B 7844   4.952   6.500   7.396  1.0368 -0.6332  0.4528
   73CHL1    C9 7845   5.074   6.328   7.339 -0.6840 -0.7891  0.7049
   73CHL1    H9 7846   5.153   6.406   7.334 -1.7878  0.4142  1.5216
   73CHL1   C10 7847   5.019   6.312   7.189 -0.6489 -0.7709 -0.6259
   73CHL1   C19 7848   4.892   6.226   7.190 -0.2051 -0.0544 -0.2113
   73CHL1  H19A 7849   4.805   6.275   7.239 -0.7962 -0.5370 -0.7629
   73CHL1  H19B 7850   4.873   6.207   7.082 -0.8637  0.9110 -0.2749
   73CHL1  H19C 7851   4.906   6.134   7.251  0.4677  0.1449 -0.0615
   73CHL1    C1 7852   4.987   6.459   7.135 -0.3403 -0.0160  0.1774
   73CHL1   H1A 7853   4.883   6.481   7.167  0.0993 -0.4092  2.0140
   73CHL1   H1B 7854   5.058   6.531   7.182  0.5882 -0.7952 -0.0056
   73CHL1    C2 7855   4.983   6.471   6.981  0.0532 -0.3934 -0.2328
   73CHL1   H2A 7856   4.963   6.575   6.946 -3.1606 -0.6677  0.5150
   73CHL1   H2B 7857   4.898   6.405   6.954  0.5130 -0.7962 -0.7008
   73CHL1   C20 7858   5.066   6.278   7.905 -0.1715  0.5068  0.8606
   73CHL1   H20 7859   5.005   6.186   7.919 -0.7427  0.8247  0.5189
   73CHL1   C21 7860   4.979   6.401   7.896  0.4729  0.1106  0.2905
   73CHL1  H21A 7861   4.885   6.383   7.840  0.3992 -0.2852  0.5307
   73CHL1  H21B 7862   5.017   6.486   7.836 -0.1630 -0.4068 -0.8833
   73CHL1  H21C 7863   4.949   6.440   7.995  0.8250 -0.3867  0.6025
   73CHL1   C22 7864   5.165   6.284   8.023  0.2248  0.3387 -0.0224
   73CHL1  H22A 7865   5.229   6.193   8.025  1.0099  0.8398 -1.1384
   73CHL1  H22B 7866   5.237   6.368   8.009  0.0759  0.4641 -0.0328
   73CHL1   C23 7867   5.088   6.280   8.156  0.3874 -0.0858  0.0726
   73CHL1  H23A 7868   5.024   6.369   8.177 -0.4604 -0.6528 -0.0824
   73CHL1  H23B 7869   5.026   6.188   8.155 -2.8566  1.9469 -0.8893
   73CHL1   C24 7870   5.191   6.252   8.272  0.2436 -0.2002 -0.1728
   73CHL1  H24A 7871   5.265   6.171   8.257  0.6593 -0.3044  2.1639
   73CHL1  H24B 7872   5.242   6.351   8.278 -1.3638  0.6204  0.3829
   73CHL1   C25 7873   5.126   6.205   8.404  0.3185  0.3497 -0.0142
   73CHL1   H25 7874   5.025   6.250   8.415 -1.3265 -2.8175 -1.0974
   73CHL1   C26 7875   5.100   6.048   8.403 -0.0992  0.1464  0.2194
   73CHL1  H26A 7876   5.062   6.026   8.505  1.0350  0.2440  0.6870
   73CHL1  H26B 7877   5.033   6.024   8.319  0.7869  0.4620 -0.5976
   73CHL1  H26C 7878   5.200   6.001   8.392  1.1948  2.7604 -0.1613
   73CHL1   C27 7879   5.209   6.253   8.527 -0.7523 -0.0174 -0.8865
   73CHL1  H27A 7880   5.222   6.363   8.523  0.0574 -0.0491  0.4507
   73CHL1  H27B 7881   5.157   6.235   8.624  1.6981  1.8788  0.8751
   73CHL1  H27C 7882   5.311   6.210   8.531 -0.8007 -0.1017 -0.4675
   74CHL1    C3 7883   3.208   5.929   6.929 -0.2043 -0.2649  0.4662
   74CHL1    H3 7884   3.206   6.040   6.928 -0.9378 -0.2740  0.2872
   74CHL1    O3 7885   3.207   5.890   6.788  0.1919 -0.1518 -0.6113
   74CHL1   H3' 7886   3.131   5.936   6.752 -1.1717 -1.6821  0.2060
   74CHL1    C4 7887   3.324   5.862   7.003 -0.0495 -0.9376 -0.0138
   74CHL1   H4A 7888   3.331   5.754   6.977 -0.4502 -0.5855 -1.7443
   74CHL1   H4B 7889   3.420   5.902   6.963  1.0227 -1.0497  2.2791
   74CHL1    C5 7890   3.329   5.884   7.157  0.3192 -0.4843  0.6921
   74CHL1    C6 7891   3.427   5.946   7.226  0.2215  0.6283  0.0862
   74CHL1    H6 7892   3.522   5.974   7.179 -0.5060  2.0326 -0.5821
   74CHL1    C7 7893   3.430   5.966   7.376 -1.0266  0.0006  0.3921
   74CHL1   H7A 7894   3.528   5.953   7.426 -0.1514 -3.5299 -1.8627
   74CHL1   H7B 7895   3.389   6.069   7.386  2.3580  1.5266 -0.2689
   74CHL1    C8 7896   3.334   5.874   7.455  0.0253  0.2945 -0.0833
   74CHL1    H8 7897   3.373   5.771   7.444 -1.3242 -0.2045 -0.4609
   74CHL1   C14 7898   3.308   5.928   7.595 -0.3668 -0.9975  0.4532
   74CHL1   H14 7899   3.258   6.026   7.577  2.5213  0.0969 -2.6253
   74CHL1   C15 7900   3.429   5.960   7.683 -0.3143  0.4427  0.1717
   74CHL1  H15A 7901   3.505   5.879   7.679 -0.2462  0.5130  0.0061
   74CHL1  H15B 7902   3.468   6.052   7.634 -0.5232  0.2692 -0.3301
   74CHL1   C16 7903   3.372   5.972   7.825 -1.1919 -0.3793  0.1178
   74CHL1  H16A 7904   3.448   5.914   7.882  0.9383 -0.5534 -2.7021
   74CHL1  H16B 7905   3.370   6.079   7.857  0.4251 -1.0019  2.6708
   74CHL1   C17 7906   3.227   5.906   7.820  0.1937 -0.1195 -0.7731
   74CHL1   H17 7907   3.154   5.990   7.823  0.2039 -0.1254  1.3037
   74CHL1   C13 7908   3.225   5.837   7.679  0.4418 -0.1948 -0.4321
   74CHL1   C18 7909   3.283   5.696   7.701 -0.2498  0.9881  0.6707
   74CHL1  H18A 7910   3.210   5.632   7.756  0.2547 -0.0711  0.1407
   74CHL1  H18B 7911   3.302   5.639   7.607 -0.6800 -2.5739  2.5710
   74CHL1  H18C 7912   3.379   5.709   7.755  0.7874 -1.0651 -0.5138
   74CHL1   C12 7913   3.091   5.820   7.607  0.3832  0.3303 -0.0085
   74CHL1  H12A 7914   3.021   5.751   7.659  2.2208 -0.7214  1.1780
   74CHL1  H12B 7915   3.039   5.918   7.609 -0.5443 -0.1632  0.4996
   74CHL1   C11 7916   3.101   5.777   7.467  0.1855 -0.5143  0.4693
   74CHL1  H11A 7917   3.140   5.673   7.470  0.4694 -0.4863 -1.1764
   74CHL1  H11B 7918   3.003   5.777   7.414  0.0323  2.9325  0.5457
   74CHL1    C9 7919   3.193   5.867   7.380 -0.2099  0.1212 -0.3157
   74CHL1    H9 7920   3.157   5.969   7.406  1.1329  0.4111  0.5146
   74CHL1   C10 7921   3.197   5.837   7.225  0.4635  0.3463 -0.1475
   74CHL1   C19 7922   3.178   5.682   7.211  0.0700 -0.3326  0.0261
   74CHL1  H19A 7923   3.241   5.621   7.279 -0.8071  0.6326  1.7941
   74CHL1  H19B 7924   3.077   5.640   7.230  0.8010 -1.2807  2.1671
   74CHL1  H19C 7925   3.206   5.653   7.108 -0.0160 -0.2063 -0.0341
   74CHL1    C1 7926   3.074   5.911   7.153 -0.3410 -0.2299  0.1880
   74CHL1   H1A 7927   2.983   5.871   7.203 -0.3102 -0.8188 -0.2151
   74CHL1   H1B 7928   3.095   6.018   7.176  0.7862 -0.5833  0.8501
   74CHL1    C2 7929   3.076   5.895   6.996 -0.4121 -0.3351  0.7493
   74CHL1   H2A 7930   2.994   5.959   6.956  2.0770  1.5172 -1.7794
   74CHL1   H2B 7931   3.047   5.788   6.986 -1.9845  0.1959 -0.9521
   74CHL1   C20 7932   3.188   5.829   7.946  0.3879  0.1474 -0.2053
   74CHL1   H20 7933   3.230   5.726   7.941 -0.3135 -0.1494 -0.0693
   74CHL1   C21 7934   3.035   5.803   7.952 -0.1379  0.0318  0.0326
   74CHL1  H21A 7935   2.985   5.759   7.863 -2.1363 -0.9355  1.5374
   74CHL1  H21B 7936   2.978   5.891   7.989 -1.3808  0.1566 -2.0222
   74CHL1  H21C 7937   3.020   5.714   8.018 -0.6091 -0.0419 -0.1666
   74CHL1   C22 7938   3.245   5.894   8.069  0.1869  0.0736  0.5018
   74CHL1  H22A 7939   3.355   5.879   8.069  0.1828 -0.6474  3.4509
   74CHL1  H22B 7940   3.216   6.001   8.059 -2.1530 -0.5287  0.2515
   74CHL1   C23 7941   3.186   5.844   8.193 -0.2084  0.2398 -0.6036
   74CHL1  H23A 7942   3.087   5.894   8.206  0.3416  0.8761  1.5586
   74CHL1  H23B 7943   3.169   5.736   8.206 -0.0414  0.2043 -0.6764
   74CHL1   C24 7944   3.274   5.891   8.316  0.4620 -0.1915  0.4854
   74CHL1  H24A 7945   3.382   5.871   8.298  1.2659  3.5298  0.3210
   74CHL1  H24B 7946   3.258   6.001   8.321  0.6471 -0.1117 -0.4331
   74CHL1   C25 7947   3.253   5.826   8.456  0.0760 -0.1486 -0.4193
   74CHL1   H25 7948   3.282   5.720   8.444 -1.8426 -0.6492 -1.0663
   74CHL1   C26 7949   3.331   5.902   8.568  0.1707  0.0732  0.4449
   74CHL1  H26A 7950   3.294   5.875   8.670  0.8073 -1.2965  0.3263
   74CHL1  H26B 7951   3.440   5.893   8.550  0.4589  2.3313  0.7255
   74CHL1  H26C 7952   3.308   6.009   8.547  1.5634 -0.0509 -1.9763
   74CHL1   C27 7953   3.103   5.810   8.489 -0.7073  0.5915  0.7773
   74CHL1  H27A 7954   3.079   5.750   8.580 -2.0745 -0.1695 -0.0499
   74CHL1  H27B 7955   3.055   5.907   8.512  0.2849  0.8529  1.8672
   74CHL1  H27C 7956   3.064   5.762   8.397  0.6279  1.2944 -0.1819
   75CHL1    C3 7957   0.667   1.058   6.595 -0.4078  0.2085  0.1784
   75CHL1    H3 7958   0.654   0.948   6.606 -0.0231  0.1890  0.4628
   75CHL1    O3 7959   0.690   1.073   6.455  0.6518  0.2065 -0.0176
   75CHL1   H3' 7960   0.711   1.167   6.450 -1.2681  0.6714 -0.4804
   75CHL1    C4 7961   0.541   1.140   6.633  0.5372  0.2620 -0.4595
   75CHL1   H4A 7962   0.543   1.248   6.607 -1.2585  0.5193  0.3478
   75CHL1   H4B 7963   0.451   1.101   6.580  0.5859  0.5475 -0.7585
   75CHL1    C5 7964   0.517   1.129   6.782 -0.2954  0.1575 -0.3700
   75CHL1    C6 7965   0.407   1.077   6.840 -0.0935  0.7573  0.3051
   75CHL1    H6 7966   0.322   1.051   6.775 -1.0237 -0.4081  1.9384
   75CHL1    C7 7967   0.381   1.070   6.985 -0.4220 -0.0784 -0.4233
   75CHL1   H7A 7968   0.280   1.101   7.020  0.1196  3.8521 -1.8509
   75CHL1   H7B 7969   0.407   0.967   7.018  2.0554  0.4432 -0.5658
   75CHL1    C8 7970   0.485   1.147   7.075 -0.4261 -0.5644  0.3854
   75CHL1    H8 7971   0.479   1.257   7.088  1.7575 -0.5418  1.6614
   75CHL1   C14 7972   0.475   1.101   7.217  0.0381  0.2360  0.5493
   75CHL1   H14 7973   0.493   0.991   7.219 -1.0269 -0.0908 -2.2260
   75CHL1   C15 7974   0.335   1.115   7.287 -0.0766  0.3624  0.3282
   75CHL1  H15A 7975   0.289   1.215   7.273  0.5238  0.8138  1.5052
   75CHL1  H15B 7976   0.268   1.038   7.242  2.4435  0.0054 -3.3206
   75CHL1   C16 7977   0.365   1.107   7.438 -0.9255  0.0886  0.3442
   75CHL1  H16A 7978   0.333   1.203   7.484  0.3200  1.2464 -1.0812
   75CHL1  H16B 7979   0.324   1.019   7.491 -0.1170 -0.4608  0.0705
   75CHL1   C17 7980   0.520   1.106   7.447 -0.5912  0.1611 -0.4860
   75CHL1   H17 7981   0.540   0.996   7.446 -0.6022  0.0848  1.8784
   75CHL1   C13 7982   0.576   1.161   7.315  0.1270  0.1076  0.2391
   75CHL1   C18 7983   0.559   1.317   7.314  0.1611  0.0053  0.2458
   75CHL1  H18A 7984   0.456   1.349   7.341 -0.3146 -1.8064  0.7089
   75CHL1  H18B 7985   0.627   1.360   7.391 -0.4640  1.0782  0.2209
   75CHL1  H18C 7986   0.593   1.359   7.217 -0.9685  0.5023  0.0577
   75CHL1   C12 7987   0.721   1.119   7.276 -0.2495 -0.4361 -0.2330
   75CHL1  H12A 7988   0.804   1.166   7.333 -0.7833 -1.1931  1.2209
   75CHL1  H12B 7989   0.730   1.011   7.301 -0.1005 -0.4281 -0.2500
   75CHL1   C11 7990   0.746   1.152   7.121 -1.5032  0.1572  0.6077
   75CHL1  H11A 7991   0.767   1.261   7.118  1.4364 -0.3237  0.8123
   75CHL1  H11B 7992   0.830   1.090   7.082 -1.3574  0.9806 -0.4305
   75CHL1    C9 7993   0.626   1.115   7.016  0.5425  0.1048 -0.4027
   75CHL1    H9 7994   0.636   1.004   7.015  1.7033  0.1829  0.8995
   75CHL1   C10 7995   0.640   1.166   6.874  0.5831 -1.1913  0.1725
   75CHL1   C19 7996   0.642   1.320   6.870 -0.5331 -0.1737  0.0668
   75CHL1  H19A 7997   0.664   1.359   6.768  1.7556  1.8841  1.2510
   75CHL1  H19B 7998   0.550   1.369   6.908 -0.8716  1.3101 -2.4358
   75CHL1  H19C 7999   0.727   1.343   6.937 -0.4412  0.6940 -0.3263
   75CHL1    C1 8000   0.769   1.101   6.811 -0.5979  0.2140 -0.6346
   75CHL1   H1A 8001   0.857   1.150   6.858  0.5837 -2.0448 -0.3858
   75CHL1   H1B 8002   0.769   0.995   6.842 -1.4708 -0.2136 -1.9890
   75CHL1    C2 8003   0.785   1.111   6.660 -0.2248 -0.9117 -0.5695
   75CHL1   H2A 8004   0.873   1.051   6.629  0.5199  1.4065 -3.3842
   75CHL1   H2B 8005   0.803   1.214   6.624 -2.5580 -0.9020 -1.8985
   75CHL1   C20 8006   0.589   1.154   7.576 -0.3038  0.6886  0.1505
   75CHL1   H20 8007   0.696   1.174   7.554  0.4966 -2.3128  0.7828
   75CHL1   C21 8008   0.597   1.042   7.673 -0.4661  0.0542  0.2422
   75CHL1  H21A 8009   0.624   0.946   7.624 -2.4636  0.3049 -1.5247
   75CHL1  H21B 8010   0.493   1.020   7.705 -0.9085 -0.6941 -1.5708
   75CHL1  H21C 8011   0.653   1.066   7.765 -2.6739  0.0152  1.6763
   75CHL1   C22 8012   0.522   1.275   7.656  0.5554 -0.1513  0.6591
   75CHL1  H22A 8013   0.479   1.347   7.582  3.1117  0.4524 -0.3680
   75CHL1  H22B 8014   0.445   1.237   7.725  0.9789 -1.8742  0.2189
   75CHL1   C23 8015   0.625   1.349   7.745 -0.0354 -0.6702  0.3680
   75CHL1  H23A 8016   0.669   1.275   7.816 -2.5410 -0.1683  2.6406
   75CHL1  H23B 8017   0.685   1.411   7.676 -1.3699  1.8144  1.3112
   75CHL1   C24 8018   0.554   1.451   7.841  0.1443 -0.0764  0.2066
   75CHL1  H24A 8019   0.490   1.523   7.786  0.5587  1.2180  1.3524
   75CHL1  H24B 8020   0.495   1.398   7.919 -0.0460 -3.4686 -2.0222
   75CHL1   C25 8021   0.657   1.547   7.913  0.3075 -0.6206 -0.7793
   75CHL1   H25 8022   0.705   1.493   7.998 -1.5659  1.2736  1.6371
   75CHL1   C26 8023   0.781   1.592   7.829 -0.2953  0.1352 -1.0863
   75CHL1  H26A 8024   0.837   1.668   7.887  1.8681 -1.3573 -1.0760
   75CHL1  H26B 8025   0.846   1.502   7.822 -0.3707 -0.0188 -0.0246
   75CHL1  H26C 8026   0.745   1.633   7.733 -0.8191  0.1177 -0.9040
   75CHL1   C27 8027   0.594   1.669   7.987  0.1722  0.3575 -0.4289
   75CHL1  H27A 8028   0.502   1.712   7.942  0.4004  1.3179 -0.0076
   75CHL1  H27B 8029   0.570   1.636   8.090  1.0543  1.3340  0.1171
   75CHL1  H27C 8030   0.676   1.744   7.991  0.4539  0.0232  0.2441
   76CHL1    C3 8031   3.346   2.197   7.100 -0.2242 -0.0667 -0.1755
   76CHL1    H3 8032   3.421   2.251   7.162 -0.4206 -0.4194  0.3782
   76CHL1    O3 8033   3.335   2.269   6.972  0.6932  0.2236  0.8427
   76CHL1   H3' 8034   3.263   2.221   6.930  1.0530 -1.1392  1.7172
   76CHL1    C4 8035   3.402   2.054   7.076 -0.0324  0.1031  0.2107
   76CHL1   H4A 8036   3.329   1.995   7.016 -3.0710  0.7824  2.9925
   76CHL1   H4B 8037   3.491   2.058   7.010 -0.2391  2.3335  0.0116
   76CHL1    C5 8038   3.422   1.975   7.208 -0.0520  0.6255  0.6585
   76CHL1    C6 8039   3.534   1.913   7.237 -0.2636 -0.4284  0.4038
   76CHL1    H6 8040   3.626   1.923   7.177 -1.6974  1.4213 -1.6890
   76CHL1    C7 8041   3.547   1.817   7.351 -0.0849 -0.3463 -0.4938
   76CHL1   H7A 8042   3.589   1.717   7.327  0.5864 -1.2339  3.5489
   76CHL1   H7B 8043   3.609   1.851   7.437 -1.3719  0.3340  0.1970
   76CHL1    C8 8044   3.416   1.786   7.419  0.1948  0.4989  0.1651
   76CHL1    H8 8045   3.350   1.717   7.363 -0.5102  0.1605  1.3840
   76CHL1   C14 8046   3.446   1.724   7.558  0.0443 -0.8869  0.1621
   76CHL1   H14 8047   3.499   1.791   7.629  1.6879 -3.8064  1.8819
   76CHL1   C15 8048   3.545   1.606   7.558  0.2321 -0.3811 -0.1892
   76CHL1  H15A 8049   3.503   1.529   7.489 -2.2263  1.7278 -1.1957
   76CHL1  H15B 8050   3.647   1.624   7.516  0.3131 -1.3048 -0.4130
   76CHL1   C16 8051   3.530   1.552   7.705  0.0542 -0.1059 -0.0329
   76CHL1  H16A 8052   3.520   1.442   7.698 -0.0272 -0.1009  0.0012
   76CHL1  H16B 8053   3.612   1.585   7.772  0.7230 -0.4698 -0.6553
   76CHL1   C17 8054   3.393   1.618   7.762  0.0096 -0.1288  0.1862
   76CHL1   H17 8055   3.421   1.700   7.831 -2.9543  0.4371  0.8618
   76CHL1   C13 8056   3.328   1.688   7.641 -0.3896  0.4329 -0.1025
   76CHL1   C18 8057   3.241   1.587   7.568  0.0020 -0.6131 -0.3070
   76CHL1  H18A 8058   3.224   1.606   7.460 -0.1357  0.4154 -0.1157
   76CHL1  H18B 8059   3.294   1.490   7.580  0.2836 -0.3480  0.7316
   76CHL1  H18C 8060   3.145   1.578   7.622 -0.8429  1.3436 -1.3725
   76CHL1   C12 8061   3.253   1.823   7.671 -0.2055 -0.4249 -0.0067
   76CHL1  H12A 8062   3.169   1.794   7.738  0.3622 -0.9397  0.4894
   76CHL1  H12B 8063   3.314   1.899   7.723 -0.8340  0.4771 -0.5578
   76CHL1   C11 8064   3.209   1.890   7.538  0.2863  0.6367  0.1966
   76CHL1  H11A 8065   3.121   1.836   7.497  1.4639 -1.8649  0.7402
   76CHL1  H11B 8066   3.167   1.987   7.573 -1.6969 -0.3745  0.8002
   76CHL1    C9 8067   3.328   1.912   7.433 -0.0787 -0.4317 -0.0081
   76CHL1    H9 8068   3.391   1.987   7.484 -1.7137  0.7402  0.3459
   76CHL1   C10 8069   3.295   1.968   7.293 -0.1798  0.6049 -0.6086
   76CHL1   C19 8070   3.208   1.862   7.215 -0.0546 -0.0536  0.3224
   76CHL1  H19A 8071   3.125   1.817   7.273  0.3296  0.2318  1.1178
   76CHL1  H19B 8072   3.167   1.904   7.121  0.8135  0.3081  0.0941
   76CHL1  H19C 8073   3.275   1.780   7.182  1.8668  1.7935 -0.5720
   76CHL1    C1 8074   3.213   2.105   7.305  0.1614  0.8717 -0.0928
   76CHL1   H1A 8075   3.111   2.083   7.345  1.4055 -2.9941  1.4062
   76CHL1   H1B 8076   3.271   2.165   7.377  0.3164 -0.9743  1.3866
   76CHL1    C2 8077   3.208   2.178   7.174 -0.5468  0.1558 -0.4638
   76CHL1   H2A 8078   3.168   2.282   7.174  0.2912  0.6343 -4.2207
   76CHL1   H2B 8079   3.144   2.121   7.103 -0.0909 -0.5651 -0.3112
   76CHL1   C20 8080   3.307   1.523   7.849 -0.2525 -0.5434  0.1185
   76CHL1   H20 8081   3.265   1.440   7.788  1.3335 -0.8371 -0.6175
   76CHL1   C21 8082   3.185   1.599   7.911  0.3014 -0.1820 -0.0482
   76CHL1  H21A 8083   3.218   1.679   7.980 -0.6925 -1.0167  1.4317
   76CHL1  H21B 8084   3.123   1.540   7.982  0.3132 -0.4065 -0.2195
   76CHL1  H21C 8085   3.119   1.630   7.827  0.3169  0.6191  0.2351
   76CHL1   C22 8086   3.386   1.453   7.958  0.3735 -0.0680  0.4980
   76CHL1  H22A 8087   3.308   1.400   8.017 -1.3070  2.3686  0.6416
   76CHL1  H22B 8088   3.437   1.369   7.906 -2.7504 -0.6715 -1.9315
   76CHL1   C23 8089   3.483   1.536   8.045  0.2730 -0.2438  0.6759
   76CHL1  H23A 8090   3.544   1.611   7.991  2.7012 -0.9690  2.2934
   76CHL1  H23B 8091   3.424   1.602   8.111  0.9755 -0.1312  1.1949
   76CHL1   C24 8092   3.574   1.455   8.133 -0.3503 -0.2159  0.7942
   76CHL1  H24A 8093   3.503   1.396   8.195 -3.3023  1.1721 -1.0338
   76CHL1  H24B 8094   3.633   1.381   8.077  0.3649 -0.1537  1.4486
   76CHL1   C25 8095   3.659   1.538   8.236  0.3356 -1.1028 -0.2332
   76CHL1   H25 8096   3.687   1.637   8.194 -0.6682 -0.8030 -0.2260
   76CHL1   C26 8097   3.564   1.560   8.357 -0.5388  0.4565  0.1509
   76CHL1  H26A 8098   3.619   1.610   8.440 -0.5166 -0.0996  0.4738
   76CHL1  H26B 8099   3.472   1.613   8.322 -0.4262 -1.4543 -3.4683
   76CHL1  H26C 8100   3.526   1.461   8.391  2.4378 -1.0516 -0.5737
   76CHL1   C27 8101   3.785   1.457   8.278 -0.3327  0.2745  0.5946
   76CHL1  H27A 8102   3.853   1.525   8.334 -0.5850  0.6905  0.4006
   76CHL1  H27B 8103   3.771   1.368   8.342  2.4147 -2.4485 -2.2428
   76CHL1  H27C 8104   3.833   1.406   8.192  0.5119 -0.5346  1.5222
   77CHL1    C3 8105   4.573   0.418   6.865 -0.6083  0.4335  0.5386
   77CHL1    H3 8106   4.500   0.500   6.884 -1.0151  0.5398 -1.3051
   77CHL1    O3 8107   4.592   0.404   6.723  0.3607  0.7197 -0.9216
   77CHL1   H3' 8108   4.646   0.326   6.712 -0.7784 -0.4800  1.3151
   77CHL1    C4 8109   4.699   0.471   6.934  0.3263  0.5776 -0.3120
   77CHL1   H4A 8110   4.787   0.411   6.902  0.0864  0.3400 -0.5338
   77CHL1   H4B 8111   4.715   0.576   6.902 -1.7383  0.3306 -2.3977
   77CHL1    C5 8112   4.689   0.470   7.081  0.0115  0.3884 -0.7317
   77CHL1    C6 8113   4.706   0.582   7.153  0.0409 -0.5076  0.0985
   77CHL1    H6 8114   4.722   0.677   7.101 -0.3113 -0.0965  0.7369
   77CHL1    C7 8115   4.705   0.583   7.305  0.0107 -0.8247 -0.3856
   77CHL1   H7A 8116   4.783   0.654   7.339 -2.0499  1.0629  0.6232
   77CHL1   H7B 8117   4.611   0.634   7.336  1.6805 -0.1251  4.2817
   77CHL1    C8 8118   4.718   0.442   7.380 -0.0169  0.5206  0.1020
   77CHL1    H8 8119   4.820   0.398   7.379  0.4144  1.3149  2.5731
   77CHL1   C14 8120   4.676   0.451   7.529  0.2041  0.3881  0.4022
   77CHL1   H14 8121   4.569   0.480   7.534  0.0767 -0.2268  1.9585
   77CHL1   C15 8122   4.746   0.563   7.614 -0.6499  0.6494  0.7521
   77CHL1  H15A 8123   4.855   0.557   7.595 -0.3625 -1.5817  2.7003
   77CHL1  H15B 8124   4.724   0.670   7.595  0.9644  1.1856  1.7482
   77CHL1   C16 8125   4.708   0.520   7.764 -0.4913  0.1583  1.0000
   77CHL1  H16A 8126   4.805   0.512   7.817 -0.0522 -3.8405 -0.0938
   77CHL1  H16B 8127   4.641   0.592   7.816 -0.7031  2.1528 -1.7699
   77CHL1   C17 8128   4.634   0.382   7.748  0.3358 -0.3030  0.6710
   77CHL1   H17 8129   4.525   0.402   7.749  0.5118  1.0852 -1.5018
   77CHL1   C13 8130   4.669   0.326   7.606  0.5222 -0.5699  1.3896
   77CHL1   C18 8131   4.820   0.279   7.609  0.0873  0.2498  0.7859
   77CHL1  H18A 8132   4.831   0.184   7.665  2.2092 -1.0498 -1.5780
   77CHL1  H18B 8133   4.865   0.255   7.510 -1.9194  1.0801 -0.3888
   77CHL1  H18C 8134   4.876   0.361   7.659  0.5242 -0.2216  1.0830
   77CHL1   C12 8135   4.577   0.221   7.537  0.3372 -0.6726  0.8371
   77CHL1  H12A 8136   4.597   0.118   7.574  1.0741 -0.4907  0.9740
   77CHL1  H12B 8137   4.474   0.262   7.546  0.5393 -0.1409  0.7590
   77CHL1   C11 8138   4.608   0.213   7.387  0.1541 -0.2960 -0.2063
   77CHL1  H11A 8139   4.707   0.165   7.376  0.6638  0.9461 -1.2968
   77CHL1  H11B 8140   4.531   0.150   7.338  1.2700 -0.9350 -1.2000
   77CHL1    C9 8141   4.624   0.348   7.305 -0.0935 -0.2644  0.1018
   77CHL1    H9 8142   4.523   0.393   7.316 -0.3570 -1.0914  1.2590
   77CHL1   C10 8143   4.645   0.337   7.152 -0.3841 -0.2261  0.5562
   77CHL1   C19 8144   4.762   0.239   7.138  0.0666  0.4143 -0.5820
   77CHL1  H19A 8145   4.718   0.145   7.177 -0.2717  1.0326  0.5566
   77CHL1  H19B 8146   4.793   0.216   7.033  0.3935 -0.7818 -0.2444
   77CHL1  H19C 8147   4.851   0.260   7.201  0.6597 -0.5288 -1.0751
   77CHL1    C1 8148   4.519   0.295   7.079  0.5857  0.8661  0.8002
   77CHL1   H1A 8149   4.480   0.197   7.113  1.2164 -0.2610 -1.5500
   77CHL1   H1B 8150   4.434   0.359   7.109  0.4133  0.0334  2.1499
   77CHL1    C2 8151   4.528   0.283   6.927  0.2050  0.1931 -0.7228
   77CHL1   H2A 8152   4.429   0.260   6.882 -0.4435 -1.0916  1.2701
   77CHL1   H2B 8153   4.589   0.196   6.894 -0.0706 -0.3241  0.1228
   77CHL1   C20 8154   4.660   0.287   7.866  0.6366  0.1955 -0.4782
   77CHL1   H20 8155   4.770   0.283   7.882  0.4767 -1.1416  0.4629
   77CHL1   C21 8156   4.600   0.144   7.834 -0.2152 -0.9608 -0.1927
   77CHL1  H21A 8157   4.593   0.086   7.929 -0.4916  0.5231  0.7429
   77CHL1  H21B 8158   4.671   0.090   7.769  1.0902  0.3361  0.1145
   77CHL1  H21C 8159   4.491   0.146   7.811 -0.7496 -0.5318  2.0369
   77CHL1   C22 8160   4.582   0.339   7.990  0.2084 -0.0624 -0.2336
   77CHL1  H22A 8161   4.578   0.450   7.992 -0.2328 -0.0850  0.2248
   77CHL1  H22B 8162   4.475   0.310   7.984  0.3404 -1.2139  2.0791
   77CHL1   C23 8163   4.640   0.278   8.121  0.3628  0.3341 -0.3990
   77CHL1  H23A 8164   4.654   0.168   8.112  2.5570  0.4613  0.8730
   77CHL1  H23B 8165   4.746   0.310   8.134  0.1913  1.5758 -1.7610
   77CHL1   C24 8166   4.549   0.315   8.239 -0.0132  0.3110 -0.2655
   77CHL1  H24A 8167   4.516   0.420   8.225  2.5679  1.1906 -0.1560
   77CHL1  H24B 8168   4.473   0.234   8.246  1.9067 -1.4285  2.2214
   77CHL1   C25 8169   4.607   0.302   8.379  0.1490 -0.1918  0.3152
   77CHL1   H25 8170   4.700   0.362   8.386  0.2152 -0.1744 -0.6141
   77CHL1   C26 8171   4.519   0.358   8.495  0.9122 -0.0419  0.3474
   77CHL1  H26A 8172   4.550   0.337   8.599 -0.1115  0.6753  0.8159
   77CHL1  H26B 8173   4.510   0.467   8.473 -2.3655 -0.3404 -0.2938
   77CHL1  H26C 8174   4.416   0.321   8.474  1.1335 -1.4589  1.6099
   77CHL1   C27 8175   4.648   0.153   8.414  0.2535 -0.2164  0.1022
   77CHL1  H27A 8176   4.696   0.107   8.324 -0.9874 -0.3647 -0.5082
   77CHL1  H27B 8177   4.712   0.155   8.504  0.2385  1.9194  0.0959
   77CHL1  H27C 8178   4.557   0.091   8.428 -0.3563  0.8232  0.8448
   78CHL1    C3 8179   6.799   2.279   6.759  0.8357 -0.6710 -0.2328
   78CHL1    H3 8180   6.707   2.301   6.816  1.9716 -0.1022  1.4622
   78CHL1    O3 8181   6.764   2.292   6.622  0.3048  0.0010 -0.4000
   78CHL1   H3' 8182   6.779   2.210   6.577  1.5940  1.5563 -3.0297
   78CHL1    C4 8183   6.912   2.372   6.800  0.1550 -0.9567  0.0312
   78CHL1   H4A 8184   7.002   2.353   6.737  0.7080 -0.6243  0.6995
   78CHL1   H4B 8185   6.884   2.476   6.776 -1.0872 -1.5047 -0.9998
   78CHL1    C5 8186   6.951   2.355   6.949 -0.3500  0.5643 -0.1923
   78CHL1    C6 8187   6.953   2.456   7.033 -0.1668  0.2242  0.3029
   78CHL1    H6 8188   6.928   2.552   6.985 -0.9007 -1.0141 -1.9351
   78CHL1    C7 8189   6.988   2.447   7.178 -0.4845 -0.4363 -0.1642
   78CHL1   H7A 8190   7.063   2.522   7.209 -2.3055  0.3150  2.8613
   78CHL1   H7B 8191   6.896   2.466   7.238  0.0917 -1.3177  1.0359
   78CHL1    C8 8192   7.048   2.320   7.219 -1.2590 -0.2853 -0.7621
   78CHL1    H8 8193   7.154   2.321   7.186 -1.2315 -0.2301 -0.6745
   78CHL1   C14 8194   7.032   2.304   7.371  0.2520 -0.1152 -0.1692
   78CHL1   H14 8195   6.923   2.290   7.383  0.3480  0.8016  2.2686
   78CHL1   C15 8196   7.067   2.416   7.477 -0.4010 -0.6849  0.0752
   78CHL1  H15A 8197   7.167   2.456   7.448 -1.1872 -0.1090 -2.0091
   78CHL1  H15B 8198   6.984   2.490   7.476  1.4710  1.5407 -1.0046
   78CHL1   C16 8199   7.082   2.342   7.618  0.1060 -0.4092  0.3329
   78CHL1  H16A 8200   7.188   2.342   7.651  0.8548  4.2742 -1.1916
   78CHL1  H16B 8201   7.006   2.383   7.688  0.9934  1.3074  0.3415
   78CHL1   C17 8202   7.050   2.192   7.582 -0.0653  0.5830 -0.2833
   78CHL1   H17 8203   6.941   2.171   7.592  0.2273 -1.3477 -0.7035
   78CHL1   C13 8204   7.083   2.174   7.434 -1.1446 -0.0945 -0.0110
   78CHL1   C18 8205   7.237   2.170   7.417  0.1205 -0.0145  0.3464
   78CHL1  H18A 8206   7.291   2.231   7.493 -1.5349  1.3862  0.4535
   78CHL1  H18B 8207   7.269   2.065   7.434 -0.4460 -0.2338  0.0821
   78CHL1  H18C 8208   7.284   2.197   7.321  0.8230  0.9798  0.9530
   78CHL1   C12 8209   7.022   2.052   7.359 -0.2438 -0.3033 -0.1016
   78CHL1  H12A 8210   7.074   1.957   7.384  0.7425  0.3271  0.2709
   78CHL1  H12B 8211   6.913   2.045   7.380 -0.4469 -1.8621 -1.4577
   78CHL1   C11 8212   7.030   2.067   7.209  0.2716 -0.1837 -0.0620
   78CHL1  H11A 8213   7.135   2.050   7.175  0.2388  0.4434 -0.5051
   78CHL1  H11B 8214   6.964   1.990   7.165 -0.5041  1.2889 -1.5971
   78CHL1    C9 8215   6.978   2.205   7.157  0.5367  0.6045  0.7891
   78CHL1    H9 8216   6.872   2.203   7.193  0.5692 -2.0968  0.9880
   78CHL1   C10 8217   6.980   2.213   6.996  0.1827  0.0618 -0.2575
   78CHL1   C19 8218   7.115   2.174   6.925  0.2105 -0.0054 -0.3895
   78CHL1  H19A 8219   7.200   2.228   6.973  2.3990 -0.0311 -3.8791
   78CHL1  H19B 8220   7.129   2.065   6.938 -1.8876 -0.0039  3.0945
   78CHL1  H19C 8221   7.110   2.190   6.815 -2.5661 -1.3652 -0.5346
   78CHL1    C1 8222   6.870   2.118   6.937  0.6460 -0.3772  0.0846
   78CHL1   H1A 8223   6.913   2.016   6.944  0.9409 -0.1615  1.6119
   78CHL1   H1B 8224   6.785   2.107   7.007 -1.4582  0.6402 -2.1597
   78CHL1    C2 8225   6.830   2.138   6.787  0.7685 -1.1195 -0.5929
   78CHL1   H2A 8226   6.745   2.068   6.778  0.4652 -0.6088 -1.8812
   78CHL1   H2B 8227   6.922   2.106   6.733  0.5933 -0.9099 -1.0167
   78CHL1   C20 8228   7.118   2.094   7.688 -0.4642  0.8165 -0.2521
   78CHL1   H20 8229   7.226   2.114   7.699  0.2597 -1.4591 -2.3782
   78CHL1   C21 8230   7.115   1.948   7.641  0.0088  0.3569  0.3498
   78CHL1  H21A 8231   7.016   1.903   7.619  0.4577 -1.3163  1.6091
   78CHL1  H21B 8232   7.161   1.887   7.721  0.8528 -1.0379 -1.1501
   78CHL1  H21C 8233   7.194   1.939   7.564 -1.3572  1.5567 -1.2900
   78CHL1   C22 8234   7.039   2.100   7.828 -0.1537  0.1909  0.3476
   78CHL1  H22A 8235   7.099   2.040   7.898 -1.1214 -1.7667 -0.4353
   78CHL1  H22B 8236   7.043   2.210   7.846 -0.4776  0.2858 -0.1044
   78CHL1   C23 8237   6.902   2.048   7.832 -0.3563  0.3667 -0.1084
   78CHL1  H23A 8238   6.846   2.129   7.779  2.7337  3.6909  1.2494
   78CHL1  H23B 8239   6.881   1.946   7.795 -0.7268  0.2811  0.3327
   78CHL1   C24 8240   6.848   2.044   7.976  0.1841  0.6819 -0.1326
   78CHL1  H24A 8241   6.933   2.024   8.046 -0.3279  0.7799  0.5280
   78CHL1  H24B 8242   6.818   2.146   8.008 -2.9039 -0.3627  0.6805
   78CHL1   C25 8243   6.727   1.950   8.003  0.4307  0.5679  0.0506
   78CHL1   H25 8244   6.655   1.965   7.919 -0.0036 -2.5513 -0.2747
   78CHL1   C26 8245   6.767   1.803   8.004 -0.1896  0.6907 -0.6420
   78CHL1  H26A 8246   6.690   1.737   8.049  2.4065 -1.9395  0.2865
   78CHL1  H26B 8247   6.790   1.752   7.909 -0.6468 -0.4876 -0.1337
   78CHL1  H26C 8248   6.851   1.785   8.074 -0.7359  1.0870  0.1378
   78CHL1   C27 8249   6.647   1.983   8.133 -0.3684  0.1982  0.7459
   78CHL1  H27A 8250   6.614   2.089   8.131  2.6708  1.2496  0.4128
   78CHL1  H27B 8251   6.556   1.924   8.153 -1.4890  1.5549 -0.1659
   78CHL1  H27C 8252   6.717   1.961   8.217 -2.0017 -2.4268  1.5269
   79CHL1    C3 8253   5.300   0.909   7.137 -0.2329 -0.3042  0.5983
   79CHL1    H3 8254   5.193   0.912   7.167 -0.7285  0.7568 -1.1209
   79CHL1    O3 8255   5.303   0.917   6.994 -0.4453 -0.2651 -0.2856
   79CHL1   H3' 8256   5.387   0.880   6.967  0.8160  1.5111  0.8986
   79CHL1    C4 8257   5.371   1.035   7.199  0.5924  0.2346  0.2159
   79CHL1   H4A 8258   5.475   1.032   7.160  0.7087 -0.8216  0.5722
   79CHL1   H4B 8259   5.322   1.124   7.154  0.1312 -0.5449 -0.9019
   79CHL1    C5 8260   5.380   1.028   7.351 -0.0306  0.6086 -0.0029
   79CHL1    C6 8261   5.325   1.122   7.426  0.8220 -0.0373 -0.2727
   79CHL1    H6 8262   5.277   1.207   7.376  0.6764 -0.1663 -0.3546
   79CHL1    C7 8263   5.336   1.121   7.576  0.5995 -0.1197  0.2700
   79CHL1   H7A 8264   5.360   1.222   7.616 -1.7151  0.0591  1.3716
   79CHL1   H7B 8265   5.237   1.095   7.619  1.0268 -1.4622  0.4800
   79CHL1    C8 8266   5.447   1.020   7.629  0.5765 -0.3052 -0.0683
   79CHL1    H8 8267   5.545   1.068   7.610 -0.6257  1.3886 -2.4600
   79CHL1   C14 8268   5.445   1.000   7.783 -0.6853  0.2734  0.0017
   79CHL1   H14 8269   5.349   0.946   7.797 -0.5030 -1.1010 -3.1510
   79CHL1   C15 8270   5.442   1.114   7.886  0.2589  0.4570 -0.1591
   79CHL1  H15A 8271   5.523   1.184   7.856  1.5656 -0.3470  1.3571
   79CHL1  H15B 8272   5.346   1.171   7.883 -0.1087 -0.1885 -1.2565
   79CHL1   C16 8273   5.465   1.049   8.015  1.0004 -0.2239 -0.3319
   79CHL1  H16A 8274   5.540   1.101   8.078  1.7216 -3.0450  1.2895
   79CHL1  H16B 8275   5.373   1.030   8.074  0.8152  0.6595 -0.3240
   79CHL1   C17 8276   5.528   0.910   7.985 -0.5024  0.1929 -0.2034
   79CHL1   H17 8277   5.447   0.834   7.999  0.7915 -0.7200  3.4123
   79CHL1   C13 8278   5.550   0.907   7.836 -0.0390  0.4028  0.0470
   79CHL1   C18 8279   5.698   0.965   7.820 -0.4385  0.1223  0.5501
   79CHL1  H18A 8280   5.738   1.045   7.886  1.8020 -1.6380  1.4824
   79CHL1  H18B 8281   5.766   0.878   7.830 -0.1172  0.3900  0.7107
   79CHL1  H18C 8282   5.705   0.999   7.715  1.1681  4.0218  1.7435
   79CHL1   C12 8283   5.534   0.769   7.769  0.1453 -0.7813 -1.1001
   79CHL1  H12A 8284   5.618   0.705   7.803 -0.7203 -0.2759  2.3500
   79CHL1  H12B 8285   5.436   0.728   7.801 -0.0158  0.5393  0.2129
   79CHL1   C11 8286   5.534   0.781   7.622  0.1775 -0.1480 -0.2839
   79CHL1  H11A 8287   5.633   0.825   7.594  0.2115  0.5581  0.8688
   79CHL1  H11B 8288   5.518   0.679   7.582  0.8252 -0.3310 -0.0846
   79CHL1    C9 8289   5.439   0.889   7.553  0.4971 -0.3870 -0.1487
   79CHL1    H9 8290   5.333   0.857   7.562 -0.1593  0.9505 -2.3497
   79CHL1   C10 8291   5.450   0.899   7.399  0.1518 -0.1055  0.1687
   79CHL1   C19 8292   5.600   0.892   7.355  0.1755 -0.8258 -0.0626
   79CHL1  H19A 8293   5.667   0.957   7.414  1.0128 -2.9280  1.4171
   79CHL1  H19B 8294   5.641   0.790   7.373  1.5249 -0.0450  1.5431
   79CHL1  H19C 8295   5.624   0.911   7.248 -0.0852  0.3293  0.0739
   79CHL1    C1 8296   5.383   0.773   7.334  0.4382 -0.7111 -0.5882
   79CHL1   H1A 8297   5.444   0.683   7.358  0.7764 -0.3209  0.0395
   79CHL1   H1B 8298   5.280   0.751   7.367 -0.2241  0.7997 -1.5471
   79CHL1    C2 8299   5.371   0.782   7.180  0.6726 -0.0062  0.0559
   79CHL1   H2A 8300   5.299   0.708   7.138  1.4483  0.1760 -1.6520
   79CHL1   H2B 8301   5.473   0.764   7.140  1.3453  0.1621  1.6265
   79CHL1   C20 8302   5.631   0.869   8.092  0.6126 -0.0173  1.0187
   79CHL1   H20 8303   5.725   0.929   8.084  0.3651  0.3463  0.7859
   79CHL1   C21 8304   5.665   0.718   8.085 -0.6775 -0.2356 -0.3838
   79CHL1  H21A 8305   5.743   0.703   8.008 -1.1178 -0.9187 -0.7062
   79CHL1  H21B 8306   5.573   0.663   8.056 -1.1955  1.9579 -3.3565
   79CHL1  H21C 8307   5.701   0.691   8.187  0.3576  3.0050  0.2216
   79CHL1   C22 8308   5.571   0.895   8.234 -0.3196  0.9035 -0.4832
   79CHL1  H22A 8309   5.645   0.864   8.310 -0.7948 -1.7130 -1.0055
   79CHL1  H22B 8310   5.534   0.998   8.257  0.5392  1.2563 -0.6426
   79CHL1   C23 8311   5.442   0.811   8.259  0.0318  0.5802 -0.9384
   79CHL1  H23A 8312   5.354   0.855   8.208 -2.5427 -1.7146  1.1751
   79CHL1  H23B 8313   5.466   0.705   8.235  0.8988  0.3368  0.8475
   79CHL1   C24 8314   5.408   0.813   8.420 -0.0568 -0.0501  0.0190
   79CHL1  H24A 8315   5.491   0.765   8.476 -0.4201 -1.7664 -0.8296
   79CHL1  H24B 8316   5.398   0.919   8.451 -1.6658 -0.0341 -0.4555
   79CHL1   C25 8317   5.272   0.754   8.464 -0.2472 -0.0452 -0.1914
   79CHL1   H25 8318   5.201   0.815   8.404 -0.4237 -2.6165 -2.8220
   79CHL1   C26 8319   5.256   0.601   8.426 -0.0356 -0.7998  0.4816
   79CHL1  H26A 8320   5.265   0.590   8.316 -2.5162  2.4274 -0.1902
   79CHL1  H26B 8321   5.338   0.548   8.480  0.1975  0.1758  1.1067
   79CHL1  H26C 8322   5.155   0.558   8.444  0.2570 -1.0659  1.5734
   79CHL1   C27 8323   5.233   0.775   8.615  0.4209  0.6694  0.0170
   79CHL1  H27A 8324   5.245   0.881   8.646 -0.7526  0.7991  0.0721
   79CHL1  H27B 8325   5.130   0.736   8.630 -0.2707  3.1834  2.6695
   79CHL1  H27C 8326   5.304   0.721   8.681 -0.9287 -2.2223 -0.7382
   80CHL1    C3 8327   3.306   0.016   6.952  0.0551 -0.0914 -0.5003
   80CHL1    H3 8328   3.284  -0.092   6.960  2.1721 -0.4704  1.0030
   80CHL1    O3 8329   3.341   0.044   6.819  0.1615  0.6009  0.2838
   80CHL1   H3' 8330   3.433   0.064   6.799  0.0273 -0.5688 -1.7604
   80CHL1    C4 8331   3.176   0.092   6.992 -0.0499  0.2342  0.0550
   80CHL1   H4A 8332   3.199   0.201   6.988 -0.6827  0.3892  0.4061
   80CHL1   H4B 8333   3.095   0.067   6.921  1.4590 -2.8577 -0.7390
   80CHL1    C5 8334   3.137   0.063   7.135 -0.0196 -0.2565 -0.3943
   80CHL1    C6 8335   3.015   0.013   7.167  0.3313 -0.8193 -0.2030
   80CHL1    H6 8336   2.952  -0.001   7.078 -3.1220 -2.1181  2.2285
   80CHL1    C7 8337   2.967  -0.026   7.303 -0.1305  0.8179 -0.3230
   80CHL1   H7A 8338   2.865   0.010   7.327 -0.1413  0.0240  0.8931
   80CHL1   H7B 8339   2.975  -0.136   7.319  0.8810  1.1829  2.0643
   80CHL1    C8 8340   3.053   0.045   7.414 -0.3386  0.5105  0.7923
   80CHL1    H8 8341   3.041   0.155   7.410  0.7798  0.6938  1.9911
   80CHL1   C14 8342   3.032  -0.007   7.550  0.1250  0.0081  0.5822
   80CHL1   H14 8343   3.050  -0.117   7.548 -1.4831 -0.2841 -1.6465
   80CHL1   C15 8344   2.889   0.007   7.604  0.2894 -0.0479 -0.3099
   80CHL1  H15A 8345   2.855   0.113   7.592 -0.7263 -0.5406 -2.2416
   80CHL1  H15B 8346   2.820  -0.066   7.556  1.2273 -0.5760 -0.8791
   80CHL1   C16 8347   2.904  -0.035   7.753 -0.3200 -0.0370  0.1896
   80CHL1  H16A 8348   2.842   0.031   7.817 -0.8140 -0.7620  0.4833
   80CHL1  H16B 8349   2.856  -0.134   7.769 -2.9080  0.7813 -1.9322
   80CHL1   C17 8350   3.056  -0.026   7.793 -0.3521  0.3030 -0.4799
   80CHL1   H17 8351   3.092  -0.130   7.781  2.2718  1.0575  0.3277
   80CHL1   C13 8352   3.117   0.041   7.665  0.2338 -0.7451  0.1260
   80CHL1   C18 8353   3.112   0.197   7.681 -0.5266 -0.3007 -0.6616
   80CHL1  H18A 8354   3.184   0.225   7.761  1.0253 -2.0981 -1.3605
   80CHL1  H18B 8355   3.143   0.256   7.592  1.5624  0.1963  0.3271
   80CHL1  H18C 8356   3.009   0.231   7.707 -0.0732  0.7707 -0.1909
   80CHL1   C12 8357   3.256  -0.006   7.623  0.7078  0.2433 -0.3515
   80CHL1  H12A 8358   3.336   0.015   7.698  1.4324 -0.5001 -0.8974
   80CHL1  H12B 8359   3.254  -0.116   7.610  2.2444 -0.2190  2.4622
   80CHL1   C11 8360   3.296   0.061   7.493  0.6307 -0.4993 -0.0095
   80CHL1  H11A 8361   3.301   0.170   7.512  1.7099 -0.4360 -0.5601
   80CHL1  H11B 8362   3.402   0.033   7.473  2.1792  2.9967  2.3056
   80CHL1    C9 8363   3.205   0.015   7.383 -0.3077 -0.8011 -0.0594
   80CHL1    H9 8364   3.220  -0.094   7.372  0.0855 -0.6773 -0.8046
   80CHL1   C10 8365   3.248   0.075   7.242  0.2423  0.0514  0.4397
   80CHL1   C19 8366   3.276   0.227   7.257  0.5272 -0.0445 -0.1500
   80CHL1  H19A 8367   3.374   0.239   7.309  0.3377  2.4526 -0.2567
   80CHL1  H19B 8368   3.292   0.285   7.164 -0.8908  1.0205  0.2347
   80CHL1  H19C 8369   3.197   0.290   7.304 -0.4596 -1.2037 -0.2019
   80CHL1    C1 8370   3.376   0.007   7.189 -0.7812 -0.5808 -0.1303
   80CHL1   H1A 8371   3.459   0.023   7.261 -1.2426  0.5503  0.1755
   80CHL1   H1B 8372   3.343  -0.099   7.189  1.7839 -1.4639 -0.8391
   80CHL1    C2 8373   3.422   0.047   7.047 -0.2674 -0.2065 -0.0880
   80CHL1   H2A 8374   3.501  -0.029   7.030 -2.1004 -2.7772  1.9346
   80CHL1   H2B 8375   3.473   0.145   7.033  0.8148 -0.3554  2.2824
   80CHL1   C20 8376   3.083   0.018   7.938  0.1192 -0.7576  0.5127
   80CHL1   H20 8377   3.047   0.123   7.944  0.7882 -0.4248 -0.9294
   80CHL1   C21 8378   3.233   0.022   7.955 -0.4666 -0.3885  0.6864
   80CHL1  H21A 8379   3.285   0.039   8.052  1.1314 -1.0810 -0.0059
   80CHL1  H21B 8380   3.283   0.091   7.884 -0.5107 -2.1320 -1.1293
   80CHL1  H21C 8381   3.258  -0.079   7.915 -0.3437  0.0148 -0.2854
   80CHL1   C22 8382   3.017  -0.071   8.044 -0.2609  0.2149 -0.1021
   80CHL1  H22A 8383   2.912  -0.090   8.013 -0.1519  1.1630 -1.1354
   80CHL1  H22B 8384   3.056  -0.174   8.028  2.1580  0.9702  0.5678
   80CHL1   C23 8385   3.028  -0.025   8.189 -0.3479  0.0113  0.0503
   80CHL1  H23A 8386   3.137  -0.025   8.212 -0.3242  0.7453 -0.0284
   80CHL1  H23B 8387   2.969   0.069   8.198  0.1712  0.5027 -1.3967
   80CHL1   C24 8388   2.967  -0.118   8.288 -0.0591  0.5240 -0.2064
   80CHL1  H24A 8389   2.859  -0.125   8.265  0.0015 -0.2540 -0.2953
   80CHL1  H24B 8390   3.024  -0.214   8.288 -0.6373  0.0606  2.7292
   80CHL1   C25 8391   2.984  -0.080   8.443 -0.0050  0.0475 -0.0056
   80CHL1   H25 8392   3.092  -0.061   8.460 -0.1442  1.4976 -0.5830
   80CHL1   C26 8393   2.897   0.042   8.487  0.8702 -0.3800 -0.0299
   80CHL1  H26A 8394   2.933   0.124   8.421  2.1211  0.9472  2.1956
   80CHL1  H26B 8395   2.787   0.030   8.482  0.8728 -0.6285  0.4516
   80CHL1  H26C 8396   2.916   0.079   8.590 -1.0633 -0.8076  0.5204
   80CHL1   C27 8397   2.939  -0.201   8.531  0.8791  0.2166  1.0062
   80CHL1  H27A 8398   2.991  -0.207   8.629  1.1982 -2.9758  0.7356
   80CHL1  H27B 8399   2.830  -0.190   8.552  0.7539  0.1017  0.4216
   80CHL1  H27C 8400   2.941  -0.300   8.482  0.1897  0.5235  0.3421
   81CHL1    C3 8401   1.647   6.756   6.571  0.2716 -0.1019 -0.1087
   81CHL1    H3 8402   1.563   6.691   6.603 -0.5159  0.6620 -0.5960
   81CHL1    O3 8403   1.670   6.745   6.436  0.1585 -0.4640 -0.1633
   81CHL1   H3' 8404   1.652   6.655   6.408  2.1067 -0.8559 -0.3242
   81CHL1    C4 8405   1.606   6.900   6.602 -0.3559  0.4653 -0.4471
   81CHL1   H4A 8406   1.678   6.976   6.567 -1.6636  1.4907 -1.0151
   81CHL1   H4B 8407   1.518   6.929   6.540  0.2613  0.0586 -1.5317
   81CHL1    C5 8408   1.585   6.924   6.753 -0.0204  0.0027  0.5675
   81CHL1    C6 8409   1.478   6.985   6.796 -0.4443  0.3860 -0.0086
   81CHL1    H6 8410   1.408   7.026   6.722  0.2080  0.4610 -0.6039
   81CHL1    C7 8411   1.460   7.024   6.941 -0.1135  0.4807 -0.9039
   81CHL1   H7A 8412   1.404   7.119   6.953  1.0540  1.0422  0.3038
   81CHL1   H7B 8413   1.389   6.952   6.986  1.2909  0.0448  0.7349
   81CHL1    C8 8414   1.582   7.016   7.034  0.2340  0.3245  0.0234
   81CHL1    H8 8415   1.643   7.105   7.008 -0.7045  0.8663 -0.3585
   81CHL1   C14 8416   1.540   7.013   7.181 -0.0944 -0.0714  1.0323
   81CHL1   H14 8417   1.468   6.929   7.191 -0.2034  0.1333  2.0713
   81CHL1   C15 8418   1.458   7.135   7.233 -0.0766 -0.1703 -0.7495
   81CHL1  H15A 8419   1.519   7.219   7.196  0.7806 -0.5029 -0.1318
   81CHL1  H15B 8420   1.357   7.149   7.189  0.3508  0.1587 -1.6451
   81CHL1   C16 8421   1.464   7.119   7.386 -0.0947  0.9999 -0.4720
   81CHL1  H16A 8422   1.512   7.209   7.430  1.7831 -0.4377  0.5836
   81CHL1  H16B 8423   1.372   7.089   7.440  0.5897 -1.9839 -0.7600
   81CHL1   C17 8424   1.575   7.010   7.417 -0.0953  1.0316 -0.5599
   81CHL1   H17 8425   1.520   6.915   7.436  1.3808  0.4127  0.8909
   81CHL1   C13 8426   1.653   6.996   7.285  0.0349 -0.3616  0.7205
   81CHL1   C18 8427   1.763   7.108   7.274  0.0295  0.1424 -0.1420
   81CHL1  H18A 8428   1.708   7.201   7.302  0.1661  0.5491 -1.1808
   81CHL1  H18B 8429   1.841   7.094   7.352  0.9969  0.4569 -1.0367
   81CHL1  H18C 8430   1.806   7.120   7.173 -0.1527  0.2881 -0.2022
   81CHL1   C12 8431   1.714   6.860   7.245  0.6419  0.4410 -0.3294
   81CHL1  H12A 8432   1.796   6.828   7.313  1.6165 -0.1505 -1.7401
   81CHL1  H12B 8433   1.635   6.782   7.253  1.4756 -0.3487  0.4606
   81CHL1   C11 8434   1.770   6.849   7.100  0.2750 -0.1743  0.2358
   81CHL1  H11A 8435   1.855   6.920   7.084 -1.1779  2.1702  2.2026
   81CHL1  H11B 8436   1.798   6.744   7.077 -0.3715 -0.6403  1.4740
   81CHL1    C9 8437   1.654   6.884   6.995 -0.3224  0.2022 -0.0532
   81CHL1    H9 8438   1.586   6.796   6.993  3.8184 -3.4281  1.9665
   81CHL1   C10 8439   1.700   6.875   6.844 -0.1374 -0.6691  0.3891
   81CHL1   C19 8440   1.827   6.959   6.824 -0.2584  0.4689 -0.0333
   81CHL1  H19A 8441   1.817   7.057   6.875  0.3126  1.2003 -1.2616
   81CHL1  H19B 8442   1.913   6.909   6.873 -0.7627  0.8751  1.3080
   81CHL1  H19C 8443   1.848   6.982   6.717 -1.9447 -1.2272 -0.8036
   81CHL1    C1 8444   1.739   6.731   6.801 -0.4106  0.3386 -0.2612
   81CHL1   H1A 8445   1.831   6.702   6.856  0.5576  1.6327 -1.1692
   81CHL1   H1B 8446   1.661   6.660   6.837 -0.0970 -0.6300 -1.4362
   81CHL1    C2 8447   1.765   6.717   6.652 -0.3685  0.3174  0.2897
   81CHL1   H2A 8448   1.793   6.620   6.604  0.0087  1.4545 -1.9109
   81CHL1   H2B 8449   1.850   6.781   6.621 -1.9117  1.5750 -1.6215
   81CHL1   C20 8450   1.650   7.029   7.552  0.3620  0.5422  0.3304
   81CHL1   H20 8451   1.694   7.131   7.544 -1.7542  1.7368  2.6434
   81CHL1   C21 8452   1.754   6.918   7.575  0.5432  0.8678 -0.6430
   81CHL1  H21A 8453   1.792   6.913   7.679 -2.5391 -0.3845  0.5245
   81CHL1  H21B 8454   1.834   6.914   7.498  0.7782  2.3235 -0.5060
   81CHL1  H21C 8455   1.701   6.821   7.563  0.8958  0.5796  0.1164
   81CHL1   C22 8456   1.546   7.034   7.668  0.8167  0.4197  0.5887
   81CHL1  H22A 8457   1.492   7.130   7.650 -1.3653 -0.9762 -0.7577
   81CHL1  H22B 8458   1.485   6.941   7.661  0.6158  0.6651 -3.2430
   81CHL1   C23 8459   1.610   7.027   7.805 -0.0091  0.3806  0.4558
   81CHL1  H23A 8460   1.634   6.919   7.820 -1.6845  0.3306  3.5081
   81CHL1  H23B 8461   1.706   7.082   7.797  0.7394 -0.9737 -0.4411
   81CHL1   C24 8462   1.519   7.069   7.913  0.5328 -0.2071 -0.3532
   81CHL1  H24A 8463   1.484   7.173   7.894  3.3206  0.7119 -0.7874
   81CHL1  H24B 8464   1.429   7.003   7.916 -1.6529  2.6174  1.0497
   81CHL1   C25 8465   1.580   7.051   8.058  0.5020  0.0101  0.5264
   81CHL1   H25 8466   1.496   7.069   8.128 -1.8093  1.6277 -2.4002
   81CHL1   C26 8467   1.639   6.911   8.078  0.6024  0.3734  0.3333
   81CHL1  H26A 8468   1.715   6.886   8.002  0.0103  0.4045 -0.2774
   81CHL1  H26B 8469   1.696   6.920   8.173 -2.1679 -1.6526  2.3675
   81CHL1  H26C 8470   1.559   6.834   8.084  0.3713  0.7078  2.4711
   81CHL1   C27 8471   1.685   7.165   8.081  0.0635 -0.5114 -0.8803
   81CHL1  H27A 8472   1.719   7.165   8.187 -0.5368 -1.5231 -0.6844
   81CHL1  H27B 8473   1.763   7.130   8.009 -0.0037  0.2153 -1.3147
   81CHL1  H27C 8474   1.645   7.263   8.046 -0.8619  0.0265  1.4788
   82CHL1    C3 8475   2.284   6.571   6.838  0.5429 -0.0346  0.4473
   82CHL1    H3 8476   2.315   6.465   6.837  2.4517  0.4633  1.8647
   82CHL1    O3 8477   2.313   6.640   6.717  0.0747 -0.0002 -0.4675
   82CHL1   H3' 8478   2.259   6.718   6.704  0.0844  0.3888  1.5210
   82CHL1    C4 8479   2.130   6.567   6.861  0.0770 -0.4029  0.2527
   82CHL1   H4A 8480   2.100   6.675   6.865 -3.1482 -1.1935  0.4801
   82CHL1   H4B 8481   2.080   6.518   6.775 -0.6021  0.1463  0.3251
   82CHL1    C5 8482   2.100   6.500   6.993  0.1183  0.7478  0.3426
   82CHL1    C6 8483   2.021   6.393   6.995 -0.3040  0.7217 -0.6017
   82CHL1    H6 8484   1.969   6.364   6.903 -2.3867  1.4893  0.2504
   82CHL1    C7 8485   1.993   6.325   7.124 -0.0324  0.0044  0.0551
   82CHL1   H7A 8486   1.900   6.264   7.124 -1.6235  2.2172 -2.1803
   82CHL1   H7B 8487   2.069   6.248   7.150 -1.6689 -1.2998  1.2115
   82CHL1    C8 8488   2.005   6.416   7.249  0.3504 -0.5984  0.8252
   82CHL1    H8 8489   1.927   6.495   7.234  0.0725 -0.4898  2.5947
   82CHL1   C14 8490   1.988   6.341   7.378  0.2536 -0.4895 -0.4483
   82CHL1   H14 8491   2.056   6.254   7.371 -1.5428 -2.0178  0.2704
   82CHL1   C15 8492   1.844   6.278   7.388  0.2705  0.2778 -0.5339
   82CHL1  H15A 8493   1.770   6.356   7.361  0.1962  0.5275  0.3482
   82CHL1  H15B 8494   1.831   6.182   7.335 -0.5893  0.2200 -0.2346
   82CHL1   C16 8495   1.837   6.245   7.543 -0.4005 -0.0711 -0.0265
   82CHL1  H16A 8496   1.745   6.291   7.586 -0.2582 -0.9905  1.3116
   82CHL1  H16B 8497   1.833   6.137   7.566  1.0557 -0.0771  0.2648
   82CHL1   C17 8498   1.958   6.310   7.613 -0.4716 -1.1232  0.2037
   82CHL1   H17 8499   2.039   6.235   7.604 -0.2187 -0.6212 -2.6718
   82CHL1   C13 8500   2.004   6.425   7.506  0.2860  0.0028  0.1475
   82CHL1   C18 8501   1.907   6.543   7.527  0.1776 -1.0853  0.2346
   82CHL1  H18A 8502   1.802   6.508   7.525  0.1798 -1.0698 -0.5655
   82CHL1  H18B 8503   1.943   6.596   7.618 -0.9592 -1.0374  0.6635
   82CHL1  H18C 8504   1.926   6.609   7.439 -0.7393 -3.2705 -1.7302
   82CHL1   C12 8505   2.145   6.479   7.505  0.2705 -0.7159  0.1966
   82CHL1  H12A 8506   2.168   6.544   7.592  3.2984  1.0348 -1.7258
   82CHL1  H12B 8507   2.219   6.397   7.504  2.3428  1.0257  1.6344
   82CHL1   C11 8508   2.166   6.567   7.380 -0.3264 -0.1434 -0.2513
   82CHL1  H11A 8509   2.114   6.665   7.389  0.2104  0.0597  0.8942
   82CHL1  H11B 8510   2.275   6.588   7.374  0.0643 -1.0907  2.2600
   82CHL1    C9 8511   2.143   6.489   7.245 -1.2321  0.1125 -0.8735
   82CHL1    H9 8512   2.222   6.412   7.258  0.8622  2.2098 -0.5698
   82CHL1   C10 8513   2.166   6.562   7.116  0.0320  0.2379  0.1593
   82CHL1   C19 8514   2.111   6.713   7.133 -0.0203 -0.1533 -0.2882
   82CHL1  H19A 8515   2.003   6.722   7.155  0.0727  0.6804 -0.1552
   82CHL1  H19B 8516   2.174   6.761   7.210  2.2101 -1.2563 -1.3158
   82CHL1  H19C 8517   2.118   6.770   7.037 -3.4670 -1.3214 -1.3961
   82CHL1    C1 8518   2.322   6.575   7.086 -0.4325 -0.0333  0.1046
   82CHL1   H1A 8519   2.368   6.639   7.164 -2.1228  0.1854  0.9735
   82CHL1   H1B 8520   2.368   6.475   7.098  1.0071  0.4869 -0.7938
   82CHL1    C2 8521   2.362   6.630   6.947  0.3651  0.3017 -0.0277
   82CHL1   H2A 8522   2.472   6.626   6.930  0.2730 -1.2483 -0.3787
   82CHL1   H2B 8523   2.341   6.738   6.958  3.7155  0.8215  3.5503
   82CHL1   C20 8524   1.942   6.338   7.763  0.4921  0.3985 -0.6111
   82CHL1   H20 8525   1.875   6.426   7.769 -1.8094 -1.3760  1.7680
   82CHL1   C21 8526   2.079   6.355   7.818  0.1851 -1.0649 -0.6149
   82CHL1  H21A 8527   2.122   6.447   7.773 -1.7320  0.6454  0.8414
   82CHL1  H21B 8528   2.155   6.275   7.807 -0.7758 -2.3825  1.6181
   82CHL1  H21C 8529   2.071   6.377   7.927 -1.8778 -0.1748 -0.8838
   82CHL1   C22 8530   1.872   6.224   7.841  0.2885  0.0635 -1.1783
   82CHL1  H22A 8531   1.765   6.208   7.818 -0.1405  3.3074 -1.9071
   82CHL1  H22B 8532   1.927   6.132   7.812 -1.5508 -0.2821 -3.9636
   82CHL1   C23 8533   1.878   6.220   7.992  0.3475 -0.2198 -0.6754
   82CHL1  H23A 8534   1.983   6.216   8.026  0.1950 -1.7557 -0.3007
   82CHL1  H23B 8535   1.845   6.323   8.018  0.2994 -0.4343  0.1234
   82CHL1   C24 8536   1.787   6.120   8.069 -0.5584 -0.2989 -0.2996
   82CHL1  H24A 8537   1.685   6.145   8.032 -0.5933 -1.4814 -1.0567
   82CHL1  H24B 8538   1.813   6.018   8.033 -0.3378 -0.3560  0.0190
   82CHL1   C25 8539   1.790   6.127   8.225 -1.2773 -0.1673  0.3148
   82CHL1   H25 8540   1.772   6.233   8.253  2.3098  1.1818 -1.6851
   82CHL1   C26 8541   1.669   6.047   8.269 -0.2051  0.2028  0.3906
   82CHL1  H26A 8542   1.586   6.107   8.226 -1.1787 -1.1394  0.3219
   82CHL1  H26B 8543   1.672   5.946   8.223  0.9167  0.8626 -1.0738
   82CHL1  H26C 8544   1.657   6.033   8.379  1.4056 -1.7665  0.3796
   82CHL1   C27 8545   1.927   6.077   8.284 -0.3114 -0.5764  0.3013
   82CHL1  H27A 8546   2.005   6.156   8.286 -1.0026  0.1144  0.1814
   82CHL1  H27B 8547   1.899   6.053   8.389 -2.0233 -0.6762 -0.1554
   82CHL1  H27C 8548   1.959   5.989   8.223  0.5910 -0.6834  0.9103
   83CHL1    C3 8549   5.430   5.714   6.765 -0.2664 -0.0380 -0.0694
   83CHL1    H3 8550   5.472   5.804   6.814 -0.0871 -0.6010  0.8465
   83CHL1    O3 8551   5.403   5.750   6.633  0.1700 -0.0374  0.0789
   83CHL1   H3' 8552   5.368   5.667   6.600 -2.3417  0.9208  0.1009
   83CHL1    C4 8553   5.531   5.600   6.777 -0.4852  0.6760  0.0359
   83CHL1   H4A 8554   5.481   5.518   6.722 -0.0453 -0.0031  0.6257
   83CHL1   H4B 8555   5.624   5.619   6.721  0.9027  0.5594  2.1876
   83CHL1    C5 8556   5.564   5.558   6.920  0.5310  0.3387  0.3065
   83CHL1    C6 8557   5.692   5.564   6.965 -0.5354  0.1693 -0.2602
   83CHL1    H6 8558   5.778   5.588   6.900 -0.0908 -2.4145 -0.7576
   83CHL1    C7 8559   5.739   5.531   7.104  0.6658  0.1431 -1.1631
   83CHL1   H7A 8560   5.825   5.460   7.099 -1.4757 -2.8266  0.5397
   83CHL1   H7B 8561   5.776   5.622   7.156  1.0492 -0.8992  0.4521
   83CHL1    C8 8562   5.625   5.463   7.187 -0.3835 -0.4053 -0.0256
   83CHL1    H8 8563   5.625   5.354   7.167 -3.7232 -0.9907  2.3470
   83CHL1   C14 8564   5.652   5.476   7.337  0.4237 -0.3674 -0.0428
   83CHL1   H14 8565   5.653   5.583   7.366  0.5888 -0.7352  1.3797
   83CHL1   C15 8566   5.784   5.420   7.384  0.0681  0.1735  0.5176
   83CHL1  H15A 8567   5.827   5.330   7.335  2.3717  0.3682  1.9990
   83CHL1  H15B 8568   5.862   5.497   7.367 -0.2448  0.3771 -0.0179
   83CHL1   C16 8569   5.763   5.395   7.529  0.8984  0.8828  0.2547
   83CHL1  H16A 8570   5.780   5.288   7.556  2.3094  1.0466  0.0581
   83CHL1  H16B 8571   5.825   5.466   7.589  0.6007  1.2829  0.0931
   83CHL1   C17 8572   5.615   5.422   7.565  0.0804 -0.3074  0.3411
   83CHL1   H17 8573   5.607   5.531   7.585 -2.5987 -0.2163 -0.7810
   83CHL1   C13 8574   5.548   5.404   7.423 -0.6850  0.8839  1.1354
   83CHL1   C18 8575   5.540   5.249   7.387  0.1680 -0.2074 -0.1306
   83CHL1  H18A 8576   5.635   5.193   7.379 -0.0755 -0.8237  1.0668
   83CHL1  H18B 8577   5.478   5.200   7.465  1.7703 -0.5870  0.9454
   83CHL1  H18C 8578   5.477   5.239   7.295  0.6274  0.1363 -0.4896
   83CHL1   C12 8579   5.409   5.465   7.410 -0.0022 -0.6820  0.1762
   83CHL1  H12A 8580   5.333   5.408   7.467 -0.7485  1.3510  1.2797
   83CHL1  H12B 8581   5.409   5.563   7.462 -0.8369 -1.3231  1.4511
   83CHL1   C11 8582   5.374   5.478   7.257  0.2800 -0.3110 -0.1577
   83CHL1  H11A 8583   5.328   5.379   7.237 -0.4678 -0.5565  2.3732
   83CHL1  H11B 8584   5.295   5.556   7.250  1.3275  1.1155  2.5393
   83CHL1    C9 8585   5.483   5.527   7.161 -0.1771  0.0074 -0.0719
   83CHL1    H9 8586   5.504   5.631   7.195 -0.5317  0.0857 -0.0923
   83CHL1   C10 8587   5.446   5.531   7.008  0.5650  0.2220  0.2619
   83CHL1   C19 8588   5.391   5.391   6.961 -0.1718 -0.2005 -0.2193
   83CHL1  H19A 8589   5.293   5.368   7.007 -0.5348  1.5112 -0.0841
   83CHL1  H19B 8590   5.388   5.371   6.852 -1.8794  0.3287 -0.2907
   83CHL1  H19C 8591   5.450   5.307   7.006 -1.8674 -1.3446 -0.0478
   83CHL1    C1 8592   5.331   5.631   6.983  0.3256 -0.6903 -0.2798
   83CHL1   H1A 8593   5.244   5.580   7.029  1.6863 -0.3049  2.9738
   83CHL1   H1B 8594   5.362   5.721   7.040  0.5394 -0.6807 -0.4095
   83CHL1    C2 8595   5.300   5.669   6.839 -0.0930  0.6552  0.3953
   83CHL1   H2A 8596   5.229   5.755   6.835 -1.9628 -0.8471 -0.5192
   83CHL1   H2B 8597   5.257   5.583   6.783 -0.5297  0.7529  0.5764
   83CHL1   C20 8598   5.564   5.340   7.685 -0.2239 -0.2553  0.1086
   83CHL1   H20 8599   5.545   5.233   7.659 -0.3297 -0.1965 -0.0590
   83CHL1   C21 8600   5.426   5.371   7.744  0.6429 -0.0086 -0.2968
   83CHL1  H21A 8601   5.413   5.317   7.841 -1.2522 -1.5598 -1.3527
   83CHL1  H21B 8602   5.341   5.333   7.683  1.6502 -2.5674 -0.2544
   83CHL1  H21C 8603   5.412   5.478   7.767 -1.9302 -0.3366 -0.0407
   83CHL1   C22 8604   5.663   5.335   7.803  0.4489 -0.6442 -0.4136
   83CHL1  H22A 8605   5.615   5.287   7.891 -1.2921 -2.2224 -2.1173
   83CHL1  H22B 8606   5.762   5.294   7.777  1.7203  2.5116 -1.0054
   83CHL1   C23 8607   5.693   5.483   7.859  0.6587  0.8147 -0.2594
   83CHL1  H23A 8608   5.723   5.552   7.777  0.5546  0.5384 -0.5370
   83CHL1  H23B 8609   5.597   5.512   7.907  0.8986  0.2339  0.6025
   83CHL1   C24 8610   5.794   5.456   7.969  0.2665  0.5700  0.0657
   83CHL1  H24A 8611   5.757   5.386   8.047 -0.0959  2.4460  1.6472
   83CHL1  H24B 8612   5.888   5.408   7.933  0.1897 -0.0230  0.6311
   83CHL1   C25 8613   5.848   5.580   8.038 -0.6324  0.0249  1.0373
   83CHL1   H25 8614   5.919   5.538   8.113 -0.1767  0.7631  1.0387
   83CHL1   C26 8615   5.929   5.666   7.933 -0.2386 -0.0760 -0.9870
   83CHL1  H26A 8616   5.953   5.773   7.947  1.0598 -0.3451 -1.0512
   83CHL1  H26B 8617   6.019   5.613   7.896  0.6649  0.6880  0.0376
   83CHL1  H26C 8618   5.865   5.670   7.842 -0.5201 -0.1405 -0.7946
   83CHL1   C27 8619   5.743   5.657   8.116  0.5287 -0.4000 -0.1981
   83CHL1  H27A 8620   5.662   5.704   8.055  0.7028 -0.7735 -0.7230
   83CHL1  H27B 8621   5.693   5.590   8.189 -0.4727  0.8115  0.2771
   83CHL1  H27C 8622   5.783   5.741   8.177  0.1792 -1.0280  0.9288
   84CHL1    C3 8623   0.541   5.937   6.883  0.4213  0.0102 -0.4379
   84CHL1    H3 8624   0.543   5.826   6.879 -1.6207 -0.0686 -0.4629
   84CHL1    O3 8625   0.516   5.987   6.750 -0.3528 -0.3227  0.4736
   84CHL1   H3' 8626   0.592   5.957   6.698  0.5922  3.1331 -0.3810
   84CHL1    C4 8627   0.404   5.970   6.951 -0.9619 -0.0528 -0.6011
   84CHL1   H4A 8628   0.376   6.074   6.925 -0.2730 -0.4271 -3.0938
   84CHL1   H4B 8629   0.337   5.892   6.910  1.5082 -1.6829 -1.7587
   84CHL1    C5 8630   0.413   5.942   7.099  0.6088  0.0606 -0.1559
   84CHL1    C6 8631   0.326   5.864   7.164  0.5953  0.0772  0.2380
   84CHL1    H6 8632   0.249   5.810   7.108  1.8151 -0.5430 -0.9065
   84CHL1    C7 8633   0.320   5.842   7.311 -0.4588 -0.1760 -0.1166
   84CHL1   H7A 8634   0.214   5.844   7.343 -0.2884 -2.6827  0.9004
   84CHL1   H7B 8635   0.349   5.736   7.328 -1.1361  0.0910  3.3847
   84CHL1    C8 8636   0.407   5.938   7.391  0.0206 -0.1728 -0.0256
   84CHL1    H8 8637   0.361   6.039   7.386  2.1082  0.8117 -0.8811
   84CHL1   C14 8638   0.420   5.902   7.534  0.5016  0.1740  0.6585
   84CHL1   H14 8639   0.477   5.807   7.526  1.2468  0.6717 -0.1035
   84CHL1   C15 8640   0.292   5.855   7.613 -0.2914 -0.1264 -0.5738
   84CHL1  H15A 8641   0.213   5.927   7.584 -1.1222 -0.7833  0.0330
   84CHL1  H15B 8642   0.259   5.750   7.600 -2.0796  0.3489 -0.0659
   84CHL1   C16 8643   0.335   5.877   7.762  0.5307  0.2353  0.2138
   84CHL1  H16A 8644   0.262   5.952   7.801  0.0192  0.1698 -0.6028
   84CHL1  H16B 8645   0.325   5.787   7.826  0.7539 -0.4061 -0.6376
   84CHL1   C17 8646   0.480   5.933   7.757 -0.5407  0.0202 -0.1461
   84CHL1   H17 8647   0.547   5.844   7.750 -0.7847 -0.1365 -0.5091
   84CHL1   C13 8648   0.499   6.000   7.619  0.4208 -0.2508  0.0997
   84CHL1   C18 8649   0.422   6.135   7.601 -0.7472  0.5744  0.1521
   84CHL1  H18A 8650   0.316   6.132   7.634 -1.5461 -1.6181 -2.2732
   84CHL1  H18B 8651   0.475   6.213   7.661  0.4317 -0.9406  1.1584
   84CHL1  H18C 8652   0.431   6.178   7.499 -0.8565 -1.1912 -0.6430
   84CHL1   C12 8653   0.642   6.011   7.563  0.5188 -0.5575  0.3054
   84CHL1  H12A 8654   0.699   6.093   7.611 -0.9902 -0.0008  1.2017
   84CHL1  H12B 8655   0.700   5.918   7.581  1.5436 -0.7681 -3.1932
   84CHL1   C11 8656   0.652   6.036   7.412  0.4925 -0.6140 -0.0886
   84CHL1  H11A 8657   0.652   6.146   7.405  0.5795 -0.7348 -2.9798
   84CHL1  H11B 8658   0.754   6.006   7.379  0.1261  0.4633 -2.3928
   84CHL1    C9 8659   0.546   5.954   7.327  0.1832 -0.4895 -0.1469
   84CHL1    H9 8660   0.589   5.852   7.327  2.6133  0.4817  0.5741
   84CHL1   C10 8661   0.533   6.001   7.178  0.1393  0.1735  0.2084
   84CHL1   C19 8662   0.511   6.163   7.175 -0.2300  0.2948 -0.2919
   84CHL1  H19A 8663   0.592   6.217   7.229  0.2801 -0.2978 -0.4501
   84CHL1  H19B 8664   0.520   6.204   7.073  0.2734 -0.7541 -0.6852
   84CHL1  H19C 8665   0.413   6.184   7.223 -0.1624 -0.3078  0.1288
   84CHL1    C1 8666   0.666   5.967   7.105  0.1047  0.0019  0.4719
   84CHL1   H1A 8667   0.742   6.030   7.155  0.6444  1.2966 -1.8073
   84CHL1   H1B 8668   0.704   5.864   7.126  0.7500  0.4930  1.8023
   84CHL1    C2 8669   0.657   6.010   6.956 -0.0902 -0.6821  0.7490
   84CHL1   H2A 8670   0.753   5.970   6.916  0.1455 -1.1445  1.7390
   84CHL1   H2B 8671   0.655   6.121   6.950  1.5543 -0.5832  1.4901
   84CHL1   C20 8672   0.532   6.015   7.875  0.2107 -0.0793 -0.3670
   84CHL1   H20 8673   0.634   6.051   7.850  0.6968 -2.2083 -1.6446
   84CHL1   C21 8674   0.545   5.933   8.000 -0.3884 -0.2031 -0.0351
   84CHL1  H21A 8675   0.629   5.966   8.065  1.4853 -1.8757 -1.4647
   84CHL1  H21B 8676   0.574   5.835   7.956  3.2516  0.8399 -0.2708
   84CHL1  H21C 8677   0.448   5.928   8.053 -0.8930  1.7190 -0.6851
   84CHL1   C22 8678   0.449   6.137   7.917  0.2951  0.5398 -0.3785
   84CHL1  H22A 8679   0.383   6.176   7.837 -0.6508  2.7417  1.3860
   84CHL1  H22B 8680   0.378   6.111   7.999  3.6410 -2.2470  1.9656
   84CHL1   C23 8681   0.534   6.248   7.970 -0.0339  0.2550  0.3051
   84CHL1  H23A 8682   0.473   6.303   8.045 -0.4977  0.9787 -0.5853
   84CHL1  H23B 8683   0.617   6.202   8.027 -1.6740 -1.5266  1.3911
   84CHL1   C24 8684   0.585   6.348   7.861  0.9400  0.6279  0.4253
   84CHL1  H24A 8685   0.641   6.286   7.789 -1.2462 -0.7938 -0.1533
   84CHL1  H24B 8686   0.494   6.381   7.807  1.4180 -0.4906 -1.1228
   84CHL1   C25 8687   0.672   6.467   7.918 -0.6724 -0.2519  1.0779
   84CHL1   H25 8688   0.740   6.412   7.986 -0.9158 -0.1624  1.3983
   84CHL1   C26 8689   0.750   6.542   7.811  0.0995  0.0314 -0.2539
   84CHL1  H26A 8690   0.824   6.605   7.866  0.5455 -0.8896  0.2111
   84CHL1  H26B 8691   0.813   6.467   7.759 -0.5844 -0.4432 -0.4133
   84CHL1  H26C 8692   0.681   6.595   7.741  0.1714  0.7121  0.1773
   84CHL1   C27 8693   0.589   6.563   7.993  0.0736 -0.4790 -0.0987
   84CHL1  H27A 8694   0.643   6.654   8.028 -1.7227  0.0768  1.4113
   84CHL1  H27B 8695   0.512   6.613   7.930  1.9370  1.2445 -1.1473
   84CHL1  H27C 8696   0.559   6.509   8.085  0.5557 -1.0140 -0.2540
   85CHL1    C3 8697   1.604   3.007   6.522 -0.0448 -0.1898  0.0150
   85CHL1    H3 8698   1.551   2.912   6.504 -0.7613  0.3967 -1.0583
   85CHL1    O3 8699   1.641   3.050   6.393  0.5873  0.0986  0.2033
   85CHL1   H3' 8700   1.639   2.972   6.338  0.9839 -1.5553  2.3996
   85CHL1    C4 8701   1.508   3.102   6.589  0.4640  0.4030 -0.3703
   85CHL1   H4A 8702   1.548   3.205   6.603  1.0004  0.0538  0.7797
   85CHL1   H4B 8703   1.419   3.111   6.523 -0.4751 -0.4784  0.7461
   85CHL1    C5 8704   1.491   3.058   6.733 -0.3929  0.2968 -0.5030
   85CHL1    C6 8705   1.368   3.044   6.778  0.1843  0.1489 -0.5535
   85CHL1    H6 8706   1.279   3.058   6.715 -0.7269 -0.0207  0.6756
   85CHL1    C7 8707   1.342   3.017   6.925 -0.2715 -0.0656  0.0387
   85CHL1   H7A 8708   1.243   3.056   6.959  0.8642  1.3708  1.9635
   85CHL1   H7B 8709   1.342   2.907   6.939 -0.6059  0.0166  0.7382
   85CHL1    C8 8710   1.455   3.075   7.022  0.3171  0.2387 -0.0821
   85CHL1    H8 8711   1.465   3.185   7.012  1.9734  0.3218  1.8709
   85CHL1   C14 8712   1.428   3.032   7.162  0.9394  0.4166 -0.0236
   85CHL1   H14 8713   1.424   2.923   7.182  0.6011  0.3687 -0.3339
   85CHL1   C15 8714   1.293   3.076   7.224  0.3209  0.0541  0.6555
   85CHL1  H15A 8715   1.263   3.177   7.187  3.8751  0.7011 -0.9065
   85CHL1  H15B 8716   1.215   2.999   7.205  1.4312 -1.4334  1.8910
   85CHL1   C16 8717   1.310   3.081   7.370  0.2823  0.0431  0.0329
   85CHL1  H16A 8718   1.292   3.186   7.402 -1.9879 -0.3140  0.0537
   85CHL1  H16B 8719   1.239   3.010   7.417  1.1248 -1.2238 -0.5315
   85CHL1   C17 8720   1.461   3.038   7.387 -0.3976 -0.1938 -0.3814
   85CHL1   H17 8721   1.455   2.928   7.397 -1.5498 -0.0503  0.7000
   85CHL1   C13 8722   1.540   3.081   7.257  0.4880  0.9085 -0.2127
   85CHL1   C18 8723   1.569   3.234   7.258 -0.3689 -0.3158  0.1742
   85CHL1  H18A 8724   1.639   3.273   7.335  0.0237 -0.1211 -0.2743
   85CHL1  H18B 8725   1.600   3.260   7.154 -1.4073  1.5286  0.2663
   85CHL1  H18C 8726   1.469   3.283   7.266  0.0454  0.5158  0.4035
   85CHL1   C12 8727   1.670   3.001   7.215  0.5063 -0.3963 -0.2616
   85CHL1  H12A 8728   1.759   3.029   7.277 -1.6197  1.6185  2.1067
   85CHL1  H12B 8729   1.651   2.900   7.257  0.7619 -0.7329 -0.9446
   85CHL1   C11 8730   1.708   3.016   7.069 -0.2056  0.5686  0.2432
   85CHL1  H11A 8731   1.752   3.117   7.058  1.4800  0.0157  1.4297
   85CHL1  H11B 8732   1.789   2.943   7.044 -0.4069  0.8106 -1.2134
   85CHL1    C9 8733   1.589   3.005   6.971  0.4101 -0.6858  0.4251
   85CHL1    H9 8734   1.573   2.895   6.965  0.7790 -0.6749 -1.6108
   85CHL1   C10 8735   1.620   3.044   6.821 -1.0109 -0.1566  0.0671
   85CHL1   C19 8736   1.703   3.178   6.830  0.5817  0.2681 -0.8219
   85CHL1  H19A 8737   1.648   3.254   6.889  1.7386  0.7482 -0.3452
   85CHL1  H19B 8738   1.804   3.161   6.872 -0.2129  0.2354  1.1720
   85CHL1  H19C 8739   1.728   3.212   6.727  2.7486  1.1732 -0.0362
   85CHL1    C1 8740   1.711   2.941   6.754 -0.0482  0.1090 -0.9135
   85CHL1   H1A 8741   1.801   2.909   6.811 -0.1653  2.0830  0.5215
   85CHL1   H1B 8742   1.652   2.847   6.758  1.9233 -1.3422 -3.2052
   85CHL1    C2 8743   1.733   2.974   6.607  0.6805 -0.8744  0.1026
   85CHL1   H2A 8744   1.798   2.893   6.568  1.0566 -1.0617  1.0921
   85CHL1   H2B 8745   1.788   3.068   6.590 -0.9797 -0.3793 -3.3651
   85CHL1   C20 8746   1.519   3.086   7.525 -0.2656  0.4368  0.6489
   85CHL1   H20 8747   1.540   3.195   7.513 -0.2188  0.2707 -1.0296
   85CHL1   C21 8748   1.656   3.016   7.552 -0.1512 -0.6165  0.1037
   85CHL1  H21A 8749   1.695   3.036   7.654  2.2192 -0.7393 -0.7230
   85CHL1  H21B 8750   1.736   3.060   7.490  1.6087  1.0310  3.2933
   85CHL1  H21C 8751   1.636   2.907   7.549 -1.8736 -0.5713  4.1676
   85CHL1   C22 8752   1.422   3.071   7.653 -0.4163 -0.6601  0.1582
   85CHL1  H22A 8753   1.338   3.142   7.638  1.5694  1.6719 -0.4579
   85CHL1  H22B 8754   1.386   2.966   7.645 -0.0264 -0.7225 -0.9763
   85CHL1   C23 8755   1.483   3.119   7.788  0.9940  0.9371  0.0347
   85CHL1  H23A 8756   1.567   3.057   7.826  0.2188 -1.0634 -1.4076
   85CHL1  H23B 8757   1.527   3.220   7.773  1.6068  0.6312 -0.2784
   85CHL1   C24 8758   1.379   3.107   7.906 -0.6424 -0.1651  0.6775
   85CHL1  H24A 8759   1.294   3.178   7.897  1.0933  1.9312  0.1590
   85CHL1  H24B 8760   1.340   3.003   7.898  1.3408 -0.8711 -0.3809
   85CHL1   C25 8761   1.440   3.119   8.052 -0.2960  0.4782  0.0217
   85CHL1   H25 8762   1.533   3.059   8.058  1.1043  2.4183 -1.1014
   85CHL1   C26 8763   1.479   3.264   8.087  0.5195  0.1291  0.4187
   85CHL1  H26A 8764   1.555   3.296   8.014 -1.4790  0.2287 -1.7338
   85CHL1  H26B 8765   1.390   3.331   8.083  1.3966  1.3440  0.7849
   85CHL1  H26C 8766   1.517   3.267   8.191  0.7883  0.0192  0.3240
   85CHL1   C27 8767   1.330   3.074   8.151 -0.0744  0.6055 -0.0317
   85CHL1  H27A 8768   1.363   3.076   8.257  1.3999 -0.9865 -0.3987
   85CHL1  H27B 8769   1.236   3.123   8.118 -0.9911 -2.1901 -1.9743
   85CHL1  H27C 8770   1.304   2.967   8.138 -3.1319  1.2608  0.0399
   86CHL1    C3 8771   2.486   6.148   6.811  0.7133 -0.2468  0.5716
   86CHL1    H3 8772   2.538   6.247   6.816  1.6277 -0.5945 -1.2518
   86CHL1    O3 8773   2.452   6.109   6.683  0.0340  0.0410  0.4328
   86CHL1   H3' 8774   2.393   6.034   6.689 -1.0999  0.8439 -0.3367
   86CHL1    C4 8775   2.592   6.057   6.873  0.0639  0.5072 -0.9197
   86CHL1   H4A 8776   2.567   5.950   6.859  0.2504  0.1230  1.3546
   86CHL1   H4B 8777   2.686   6.063   6.815 -0.2021  1.0236 -1.3103
   86CHL1    C5 8778   2.600   6.078   7.024 -0.4929  0.8480  0.4800
   86CHL1    C6 8779   2.721   6.094   7.078 -0.3969 -0.4365  0.6953
   86CHL1    H6 8780   2.808   6.120   7.015 -1.4906  3.0087  0.3760
   86CHL1    C7 8781   2.747   6.089   7.218  0.0068  0.3128  0.0782
   86CHL1   H7A 8782   2.832   6.020   7.239  0.1244  0.8399  1.4668
   86CHL1   H7B 8783   2.789   6.190   7.239  0.4071 -0.0784  1.2814
   86CHL1    C8 8784   2.625   6.050   7.311 -0.0168  0.8679 -0.0339
   86CHL1    H8 8785   2.624   5.940   7.294 -0.0287  1.2218 -2.7264
   86CHL1   C14 8786   2.638   6.090   7.454  0.2137 -0.4797  0.5760
   86CHL1   H14 8787   2.629   6.201   7.449 -0.2005 -0.5215  0.3405
   86CHL1   C15 8788   2.770   6.051   7.518 -0.0463 -0.1454  0.7856
   86CHL1  H15A 8789   2.792   5.947   7.484 -0.6628  0.3158 -1.1487
   86CHL1  H15B 8790   2.852   6.123   7.498  0.2291 -1.2978 -3.3160
   86CHL1   C16 8791   2.732   6.045   7.667 -0.5914 -0.6738 -0.8376
   86CHL1  H16A 8792   2.760   5.946   7.708  1.5668  0.7974  1.5500
   86CHL1  H16B 8793   2.781   6.125   7.726 -2.1894 -0.9864  1.0345
   86CHL1   C17 8794   2.581   6.083   7.678 -0.8843  0.3272  0.1972
   86CHL1   H17 8795   2.583   6.194   7.677  0.4127  0.3408  1.3548
   86CHL1   C13 8796   2.523   6.039   7.542  0.4118  0.1476  0.3099
   86CHL1   C18 8797   2.506   5.886   7.534  0.4446  1.1626  0.1342
   86CHL1  H18A 8798   2.450   5.841   7.619  1.2155 -1.0422 -0.4640
   86CHL1  H18B 8799   2.453   5.857   7.440 -0.2537  0.0489  0.8450
   86CHL1  H18C 8800   2.601   5.830   7.535  0.3785  1.0473  0.0760
   86CHL1   C12 8801   2.391   6.100   7.491 -0.5916 -0.1844 -0.2481
   86CHL1  H12A 8802   2.315   6.044   7.550  0.4009 -1.7911 -0.4057
   86CHL1  H12B 8803   2.385   6.206   7.522  1.1731 -0.2129  0.3066
   86CHL1   C11 8804   2.364   6.085   7.342 -0.4972 -0.1036 -0.0865
   86CHL1  H11A 8805   2.324   5.982   7.334 -1.9333  0.3393  0.9246
   86CHL1  H11B 8806   2.274   6.142   7.310 -0.2022 -1.3023 -3.4309
   86CHL1    C9 8807   2.490   6.107   7.252 -0.1516 -0.1396 -0.3955
   86CHL1    H9 8808   2.500   6.218   7.258 -1.8202  0.0805 -0.9058
   86CHL1   C10 8809   2.469   6.070   7.102 -0.9858  0.3181  0.0714
   86CHL1   C19 8810   2.410   5.924   7.093  0.3036  0.8018 -0.2441
   86CHL1  H19A 8811   2.462   5.858   7.164 -0.5968  0.9069  0.5333
   86CHL1  H19B 8812   2.303   5.909   7.117  0.6359 -2.2214 -0.3054
   86CHL1  H19C 8813   2.418   5.884   6.989  1.6889 -0.2860  0.2516
   86CHL1    C1 8814   2.370   6.162   7.042  0.5950 -0.4992  0.1954
   86CHL1   H1A 8815   2.272   6.157   7.093  0.8251  3.6275  1.4117
   86CHL1   H1B 8816   2.401   6.267   7.062 -0.5791  0.7073 -3.4300
   86CHL1    C2 8817   2.351   6.164   6.883  1.0117 -0.1423  0.1202
   86CHL1   H2A 8818   2.304   6.258   6.846  0.7218 -0.1224  0.5329
   86CHL1   H2B 8819   2.294   6.072   6.859  0.7168  0.0987 -0.1094
   86CHL1   C20 8820   2.510   6.035   7.802 -0.3545 -0.0433 -0.9056
   86CHL1   H20 8821   2.482   5.929   7.786  1.8640 -1.0802  1.4445
   86CHL1   C21 8822   2.388   6.131   7.817 -1.3220 -0.2147 -0.1880
   86CHL1  H21A 8823   2.327   6.100   7.905 -1.1158  1.4887  0.5864
   86CHL1  H21B 8824   2.320   6.116   7.730 -2.2064  0.6294  0.3360
   86CHL1  H21C 8825   2.420   6.236   7.831  0.2580 -0.5913 -0.7227
   86CHL1   C22 8826   2.585   6.033   7.939  0.3697  0.7627 -0.5731
   86CHL1  H22A 8827   2.520   5.981   8.013 -2.1407  0.9422 -2.5161
   86CHL1  H22B 8828   2.677   5.977   7.914  0.1101  0.3002 -0.5041
   86CHL1   C23 8829   2.632   6.163   8.001  0.0256 -0.5541  0.3830
   86CHL1  H23A 8830   2.681   6.220   7.918 -1.0545 -0.7822 -0.4285
   86CHL1  H23B 8831   2.552   6.230   8.039  1.7325  2.2994 -0.6625
   86CHL1   C24 8832   2.740   6.141   8.110 -0.3440 -0.1399 -0.2923
   86CHL1  H24A 8833   2.698   6.074   8.188 -0.1351 -0.5901 -0.5621
   86CHL1  H24B 8834   2.835   6.103   8.067  0.3517  0.6607  0.4945
   86CHL1   C25 8835   2.793   6.273   8.185  0.2929  0.4485 -0.2448
   86CHL1   H25 8836   2.695   6.311   8.222 -0.1115 -2.0225  1.5000
   86CHL1   C26 8837   2.873   6.229   8.314 -0.4064 -0.2007  0.8385
   86CHL1  H26A 8838   2.961   6.172   8.280  0.3483  0.6044  1.4006
   86CHL1  H26B 8839   2.898   6.316   8.379  1.4530  0.8589 -1.1852
   86CHL1  H26C 8840   2.815   6.153   8.371  1.6571 -0.8579  2.1809
   86CHL1   C27 8841   2.856   6.389   8.114 -0.4537 -1.0583  0.2393
   86CHL1  H27A 8842   2.905   6.461   8.183 -1.8188 -0.8577  1.0462
   86CHL1  H27B 8843   2.938   6.358   8.046  0.4153  1.3907  0.0533
   86CHL1  H27C 8844   2.778   6.442   8.055 -0.3505 -0.9389  0.2104
   87CHL1    C3 8845   1.870   4.493   6.726 -0.8408  0.3627 -0.3621
   87CHL1    H3 8846   1.909   4.395   6.692  0.4717 -0.0050  2.0029
   87CHL1    O3 8847   1.858   4.590   6.621  0.5521  0.3722  0.1820
   87CHL1   H3' 8848   1.766   4.582   6.595  0.9450  1.3051 -1.6698
   87CHL1    C4 8849   1.744   4.484   6.816  0.4073 -0.7030  0.6849
   87CHL1   H4A 8850   1.714   4.588   6.843 -0.8185 -1.0920  0.8432
   87CHL1   H4B 8851   1.660   4.438   6.761  0.9336  0.1088 -0.8618
   87CHL1    C5 8852   1.764   4.408   6.942  0.6221  0.6535  0.3422
   87CHL1    C6 8853   1.693   4.296   6.967  0.1191 -0.0525  0.2463
   87CHL1    H6 8854   1.623   4.265   6.888  3.1856 -0.6214 -2.5022
   87CHL1    C7 8855   1.694   4.231   7.101  0.5946 -0.0402  0.0684
   87CHL1   H7A 8856   1.589   4.213   7.130  1.1459 -0.0949  2.2135
   87CHL1   H7B 8857   1.763   4.144   7.099  1.2908  0.4652  0.9505
   87CHL1    C8 8858   1.766   4.308   7.218 -0.5044 -0.5394  0.2747
   87CHL1    H8 8859   1.705   4.391   7.258  0.3469  0.1050  0.2589
   87CHL1   C14 8860   1.797   4.223   7.333 -0.0658 -0.1542 -0.3884
   87CHL1   H14 8861   1.874   4.158   7.286 -0.5998 -0.4900 -0.8061
   87CHL1   C15 8862   1.695   4.122   7.385 -0.5976 -0.6277  0.3055
   87CHL1  H15A 8863   1.593   4.165   7.396  0.2004  0.8330  3.0908
   87CHL1  H15B 8864   1.696   4.035   7.316  0.8729  0.8551 -1.6584
   87CHL1   C16 8865   1.736   4.101   7.534  0.0371  1.4037 -0.3656
   87CHL1  H16A 8866   1.664   4.145   7.605  0.0983 -0.4505  0.9130
   87CHL1  H16B 8867   1.733   3.992   7.557 -0.7053  1.5157  0.0686
   87CHL1   C17 8868   1.871   4.169   7.544  0.0950 -0.5997  0.2450
   87CHL1   H17 8869   1.954   4.105   7.506  1.5000  1.5609 -0.5169
   87CHL1   C13 8870   1.865   4.289   7.449  0.3789 -0.1452 -0.3125
   87CHL1   C18 8871   1.775   4.398   7.505  0.6205 -0.0786 -0.8894
   87CHL1  H18A 8872   1.680   4.348   7.535  0.6416  0.7629  0.7160
   87CHL1  H18B 8873   1.808   4.451   7.597 -0.1874  0.7732 -1.0825
   87CHL1  H18C 8874   1.750   4.477   7.432 -3.3335 -1.5986 -1.4552
   87CHL1   C12 8875   2.003   4.348   7.401  0.5231 -0.6064  0.0351
   87CHL1  H12A 8876   2.064   4.408   7.472  1.0481  1.4829 -2.0569
   87CHL1  H12B 8877   2.062   4.255   7.386  1.6032 -0.1163  1.0930
   87CHL1   C11 8878   1.989   4.431   7.272  0.5473 -0.3238  1.1488
   87CHL1  H11A 8879   1.950   4.531   7.301 -1.0750 -1.0631  1.6247
   87CHL1  H11B 8880   2.093   4.437   7.233  0.2966  1.2930  0.6490
   87CHL1    C9 8881   1.892   4.371   7.157 -1.1610 -0.0742 -0.4729
   87CHL1    H9 8882   1.943   4.281   7.118 -2.5525 -0.4624 -1.4968
   87CHL1   C10 8883   1.866   4.462   7.036  0.5612  0.5916 -0.3362
   87CHL1   C19 8884   1.808   4.602   7.095  1.0795 -0.5244  0.4577
   87CHL1  H19A 8885   1.884   4.658   7.153  0.5355  2.4059 -1.4412
   87CHL1  H19B 8886   1.784   4.675   7.015 -0.4234 -1.2221  0.2305
   87CHL1  H19C 8887   1.718   4.577   7.154  0.3631 -0.5975 -0.6361
   87CHL1    C1 8888   1.994   4.474   6.953  0.7128  0.1178 -0.2169
   87CHL1   H1A 8889   2.078   4.525   7.005  0.5919 -0.0920  0.1888
   87CHL1   H1B 8890   2.036   4.375   6.929  1.6024  0.8782 -1.9528
   87CHL1    C2 8891   1.986   4.548   6.818  0.0642 -0.2364 -0.0419
   87CHL1   H2A 8892   2.083   4.550   6.763 -0.4807 -0.4315 -1.0309
   87CHL1   H2B 8893   1.952   4.652   6.836 -2.2050 -0.8197 -0.6912
   87CHL1   C20 8894   1.902   4.200   7.684 -0.4800  0.0659 -0.4171
   87CHL1   H20 8895   1.847   4.292   7.715 -1.7934 -0.6615 -0.5036
   87CHL1   C21 8896   2.056   4.244   7.701  0.2487 -0.7594  0.0933
   87CHL1  H21A 8897   2.053   4.350   7.666  1.5326 -0.3312  1.1883
   87CHL1  H21B 8898   2.122   4.186   7.633 -1.1533 -1.9900 -0.2673
   87CHL1  H21C 8899   2.087   4.242   7.807 -0.2803 -0.4400  0.2605
   87CHL1   C22 8900   1.872   4.087   7.794 -0.4131 -0.2715  0.1995
   87CHL1  H22A 8901   1.911   4.128   7.891 -0.5311 -1.8154  0.9272
   87CHL1  H22B 8902   1.763   4.075   7.812 -0.3463  1.6144  2.3689
   87CHL1   C23 8903   1.948   3.953   7.774 -0.5500  0.1879 -0.4218
   87CHL1  H23A 8904   1.909   3.917   7.676 -1.2816  3.2244 -1.3454
   87CHL1  H23B 8905   2.053   3.976   7.746  0.7635 -3.3712  1.0631
   87CHL1   C24 8906   1.928   3.859   7.895 -0.0363 -0.1274  0.0629
   87CHL1  H24A 8907   1.955   3.925   7.980  2.3534  1.4903 -1.8014
   87CHL1  H24B 8908   1.818   3.842   7.891 -0.1044  0.2149  0.3583
   87CHL1   C25 8909   2.005   3.730   7.895  0.3772 -0.0314  0.0478
   87CHL1   H25 8910   2.115   3.744   7.895  0.4866 -0.8217 -0.4524
   87CHL1   C26 8911   1.964   3.637   8.010 -0.0958  0.1192 -0.4355
   87CHL1  H26A 8912   1.857   3.609   8.010 -0.3778  0.8641  2.1378
   87CHL1  H26B 8913   2.030   3.548   7.999  0.4326  0.7455 -2.6763
   87CHL1  H26C 8914   1.992   3.689   8.105  0.7019  0.1663 -0.6879
   87CHL1   C27 8915   1.964   3.647   7.774  0.1152 -0.8808  0.4664
   87CHL1  H27A 8916   2.021   3.553   7.776  0.1084 -0.8767  1.3013
   87CHL1  H27B 8917   1.853   3.641   7.763  0.0729 -1.8358  1.2424
   87CHL1  H27C 8918   1.992   3.705   7.684 -3.9652 -0.3974 -0.6767
   88CHL1    C3 8919   6.218   3.195   6.975  0.1656 -0.2902  0.5028
   88CHL1    H3 8920   6.302   3.266   6.966 -0.3434  0.0556 -2.4784
   88CHL1    O3 8921   6.181   3.157   6.842  0.3341  0.2783  0.5327
   88CHL1   H3' 8922   6.265   3.159   6.797 -0.5565  1.7297 -1.2436
   88CHL1    C4 8923   6.259   3.065   7.051 -0.5433  0.2762  0.5156
   88CHL1   H4A 8924   6.172   2.997   7.058 -0.6071  0.4776  1.7928
   88CHL1   H4B 8925   6.348   3.026   6.996  0.2750  0.2525  1.8266
   88CHL1    C5 8926   6.289   3.096   7.205 -0.1686  0.2233 -0.1649
   88CHL1    C6 8927   6.419   3.088   7.253 -0.0693  0.4980 -0.5123
   88CHL1    H6 8928   6.493   3.043   7.185 -1.0232  0.3332 -1.4563
   88CHL1    C7 8929   6.455   3.114   7.400  1.0045  0.6547 -0.1837
   88CHL1   H7A 8930   6.517   3.029   7.436 -0.4200 -0.0541  0.7112
   88CHL1   H7B 8931   6.513   3.208   7.415  0.4844  1.0448 -0.5674
   88CHL1    C8 8932   6.326   3.122   7.489 -0.3203 -0.4603 -0.1761
   88CHL1    H8 8933   6.284   3.020   7.497  1.5946 -1.1927  1.4741
   88CHL1   C14 8934   6.355   3.178   7.627  0.0504  0.2226  0.0362
   88CHL1   H14 8935   6.410   3.274   7.610 -0.9042  0.7064 -0.4102
   88CHL1   C15 8936   6.460   3.094   7.710  0.7352 -0.0417  0.1699
   88CHL1  H15A 8937   6.447   2.988   7.682  0.8460 -0.3767  1.3347
   88CHL1  H15B 8938   6.563   3.109   7.671  0.7495 -0.4709  0.0393
   88CHL1   C16 8939   6.420   3.124   7.858  0.3588 -0.0857  0.5862
   88CHL1  H16A 8940   6.383   3.029   7.903  1.1848 -0.5760  0.2459
   88CHL1  H16B 8941   6.512   3.160   7.909  0.0945  1.3245  0.1108
   88CHL1   C17 8942   6.311   3.238   7.844  0.2005  0.1551  0.0885
   88CHL1   H17 8943   6.365   3.333   7.822 -1.2863  0.7160 -1.3293
   88CHL1   C13 8944   6.236   3.208   7.715 -0.3580 -0.2893  0.0173
   88CHL1   C18 8945   6.153   3.084   7.743 -0.1518  0.1466  0.4665
   88CHL1  H18A 8946   6.113   3.039   7.649 -1.2490  0.3009  0.8424
   88CHL1  H18B 8947   6.218   2.999   7.773 -1.1160 -1.3127 -1.3899
   88CHL1  H18C 8948   6.064   3.087   7.810 -2.1398  0.4150 -2.0090
   88CHL1   C12 8949   6.154   3.321   7.649  0.3620 -0.3805  0.0825
   88CHL1  H12A 8950   6.065   3.330   7.716  1.9778  1.5217  2.1228
   88CHL1  H12B 8951   6.209   3.417   7.638  1.1647 -0.6683  1.4525
   88CHL1   C11 8952   6.110   3.278   7.506 -0.5034 -0.2843  0.2706
   88CHL1  H11A 8953   6.031   3.200   7.512 -0.5908 -0.3691 -1.5247
   88CHL1  H11B 8954   6.056   3.363   7.458 -0.6656  0.6726  2.0617
   88CHL1    C9 8955   6.227   3.211   7.418  0.2359  0.2244  0.1108
   88CHL1    H9 8956   6.286   3.302   7.396  1.1622 -0.3425  0.1966
   88CHL1   C10 8957   6.171   3.156   7.281 -0.6406  0.3804  0.2043
   88CHL1   C19 8958   6.065   3.044   7.309 -0.4675  0.1152  0.5036
   88CHL1  H19A 8959   6.107   2.955   7.361 -0.9587 -0.1763  0.4078
   88CHL1  H19B 8960   5.964   3.068   7.349 -1.5774 -0.0126 -2.0739
   88CHL1  H19C 8961   6.033   2.998   7.213  2.4361  0.7574 -0.8825
   88CHL1    C1 8962   6.108   3.271   7.200 -0.1737 -0.3306  0.6895
   88CHL1   H1A 8963   6.011   3.308   7.240 -2.2927 -2.4016 -2.0824
   88CHL1   H1B 8964   6.173   3.361   7.208 -0.8258  0.2376 -0.1247
   88CHL1    C2 8965   6.098   3.250   7.047  0.1224 -0.1615  0.8323
   88CHL1   H2A 8966   6.070   3.349   7.006 -2.9062 -0.0251  2.9198
   88CHL1   H2B 8967   6.008   3.187   7.029 -0.4953  1.1911 -1.1614
   88CHL1   C20 8968   6.223   3.269   7.966  0.0385 -0.0497 -0.1486
   88CHL1   H20 8969   6.128   3.320   7.939  0.5053  0.2113 -1.3753
   88CHL1   C21 8970   6.295   3.380   8.050  0.8719  0.0108 -0.3461
   88CHL1  H21A 8971   6.313   3.467   7.982  0.2422  0.9953  0.7095
   88CHL1  H21B 8972   6.394   3.353   8.092  0.5501 -1.7658 -0.6603
   88CHL1  H21C 8973   6.227   3.417   8.129 -1.3322 -2.0318 -1.1837
   88CHL1   C22 8974   6.201   3.155   8.063  0.0444  0.5355  0.2751
   88CHL1  H22A 8975   6.173   3.056   8.021  0.8695  0.1618  0.5819
   88CHL1  H22B 8976   6.295   3.141   8.121 -0.2501 -0.6788  0.4914
   88CHL1   C23 8977   6.082   3.181   8.160  0.1216  0.2153  0.1010
   88CHL1  H23A 8978   6.083   3.281   8.209  0.1198 -0.4299  1.4765
   88CHL1  H23B 8979   5.986   3.168   8.105 -0.2595  0.4288  0.7085
   88CHL1   C24 8980   6.106   3.083   8.275  0.1499  0.5574 -0.0425
   88CHL1  H24A 8981   6.094   2.978   8.238 -0.3535  0.9910 -1.1621
   88CHL1  H24B 8982   6.208   3.100   8.314 -0.3050  0.8012  1.0714
   88CHL1   C25 8983   6.000   3.104   8.383  0.2890 -0.8277 -0.6719
   88CHL1   H25 8984   5.984   3.214   8.388  3.0794 -0.4251  1.8577
   88CHL1   C26 8985   5.874   3.030   8.353 -0.3810 -0.1084 -0.0949
   88CHL1  H26A 8986   5.813   3.060   8.441  1.1171  1.0812  0.5843
   88CHL1  H26B 8987   5.827   3.052   8.255 -0.2742 -2.3436 -0.7058
   88CHL1  H26C 8988   5.887   2.919   8.354 -1.6422 -0.2923  1.1144
   88CHL1   C27 8989   6.060   3.059   8.522 -0.3244  0.6017 -0.0056
   88CHL1  H27A 8990   6.099   2.955   8.522 -0.2082  0.6172 -1.7902
   88CHL1  H27B 8991   6.146   3.125   8.548 -1.4860  2.6280 -1.0524
   88CHL1  H27C 8992   5.978   3.062   8.596 -1.7333  3.5940 -1.5091
   89CHL1    C3 8993   3.803   5.841   7.133 -0.3852  0.1008  0.2312
   89CHL1    H3 8994   3.709   5.801   7.176  1.3324 -0.7666  3.4800
   89CHL1    O3 8995   3.762   5.873   6.994 -0.2027 -0.0159  0.0439
   89CHL1   H3' 8996   3.845   5.893   6.952 -0.3896 -0.2191 -0.4259
   89CHL1    C4 8997   3.832   5.966   7.207  0.2114  0.3529  0.6559
   89CHL1   H4A 8998   3.922   6.010   7.158  0.2570 -2.4796 -2.1054
   89CHL1   H4B 8999   3.755   6.039   7.174 -2.7384 -2.2391  1.3999
   89CHL1    C5 9000   3.862   5.953   7.353  0.3370 -0.1029  0.4022
   89CHL1    C6 9001   3.793   6.021   7.446 -0.2100 -0.5345  0.3028
   89CHL1    H6 9002   3.717   6.093   7.412  0.9084  0.5547  0.0001
   89CHL1    C7 9003   3.824   6.007   7.589  0.4068 -0.3499 -0.4720
   89CHL1   H7A 9004   3.826   6.110   7.630  1.5189 -0.6212  0.2051
   89CHL1   H7B 9005   3.735   5.964   7.641  0.7710  0.9705  1.3577
   89CHL1    C8 9006   3.956   5.949   7.621 -0.3249 -0.2002  0.3603
   89CHL1    H8 9007   4.030   6.028   7.597 -0.8969  0.3323  0.3260
   89CHL1   C14 9008   3.961   5.900   7.768  0.5940 -0.4377 -0.0403
   89CHL1   H14 9009   3.890   5.815   7.774 -0.1744 -0.0420 -2.6267
   89CHL1   C15 9010   3.922   6.010   7.868 -0.7244 -0.4188 -0.6077
   89CHL1  H15A 9011   3.974   6.099   7.828 -0.8138 -0.7621 -1.5209
   89CHL1  H15B 9012   3.813   6.033   7.873 -0.6027  0.0638 -0.2113
   89CHL1   C16 9013   3.975   5.951   8.003 -0.4637  0.0377 -0.1545
   89CHL1  H16A 9014   4.028   6.027   8.064 -0.0046  1.0421 -1.7637
   89CHL1  H16B 9015   3.889   5.906   8.058  0.8637 -1.5100  0.7470
   89CHL1   C17 9016   4.076   5.832   7.971  0.6725 -0.2856  0.1245
   89CHL1   H17 9017   4.025   5.734   7.982 -0.5959  0.4398  0.9626
   89CHL1   C13 9018   4.101   5.848   7.820 -0.1497 -0.2501  0.3718
   89CHL1   C18 9019   4.213   5.957   7.813 -0.4208  0.2244 -0.3600
   89CHL1  H18A 9020   4.208   6.027   7.899 -0.5847  0.0785 -0.2489
   89CHL1  H18B 9021   4.307   5.901   7.833  0.4797  0.9462 -2.3687
   89CHL1  H18C 9022   4.238   5.999   7.714 -0.8160 -0.9704 -0.9898
   89CHL1   C12 9023   4.133   5.728   7.735 -0.0255  0.3998  0.0501
   89CHL1  H12A 9024   4.226   5.669   7.752 -1.3463 -2.0222 -0.6460
   89CHL1  H12B 9025   4.059   5.645   7.741 -0.3566  0.5832 -1.2041
   89CHL1   C11 9026   4.128   5.769   7.588  0.0379 -0.4284  0.1772
   89CHL1  H11A 9027   4.201   5.849   7.564 -1.0202  0.8649  1.1397
   89CHL1  H11B 9028   4.150   5.682   7.523  0.9807  0.1355 -0.2765
   89CHL1    C9 9029   3.997   5.829   7.537  0.2421  0.1587  0.1499
   89CHL1    H9 9030   3.926   5.746   7.555  2.7077 -2.7067 -2.1517
   89CHL1   C10 9031   3.978   5.852   7.384 -0.6390 -0.1136 -0.0801
   89CHL1   C19 9032   4.101   5.930   7.340 -0.0757  0.4068  0.1384
   89CHL1  H19A 9033   4.188   5.861   7.346 -0.5970 -0.2628  0.0845
   89CHL1  H19B 9034   4.106   5.959   7.233  4.7751 -3.0391 -0.9012
   89CHL1  H19C 9035   4.131   6.018   7.402 -2.4069  1.9031 -0.7292
   89CHL1    C1 9036   3.961   5.722   7.308  0.0418  0.7240 -0.1698
   89CHL1   H1A 9037   4.056   5.664   7.311 -0.1463  0.1689 -2.8223
   89CHL1   H1B 9038   3.880   5.658   7.351  1.5469 -1.0238  0.1874
   89CHL1    C2 9039   3.923   5.739   7.156  0.4685  0.2762  0.3546
   89CHL1   H2A 9040   3.886   5.645   7.110  0.2716  0.1308  0.7986
   89CHL1   H2B 9041   4.002   5.781   7.091  0.3155  1.1643  0.7372
   89CHL1   C20 9042   4.192   5.816   8.074 -0.0173 -0.9008 -0.0480
   89CHL1   H20 9043   4.248   5.911   8.071 -0.7215 -0.1676  3.9759
   89CHL1   C21 9044   4.285   5.709   8.036 -0.2907 -0.0745 -0.3551
   89CHL1  H21A 9045   4.345   5.743   7.948  0.8326  1.0961  0.8229
   89CHL1  H21B 9046   4.229   5.617   8.009 -2.4092  0.7668  0.8355
   89CHL1  H21C 9047   4.353   5.694   8.121  2.9771  2.2144 -2.3455
   89CHL1   C22 9048   4.127   5.782   8.199  0.0154 -0.4148 -0.1336
   89CHL1  H22A 9049   4.039   5.848   8.213 -1.7882 -2.5248 -1.1369
   89CHL1  H22B 9050   4.080   5.682   8.208 -1.2168  0.3281  2.8967
   89CHL1   C23 9051   4.208   5.795   8.324 -0.5846  0.0385  0.1877
   89CHL1  H23A 9052   4.277   5.708   8.335  1.5172  1.5168 -0.6974
   89CHL1  H23B 9053   4.262   5.891   8.312 -0.7952  0.0271 -0.9009
   89CHL1   C24 9054   4.115   5.796   8.441  0.5918  0.1026 -0.6277
   89CHL1  H24A 9055   4.051   5.885   8.425 -1.3701 -1.2873 -0.8641
   89CHL1  H24B 9056   4.047   5.707   8.441  0.4891  0.1728  0.0903
   89CHL1   C25 9057   4.180   5.824   8.580  0.6250 -0.0761  0.4808
   89CHL1   H25 9058   4.235   5.731   8.609  1.7606  0.7817  1.1415
   89CHL1   C26 9059   4.278   5.942   8.578  0.1234  0.0531 -0.2402
   89CHL1  H26A 9060   4.364   5.932   8.508 -1.4269 -2.6844 -1.9424
   89CHL1  H26B 9061   4.233   6.032   8.532  1.0618  0.5598 -0.1891
   89CHL1  H26C 9062   4.307   5.981   8.678 -0.8514  0.6499 -0.1756
   89CHL1   C27 9063   4.067   5.861   8.679 -0.1290 -0.6308 -0.1148
   89CHL1  H27A 9064   3.987   5.784   8.674 -0.1371 -0.5533 -3.1432
   89CHL1  H27B 9065   4.113   5.868   8.780  1.7883 -0.3848 -0.9638
   89CHL1  H27C 9066   4.012   5.955   8.659  1.2440  0.4392  0.9521
   90CHL1    C3 9067   1.106   2.516   6.789  0.2616 -0.3112 -0.3361
   90CHL1    H3 9068   1.148   2.413   6.786 -0.4045 -0.7163  2.1443
   90CHL1    O3 9069   1.054   2.534   6.662  0.3513 -0.0590  0.1252
   90CHL1   H3' 9070   0.987   2.602   6.674 -0.9813 -1.3759  0.4639
   90CHL1    C4 9071   0.995   2.522   6.887  0.7718 -0.5322 -0.3508
   90CHL1   H4A 9072   0.942   2.620   6.877 -1.0595 -1.5899 -1.5192
   90CHL1   H4B 9073   0.913   2.452   6.859  0.1323 -1.3921  3.2346
   90CHL1    C5 9074   1.048   2.502   7.029 -0.2934  0.0708  0.2004
   90CHL1    C6 9075   1.011   2.392   7.109  0.3709  0.8985  0.0125
   90CHL1    H6 9076   0.943   2.315   7.070  0.3410  1.5110 -1.1755
   90CHL1    C7 9077   1.058   2.363   7.247 -0.2651 -0.5392 -0.1291
   90CHL1   H7A 9078   0.981   2.328   7.319  0.9482 -3.4879 -0.1486
   90CHL1   H7B 9079   1.137   2.285   7.247 -0.6372 -0.9498  1.4506
   90CHL1    C8 9080   1.125   2.493   7.308  0.7379 -0.6074 -0.1249
   90CHL1    H8 9081   1.041   2.563   7.326  1.4336  1.2989 -3.5587
   90CHL1   C14 9082   1.192   2.461   7.437 -0.1080  0.5638 -0.0603
   90CHL1   H14 9083   1.270   2.386   7.411 -1.6816 -1.3391  0.3989
   90CHL1   C15 9084   1.120   2.381   7.541  0.5791  0.5363  0.2502
   90CHL1  H15A 9085   1.010   2.399   7.535 -0.3334 -2.7879  3.4690
   90CHL1  H15B 9086   1.131   2.273   7.519  0.3327  0.5382  0.1084
   90CHL1   C16 9087   1.178   2.415   7.676  0.6231  0.1149  0.5866
   90CHL1  H16A 9088   1.093   2.467   7.725 -0.2665 -1.0548  0.3243
   90CHL1  H16B 9089   1.221   2.331   7.735  2.0312 -0.0926 -0.6719
   90CHL1   C17 9090   1.295   2.511   7.639 -0.2394 -0.1894  0.2450
   90CHL1   H17 9091   1.381   2.447   7.610 -0.1057  0.9821 -2.1882
   90CHL1   C13 9092   1.262   2.578   7.510  0.1863  0.1098  0.4391
   90CHL1   C18 9093   1.156   2.696   7.530  0.0966 -0.5302 -0.0181
   90CHL1  H18A 9094   1.200   2.782   7.586  0.9944 -0.3400 -0.9711
   90CHL1  H18B 9095   1.122   2.734   7.432  1.7454 -0.0017 -0.4300
   90CHL1  H18C 9096   1.072   2.648   7.584 -0.3671 -1.0098 -1.1494
   90CHL1   C12 9097   1.372   2.623   7.418  0.0725 -0.3900  0.1644
   90CHL1  H12A 9098   1.435   2.704   7.459 -0.1751  0.4983 -1.1385
   90CHL1  H12B 9099   1.438   2.535   7.399 -0.6227 -1.5996  2.8495
   90CHL1   C11 9100   1.318   2.666   7.282 -0.3464  0.3097  0.4488
   90CHL1  H11A 9101   1.261   2.760   7.298  2.0533  1.7743  0.8498
   90CHL1  H11B 9102   1.394   2.697   7.207 -0.8859 -0.9534 -0.6655
   90CHL1    C9 9103   1.222   2.557   7.215  1.0940  1.0220  0.5422
   90CHL1    H9 9104   1.294   2.476   7.190 -0.2980 -0.3414  0.7741
   90CHL1   C10 9105   1.155   2.601   7.076 -0.0311 -0.2049 -0.5113
   90CHL1   C19 9106   1.076   2.726   7.116  0.1515  0.3124 -0.4977
   90CHL1  H19A 9107   1.009   2.769   7.039  0.9561 -0.0824 -1.4371
   90CHL1  H19B 9108   1.015   2.716   7.209  1.2593  0.0136  0.2125
   90CHL1  H19C 9109   1.139   2.811   7.149 -0.9894  0.7151  0.7613
   90CHL1    C1 9110   1.265   2.602   6.967  0.5369  0.0816 -0.1529
   90CHL1   H1A 9111   1.334   2.687   6.988 -1.5745  2.2039 -1.2328
   90CHL1   H1B 9112   1.324   2.510   6.982 -1.3694 -0.8986  1.9341
   90CHL1    C2 9113   1.210   2.620   6.820  0.2632  0.6452  0.0440
   90CHL1   H2A 9114   1.298   2.623   6.752  1.7305 -0.7445  1.7577
   90CHL1   H2B 9115   1.162   2.720   6.816 -0.2244  0.4567  0.8807
   90CHL1   C20 9116   1.319   2.595   7.769 -0.5118 -0.3790  0.3302
   90CHL1   H20 9117   1.231   2.660   7.789  1.1853  2.4432 -0.8301
   90CHL1   C21 9118   1.437   2.681   7.739  0.1806 -0.3560 -0.3470
   90CHL1  H21A 9119   1.412   2.756   7.660  1.0674 -0.7226 -0.9869
   90CHL1  H21B 9120   1.523   2.621   7.704  1.0993  0.3137  0.6941
   90CHL1  H21C 9121   1.461   2.739   7.830 -1.4102 -0.2060  0.0178
   90CHL1   C22 9122   1.351   2.512   7.900  0.2195 -0.8825 -0.0708
   90CHL1  H22A 9123   1.281   2.425   7.896  0.4185 -1.0204 -0.7770
   90CHL1  H22B 9124   1.458   2.485   7.912  0.3117 -0.1237  0.8872
   90CHL1   C23 9125   1.319   2.590   8.027 -0.0006 -0.3279 -0.3655
   90CHL1  H23A 9126   1.372   2.688   8.030  0.2757 -0.3148 -3.0523
   90CHL1  H23B 9127   1.217   2.629   8.011  0.4756  0.8220 -0.7376
   90CHL1   C24 9128   1.338   2.502   8.152 -0.3546 -0.0444  0.2157
   90CHL1  H24A 9129   1.282   2.407   8.134  0.4849 -0.2783 -1.3315
   90CHL1  H24B 9130   1.446   2.477   8.155 -0.1937  0.7408  1.5373
   90CHL1   C25 9131   1.298   2.573   8.289  0.6183  0.3198 -0.0893
   90CHL1   H25 9132   1.202   2.625   8.268  0.3555 -0.4301 -0.7826
   90CHL1   C26 9133   1.289   2.481   8.408 -0.0554  0.3802  0.4220
   90CHL1  H26A 9134   1.205   2.410   8.396  0.8237 -0.3399 -2.1013
   90CHL1  H26B 9135   1.390   2.443   8.435 -0.9144 -1.1882  1.5553
   90CHL1  H26C 9136   1.248   2.547   8.488 -1.2290  1.7081 -1.2176
   90CHL1   C27 9137   1.381   2.703   8.325  0.4773  0.2415  0.9341
   90CHL1  H27A 9138   1.408   2.747   8.226 -3.8607 -0.6540 -0.8431
   90CHL1  H27B 9139   1.323   2.774   8.387 -0.2368  0.0507  0.4917
   90CHL1  H27C 9140   1.472   2.656   8.368  0.7364 -0.5307 -0.3996
   91CHL1    C3 9141   4.773   1.624   6.995  0.0783 -0.2577  0.4765
   91CHL1    H3 9142   4.881   1.625   7.023  0.3024 -0.7587 -0.3304
   91CHL1    O3 9143   4.767   1.628   6.858 -0.3640  0.6510 -0.4880
   91CHL1   H3' 9144   4.677   1.652   6.832  0.0125 -0.1082 -2.7912
   91CHL1    C4 9145   4.698   1.503   7.045  0.0806  0.0462 -0.3541
   91CHL1   H4A 9146   4.590   1.516   7.021 -0.4392  2.9275  2.7526
   91CHL1   H4B 9147   4.739   1.413   6.995  1.1088  0.4805 -0.3234
   91CHL1    C5 9148   4.704   1.499   7.198 -0.0361  0.0337 -0.2841
   91CHL1    C6 9149   4.754   1.394   7.257 -0.1818 -0.4211 -0.8107
   91CHL1    H6 9150   4.778   1.303   7.200 -1.5596 -2.1083  1.1571
   91CHL1    C7 9151   4.770   1.375   7.405  0.1714 -0.7754  0.1449
   91CHL1   H7A 9152   4.733   1.278   7.444 -1.7349 -0.7362 -1.3809
   91CHL1   H7B 9153   4.874   1.375   7.442 -0.1806  2.5256  1.5391
   91CHL1    C8 9154   4.693   1.490   7.484  0.3361 -0.8706  0.6825
   91CHL1    H8 9155   4.589   1.453   7.480  0.7566 -2.0308 -0.3518
   91CHL1   C14 9156   4.746   1.489   7.627  0.0378  0.4054  0.0859
   91CHL1   H14 9157   4.855   1.508   7.615  0.3554 -0.5896  1.2090
   91CHL1   C15 9158   4.740   1.355   7.705 -0.6618 -0.4733  0.8488
   91CHL1  H15A 9159   4.640   1.306   7.695 -0.0514 -1.4244 -1.2546
   91CHL1  H15B 9160   4.813   1.284   7.662  0.4790  1.6613 -0.9853
   91CHL1   C16 9161   4.760   1.400   7.849 -0.6276  0.1147  0.2909
   91CHL1  H16A 9162   4.679   1.354   7.909  0.0162 -1.7644 -0.2088
   91CHL1  H16B 9163   4.863   1.380   7.887 -0.6947  0.3022  0.5692
   91CHL1   C17 9164   4.749   1.552   7.847  0.4371 -0.1197 -0.4574
   91CHL1   H17 9165   4.854   1.584   7.835  0.9449 -1.7929 -0.6531
   91CHL1   C13 9166   4.681   1.593   7.719  0.6402 -0.3620  0.6229
   91CHL1   C18 9167   4.530   1.555   7.738 -0.6887  1.0217  0.4596
   91CHL1  H18A 9168   4.476   1.645   7.775  0.9660  2.1656  0.2506
   91CHL1  H18B 9169   4.473   1.531   7.646 -2.5582 -0.2460  1.8785
   91CHL1  H18C 9170   4.519   1.477   7.816  2.8994  0.8822  1.0053
   91CHL1   C12 9171   4.701   1.734   7.656  0.1574 -0.1116  0.1190
   91CHL1  H12A 9172   4.636   1.796   7.721 -0.8523 -0.5571 -0.4512
   91CHL1  H12B 9173   4.809   1.759   7.650 -0.0540  0.6380 -0.6648
   91CHL1   C11 9174   4.646   1.731   7.512  0.4945 -0.9739 -1.1299
   91CHL1  H11A 9175   4.538   1.706   7.521  0.4473 -0.6465 -0.7732
   91CHL1  H11B 9176   4.660   1.835   7.474 -0.5670 -0.4445 -0.1551
   91CHL1    C9 9177   4.716   1.628   7.429  0.7651 -0.2769  0.2931
   91CHL1    H9 9178   4.826   1.639   7.428  0.7412  0.7140 -3.1778
   91CHL1   C10 9179   4.672   1.636   7.280  0.4986  0.6748 -0.1163
   91CHL1   C19 9180   4.517   1.656   7.264  0.1786  0.1518 -0.2176
   91CHL1  H19A 9181   4.475   1.654   7.162 -0.5638  0.2172  0.0780
   91CHL1  H19B 9182   4.469   1.580   7.329 -1.2400  0.5591 -0.7506
   91CHL1  H19C 9183   4.492   1.752   7.315  2.4596 -0.5051  2.3899
   91CHL1    C1 9184   4.750   1.749   7.208 -0.1259 -0.7461 -0.7896
   91CHL1   H1A 9185   4.722   1.848   7.252 -1.9972 -1.9113  0.8405
   91CHL1   H1B 9186   4.859   1.734   7.216 -0.1284 -0.6138 -0.4670
   91CHL1    C2 9187   4.727   1.755   7.055 -0.0080  0.1828 -0.0302
   91CHL1   H2A 9188   4.788   1.837   7.012 -1.2826  0.9789 -0.3519
   91CHL1   H2B 9189   4.621   1.769   7.028  0.0784 -2.3120 -2.0044
   91CHL1   C20 9190   4.699   1.631   7.963 -0.4253  0.2112 -0.2080
   91CHL1   H20 9191   4.631   1.711   7.927  1.5619  1.2147 -1.9228
   91CHL1   C21 9192   4.823   1.701   8.039  0.6545 -0.4829 -0.0664
   91CHL1  H21A 9193   4.882   1.756   7.963 -0.1949  0.6231  0.0494
   91CHL1  H21B 9194   4.879   1.628   8.100 -1.3736 -2.3526 -0.3120
   91CHL1  H21C 9195   4.778   1.784   8.099 -2.8567  0.0315 -3.0653
   91CHL1   C22 9196   4.614   1.549   8.061 -1.4273  0.0056  0.7789
   91CHL1  H22A 9197   4.529   1.502   8.006  0.3303 -0.4329 -1.7758
   91CHL1  H22B 9198   4.669   1.461   8.100 -1.1363 -0.7118 -1.1342
   91CHL1   C23 9199   4.564   1.627   8.185 -0.0040  0.2916  0.3185
   91CHL1  H23A 9200   4.647   1.681   8.235 -0.1425 -0.0919  0.9711
   91CHL1  H23B 9201   4.483   1.692   8.146 -1.8483 -2.3345 -0.5480
   91CHL1   C24 9202   4.515   1.524   8.287 -0.4080 -0.1838 -0.0416
   91CHL1  H24A 9203   4.445   1.453   8.237 -0.0527 -0.3235 -0.3446
   91CHL1  H24B 9204   4.595   1.453   8.317 -0.1277  0.0942 -0.1336
   91CHL1   C25 9205   4.453   1.592   8.407 -0.5816  0.2043  0.3321
   91CHL1   H25 9206   4.386   1.673   8.370 -0.1598  0.1294 -0.6241
   91CHL1   C26 9207   4.348   1.489   8.467 -0.8212 -0.6738 -0.1127
   91CHL1  H26A 9208   4.280   1.549   8.532  1.5013  2.6000 -0.4757
   91CHL1  H26B 9209   4.281   1.450   8.387 -3.6560  0.6541  1.4343
   91CHL1  H26C 9210   4.409   1.416   8.524 -0.6507  1.3269  2.4688
   91CHL1   C27 9211   4.556   1.652   8.509  0.4510  0.1845  1.3246
   91CHL1  H27A 9212   4.626   1.577   8.551  0.6465 -0.0672  0.5604
   91CHL1  H27B 9213   4.625   1.730   8.468  1.7050 -0.6293  1.8250
   91CHL1  H27C 9214   4.509   1.684   8.604  0.6209 -0.1828  1.5337
   92CHL1    C3 9215   0.642   3.342   6.590 -0.1850 -0.0416 -0.5027
   92CHL1    H3 9216   0.707   3.259   6.624 -1.1429 -1.4307 -1.9029
   92CHL1    O3 9217   0.623   3.311   6.454 -0.0096 -0.2915  0.2049
   92CHL1   H3' 9218   0.531   3.325   6.432 -0.3293 -0.2647  1.4708
   92CHL1    C4 9219   0.496   3.347   6.649 -0.4293  0.2006  0.1410
   92CHL1   H4A 9220   0.434   3.427   6.604  0.7926  1.4436  0.6346
   92CHL1   H4B 9221   0.445   3.252   6.621  0.6013 -0.2402 -0.2699
   92CHL1    C5 9222   0.508   3.375   6.794 -0.0920  0.6921  0.4361
   92CHL1    C6 9223   0.470   3.276   6.883 -0.3401  0.5779 -0.2775
   92CHL1    H6 9224   0.435   3.183   6.835  0.2522  0.3860 -0.3373
   92CHL1    C7 9225   0.479   3.300   7.032  0.6057 -0.5149  0.6438
   92CHL1   H7A 9226   0.386   3.263   7.080  0.2420 -1.6074 -0.8283
   92CHL1   H7B 9227   0.562   3.241   7.077  0.9796 -0.9119 -0.5193
   92CHL1    C8 9228   0.494   3.448   7.072  0.3654  0.1208 -0.4107
   92CHL1    H8 9229   0.391   3.490   7.063 -1.0315 -2.9425  0.0543
   92CHL1   C14 9230   0.541   3.467   7.216  0.2524  0.4129 -0.3222
   92CHL1   H14 9231   0.646   3.430   7.213  0.3602  0.5206  1.1204
   92CHL1   C15 9232   0.469   3.376   7.322 -0.1794 -1.0005  0.2784
   92CHL1  H15A 9233   0.360   3.392   7.308 -0.2280 -0.4812  1.1997
   92CHL1  H15B 9234   0.498   3.269   7.314 -0.7735 -1.1829  0.5658
   92CHL1   C16 9235   0.520   3.435   7.456 -0.0843 -1.1115 -0.2495
   92CHL1  H16A 9236   0.427   3.446   7.515  0.3669  3.0659 -0.0564
   92CHL1  H16B 9237   0.589   3.365   7.507 -1.6361 -0.3679  3.1026
   92CHL1   C17 9238   0.585   3.577   7.423 -0.1995  0.4309 -0.4435
   92CHL1   H17 9239   0.693   3.554   7.418  0.1680  1.7233  0.8668
   92CHL1   C13 9240   0.551   3.608   7.279  0.8918  0.1152  0.0360
   92CHL1   C18 9241   0.415   3.679   7.284  0.1163 -0.5510  0.2736
   92CHL1  H18A 9242   0.423   3.787   7.308 -2.8886  0.1446 -1.3343
   92CHL1  H18B 9243   0.370   3.689   7.183 -0.5443 -2.4421  0.3282
   92CHL1  H18C 9244   0.342   3.636   7.356 -2.3797  0.6400 -1.3828
   92CHL1   C12 9245   0.654   3.676   7.194 -0.2363  0.3808  0.5150
   92CHL1  H12A 9246   0.665   3.780   7.233 -0.1420 -0.3967  2.7019
   92CHL1  H12B 9247   0.755   3.632   7.208  0.2614  1.0565 -0.7537
   92CHL1   C11 9248   0.617   3.669   7.044  0.4024  0.6369 -0.2830
   92CHL1  H11A 9249   0.529   3.732   7.019  1.0340  1.6369 -0.0564
   92CHL1  H11B 9250   0.697   3.723   6.988  0.4019  0.1307 -0.7784
   92CHL1    C9 9251   0.591   3.523   6.986  0.0848  0.2320  0.8241
   92CHL1    H9 9252   0.694   3.487   7.005 -0.1346 -0.5267  0.6105
   92CHL1   C10 9253   0.573   3.512   6.832  0.3960 -0.2415  0.5424
   92CHL1   C19 9254   0.480   3.628   6.787  0.1634  0.3053  0.2917
   92CHL1  H19A 9255   0.461   3.624   6.678  0.3186  0.1528  0.2698
   92CHL1  H19B 9256   0.384   3.617   6.841 -2.0498 -1.3377 -3.5957
   92CHL1  H19C 9257   0.518   3.731   6.807 -0.6057  0.4895  0.8324
   92CHL1    C1 9258   0.710   3.507   6.761 -0.4093 -0.5888 -0.0091
   92CHL1   H1A 9259   0.753   3.609   6.774  0.8104 -1.1110  0.1989
   92CHL1   H1B 9260   0.785   3.442   6.811  2.1019  1.6914 -0.5750
   92CHL1    C2 9261   0.713   3.476   6.614  0.7759 -0.2471  0.4665
   92CHL1   H2A 9262   0.813   3.470   6.566  0.2799  0.2843 -0.6849
   92CHL1   H2B 9263   0.661   3.553   6.553  0.5605  0.5493  1.6251
   92CHL1   C20 9264   0.581   3.680   7.537 -0.0577 -0.1420  0.7199
   92CHL1   H20 9265   0.477   3.719   7.548 -0.2707 -0.1187 -0.9827
   92CHL1   C21 9266   0.669   3.799   7.506 -0.4700  0.2593  0.5764
   92CHL1  H21A 9267   0.619   3.872   7.439 -0.9842 -0.4304  0.1870
   92CHL1  H21B 9268   0.767   3.767   7.464  0.7262 -1.2016  4.1166
   92CHL1  H21C 9269   0.693   3.855   7.598  0.6083 -0.1558  0.5586
   92CHL1   C22 9270   0.626   3.619   7.673  0.2981  0.5585  0.6191
   92CHL1  H22A 9271   0.713   3.551   7.666 -0.1675 -0.0385  0.5727
   92CHL1  H22B 9272   0.655   3.711   7.728 -1.5718  0.9237  1.0675
   92CHL1   C23 9273   0.517   3.549   7.753  0.0412 -0.1549  0.2642
   92CHL1  H23A 9274   0.425   3.609   7.733  0.6451  0.5542 -0.4351
   92CHL1  H23B 9275   0.497   3.447   7.711  1.3087 -0.4358  0.3043
   92CHL1   C24 9276   0.555   3.538   7.896  0.1462  0.3930  0.0400
   92CHL1  H24A 9277   0.657   3.497   7.915 -0.6978 -1.1104  1.7340
   92CHL1  H24B 9278   0.554   3.639   7.940  1.3465  0.0824  0.8338
   92CHL1   C25 9279   0.448   3.460   7.986  0.0535 -0.0420  0.2147
   92CHL1   H25 9280   0.340   3.485   7.983  0.6036  2.5478 -0.8066
   92CHL1   C26 9281   0.463   3.313   7.952  0.7807  0.3891 -0.4597
   92CHL1  H26A 9282   0.417   3.310   7.851  0.8596  3.7957 -0.7286
   92CHL1  H26B 9283   0.564   3.271   7.968  0.6996  0.1187 -0.6577
   92CHL1  H26C 9284   0.397   3.255   8.020  0.9490  3.3251  2.4350
   92CHL1   C27 9285   0.489   3.485   8.127 -0.2634 -0.0373  0.3863
   92CHL1  H27A 9286   0.399   3.455   8.186 -0.9461 -0.8453 -1.0222
   92CHL1  H27B 9287   0.584   3.435   8.151  0.2302  0.9204  0.4959
   92CHL1  H27C 9288   0.512   3.592   8.149 -0.1637 -0.1353  0.7670
   93CHL1    C3 9289   5.736   1.064   6.901 -0.2479 -0.2807 -0.3262
   93CHL1    H3 9290   5.650   1.005   6.940 -1.8522  2.4844  0.6308
   93CHL1    O3 9291   5.737   1.045   6.759  0.1739 -0.0630 -0.7482
   93CHL1   H3' 9292   5.805   1.098   6.718  0.8152 -0.9362 -0.8590
   93CHL1    C4 9293   5.711   1.217   6.928 -0.3982 -0.8076  0.1325
   93CHL1   H4A 9294   5.780   1.278   6.865 -0.0620 -0.3631  0.9251
   93CHL1   H4B 9295   5.608   1.236   6.890  0.6489  3.3860 -1.1244
   93CHL1    C5 9296   5.725   1.256   7.072  0.0643 -0.5084 -0.5003
   93CHL1    C6 9297   5.616   1.313   7.131 -0.0868 -0.4394  0.1702
   93CHL1    H6 9298   5.528   1.317   7.065  0.7821 -0.4327 -1.0266
   93CHL1    C7 9299   5.609   1.352   7.277 -0.5050  0.6901  0.0318
   93CHL1   H7A 9300   5.564   1.454   7.283  0.5460  1.1115  1.0562
   93CHL1   H7B 9301   5.544   1.281   7.332  0.6775 -1.1562 -0.8855
   93CHL1    C8 9302   5.745   1.342   7.349 -0.4263 -0.2158 -0.2004
   93CHL1    H8 9303   5.794   1.439   7.324  0.6112 -0.5564  0.4499
   93CHL1   C14 9304   5.724   1.338   7.500  0.6326 -0.4937 -0.5772
   93CHL1   H14 9305   5.667   1.244   7.519 -1.7171  0.9350 -0.0793
   93CHL1   C15 9306   5.644   1.448   7.568  0.8534 -0.2579 -0.2018
   93CHL1  H15A 9307   5.668   1.545   7.521  0.4614 -0.4503 -0.8135
   93CHL1  H15B 9308   5.537   1.430   7.544  0.5940  1.5618 -0.5281
   93CHL1   C16 9309   5.682   1.443   7.723 -0.4949 -0.3966  1.3320
   93CHL1  H16A 9310   5.706   1.545   7.758  0.1228  0.6847 -1.8803
   93CHL1  H16B 9311   5.594   1.415   7.785 -1.1269 -0.1936  0.5471
   93CHL1   C17 9312   5.796   1.344   7.728 -0.1468  0.1176 -0.7046
   93CHL1   H17 9313   5.747   1.248   7.752 -2.4980  1.7205  1.4035
   93CHL1   C13 9314   5.852   1.330   7.587  0.0838  0.3381  0.1497
   93CHL1   C18 9315   5.945   1.445   7.572 -0.1369  0.3113 -0.0388
   93CHL1  H18A 9316   5.996   1.439   7.474  0.2412  0.9337  0.1110
   93CHL1  H18B 9317   5.899   1.545   7.588 -2.0493 -0.6739  0.9173
   93CHL1  H18C 9318   6.031   1.433   7.642 -0.3063 -1.6110 -0.1066
   93CHL1   C12 9319   5.920   1.197   7.545  0.0474 -0.0389  0.3626
   93CHL1  H12A 9320   6.011   1.181   7.606 -1.0184 -0.2589  1.9462
   93CHL1  H12B 9321   5.860   1.106   7.568 -1.2847  0.1818 -1.8995
   93CHL1   C11 9322   5.953   1.192   7.390  0.1128  0.2608  0.2852
   93CHL1  H11A 9323   6.039   1.255   7.359  1.9294 -1.6115  1.3028
   93CHL1  H11B 9324   5.979   1.085   7.375  0.1566  0.1586  1.0496
   93CHL1    C9 9325   5.828   1.218   7.302 -0.5219  0.0927 -0.7337
   93CHL1    H9 9326   5.762   1.131   7.325 -1.2908  0.3987 -1.7129
   93CHL1   C10 9327   5.850   1.206   7.149  0.4135 -0.4525  0.0229
   93CHL1   C19 9328   5.968   1.289   7.101  0.4080 -0.2603  0.4620
   93CHL1  H19A 9329   5.988   1.275   6.993  1.0865  0.3668  0.4942
   93CHL1  H19B 9330   5.947   1.396   7.124  1.3739  0.0450 -0.0072
   93CHL1  H19C 9331   6.058   1.268   7.163 -0.1188 -1.7271  0.7741
   93CHL1    C1 9332   5.871   1.053   7.110 -0.0725 -1.2550 -0.1525
   93CHL1   H1A 9333   5.962   1.015   7.160  0.6898  1.0827  0.3458
   93CHL1   H1B 9334   5.787   0.995   7.153 -1.9336 -0.3357 -2.3083
   93CHL1    C2 9335   5.868   1.018   6.955  0.6520 -0.1094 -0.1642
   93CHL1   H2A 9336   5.877   0.908   6.945 -0.0135 -0.2918  1.0210
   93CHL1   H2B 9337   5.954   1.074   6.912  0.5873 -1.3128 -1.9465
   93CHL1   C20 9338   5.885   1.357   7.854  0.3742 -1.1887  0.3673
   93CHL1   H20 9339   5.923   1.461   7.856 -0.7770 -0.7094 -0.9536
   93CHL1   C21 9340   6.002   1.261   7.856  0.8646 -0.3518  0.0061
   93CHL1  H21A 9341   6.061   1.276   7.764 -1.6761  0.6726 -1.5754
   93CHL1  H21B 9342   5.963   1.158   7.851  4.8522 -2.0101 -0.4157
   93CHL1  H21C 9343   6.064   1.263   7.948 -1.5285  0.8545  1.7054
   93CHL1   C22 9344   5.794   1.334   7.982  0.1827 -0.3452 -0.2536
   93CHL1  H22A 9345   5.691   1.372   7.967  0.8925  3.0945  2.2268
   93CHL1  H22B 9346   5.786   1.231   8.022  1.0392 -0.8590 -1.3656
   93CHL1   C23 9347   5.853   1.408   8.100  0.2624 -0.4985  0.2808
   93CHL1  H23A 9348   5.964   1.396   8.106  0.4438  0.4046 -0.8726
   93CHL1  H23B 9349   5.833   1.517   8.091  1.2067 -0.1506  1.9403
   93CHL1   C24 9350   5.782   1.366   8.233 -0.4452  0.2026  0.0453
   93CHL1  H24A 9351   5.673   1.354   8.212 -0.7014  0.0071  1.3838
   93CHL1  H24B 9352   5.821   1.267   8.264  0.6138  0.4570 -0.4432
   93CHL1   C25 9353   5.809   1.443   8.363 -0.3339  0.4294  0.4451
   93CHL1   H25 9354   5.917   1.460   8.382  0.0085 -1.1554  0.0849
   93CHL1   C26 9355   5.746   1.580   8.371 -0.9367 -0.5439  0.1823
   93CHL1  H26A 9356   5.763   1.617   8.474  0.8730 -0.3547 -0.1508
   93CHL1  H26B 9357   5.805   1.646   8.303  1.6529 -1.0268  1.8276
   93CHL1  H26C 9358   5.638   1.591   8.349 -0.8700  1.4443  0.6538
   93CHL1   C27 9359   5.752   1.346   8.472 -0.0208  0.2198 -0.3499
   93CHL1  H27A 9360   5.644   1.334   8.450 -0.8840  0.5516  3.1351
   93CHL1  H27B 9361   5.800   1.246   8.474 -0.3947  0.0122 -1.1697
   93CHL1  H27C 9362   5.765   1.409   8.563  3.0889 -0.5766 -0.1130
   94CHL1    C3 9363   1.002   5.461   6.693 -0.8023 -0.0320 -0.2509
   94CHL1    H3 9364   0.899   5.446   6.731 -0.5230  1.7677  1.3916
   94CHL1    O3 9365   0.996   5.444   6.555  0.2820 -0.3135  0.3955
   94CHL1   H3' 9366   0.982   5.350   6.537 -0.1816  0.1937 -2.3990
   94CHL1    C4 9367   1.045   5.602   6.744  0.6849  0.4205 -0.1978
   94CHL1   H4A 9368   1.147   5.633   6.712  0.7655 -0.5072 -0.8479
   94CHL1   H4B 9369   0.971   5.674   6.703 -0.5813 -0.3576  0.6370
   94CHL1    C5 9370   1.045   5.605   6.900  0.1537  0.0053 -1.0179
   94CHL1    C6 9371   0.967   5.695   6.961  0.5562  0.3887  0.0896
   94CHL1    H6 9372   0.914   5.774   6.905  0.8136  0.7478  0.3482
   94CHL1    C7 9373   0.960   5.710   7.113 -0.3772  0.0407 -0.1272
   94CHL1   H7A 9374   0.953   5.820   7.130  0.1175  0.1318 -0.5013
   94CHL1   H7B 9375   0.875   5.654   7.158  0.1683 -0.0946  0.7541
   94CHL1    C8 9376   1.083   5.651   7.173  0.1370  0.0407 -0.4771
   94CHL1    H8 9377   1.163   5.725   7.152  0.4854  0.1259  0.9956
   94CHL1   C14 9378   1.054   5.637   7.325 -0.0992  0.2133  0.9930
   94CHL1   H14 9379   0.964   5.573   7.321 -0.0537  0.1625  0.7802
   94CHL1   C15 9380   1.004   5.759   7.404  0.7539 -0.0048  0.0454
   94CHL1  H15A 9381   1.061   5.855   7.397 -1.3620  1.3824  0.8398
   94CHL1  H15B 9382   0.900   5.791   7.382  0.0618 -0.3908  2.4966
   94CHL1   C16 9383   1.014   5.713   7.551  0.2587 -0.4232  0.0522
   94CHL1  H16A 9384   1.077   5.792   7.597  0.6481 -0.7086  0.0104
   94CHL1  H16B 9385   0.920   5.694   7.608 -0.2638 -1.3557 -1.0610
   94CHL1   C17 9386   1.087   5.576   7.552 -0.1936 -0.2704  0.4562
   94CHL1   H17 9387   1.011   5.495   7.551  0.7727 -1.1843 -0.2391
   94CHL1   C13 9388   1.160   5.567   7.413  0.1769 -0.1846 -0.0666
   94CHL1   C18 9389   1.290   5.648   7.413  0.7251  0.1108 -0.4524
   94CHL1  H18A 9390   1.356   5.591   7.482 -1.1290 -0.7938  0.6628
   94CHL1  H18B 9391   1.337   5.672   7.315 -1.2053  1.6540 -1.0547
   94CHL1  H18C 9392   1.278   5.749   7.457  2.1138  0.4840 -0.8867
   94CHL1   C12 9393   1.179   5.426   7.357 -0.0211 -0.2078  0.2174
   94CHL1  H12A 9394   1.249   5.355   7.406  1.6176 -0.1574 -1.8934
   94CHL1  H12B 9395   1.079   5.379   7.357 -0.4647  0.6942 -0.7751
   94CHL1   C11 9396   1.218   5.430   7.207  0.5457 -0.3174 -0.3795
   94CHL1  H11A 9397   1.320   5.470   7.189  1.5698 -2.3235  0.6337
   94CHL1  H11B 9398   1.218   5.328   7.163  0.7827 -0.1727 -0.7186
   94CHL1    C9 9399   1.110   5.507   7.122 -0.3752 -0.0580 -0.4559
   94CHL1    H9 9400   1.015   5.451   7.136 -1.7602  2.4738  1.1428
   94CHL1   C10 9401   1.130   5.498   6.967  0.0311 -0.4383 -0.5706
   94CHL1   C19 9402   1.280   5.536   6.933  0.0068  0.1140  0.4402
   94CHL1  H19A 9403   1.349   5.456   6.966 -3.0617 -2.4357  1.1373
   94CHL1  H19B 9404   1.288   5.547   6.823 -0.5171  1.2136  0.4926
   94CHL1  H19C 9405   1.317   5.634   6.971 -1.5775  0.9835 -0.1337
   94CHL1    C1 9406   1.089   5.360   6.912 -0.3689 -0.4041  0.0020
   94CHL1   H1A 9407   1.159   5.280   6.943 -0.9531 -0.6042  0.8497
   94CHL1   H1B 9408   0.984   5.335   6.941 -1.0808  1.7154 -0.5638
   94CHL1    C2 9409   1.088   5.357   6.760 -0.2619 -0.1974 -0.3807
   94CHL1   H2A 9410   1.047   5.257   6.737 -0.9420  0.2986 -1.3746
   94CHL1   H2B 9411   1.196   5.362   6.732 -0.1301  2.1853  0.2825
   94CHL1   C20 9412   1.167   5.548   7.678  0.3416  0.3436  0.0938
   94CHL1   H20 9413   1.250   5.619   7.697  3.0952 -2.4632 -0.5631
   94CHL1   C21 9414   1.220   5.403   7.675 -0.8927  0.1965 -0.3222
   94CHL1  H21A 9415   1.149   5.342   7.616 -0.4242  0.3539 -1.0609
   94CHL1  H21B 9416   1.231   5.352   7.774  1.8182  0.8565 -0.2019
   94CHL1  H21C 9417   1.317   5.404   7.621 -1.8122 -1.1072 -2.0723
   94CHL1   C22 9418   1.075   5.565   7.810 -0.5569 -0.3582 -1.4089
   94CHL1  H22A 9419   1.031   5.666   7.806 -0.5491 -0.2047  0.9894
   94CHL1  H22B 9420   0.993   5.490   7.819 -0.8813  0.0286 -1.0900
   94CHL1   C23 9421   1.167   5.562   7.934  0.4096 -0.2367 -0.2335
   94CHL1  H23A 9422   1.261   5.506   7.918  1.5563  1.9602 -1.6783
   94CHL1  H23B 9423   1.182   5.668   7.965 -2.1800 -0.0736  0.7078
   94CHL1   C24 9424   1.085   5.490   8.049 -0.0923  0.5469 -1.2341
   94CHL1  H24A 9425   0.995   5.554   8.055  1.5345  2.8558 -0.0456
   94CHL1  H24B 9426   1.046   5.392   8.012 -0.5295 -0.0963  0.8382
   94CHL1   C25 9427   1.144   5.469   8.184 -0.5289  0.5406  0.1369
   94CHL1   H25 9428   1.066   5.437   8.256  1.7715 -3.0564  1.3083
   94CHL1   C26 9429   1.233   5.341   8.167 -0.7742  0.6016 -0.4043
   94CHL1  H26A 9430   1.176   5.258   8.121 -1.2018 -0.2392  1.5512
   94CHL1  H26B 9431   1.316   5.362   8.096 -1.1049 -0.3829 -1.0955
   94CHL1  H26C 9432   1.266   5.296   8.263  1.7569 -0.8867 -1.8429
   94CHL1   C27 9433   1.220   5.591   8.233 -0.2697 -0.3496  0.3592
   94CHL1  H27A 9434   1.305   5.610   8.164  2.7546  0.6324  4.0141
   94CHL1  H27B 9435   1.152   5.677   8.250  1.0032  1.6537 -3.3813
   94CHL1  H27C 9436   1.272   5.567   8.328 -0.6699  0.5934  0.8292
   95CHL1    C3 9437   0.870   4.712   6.577  0.1707 -0.3550  0.4289
   95CHL1    H3 9438   0.836   4.614   6.616 -2.6155  0.1596 -0.4452
   95CHL1    O3 9439   0.876   4.716   6.427 -0.8316 -0.8572 -0.1904
   95CHL1   H3' 9440   0.813   4.654   6.387 -0.5406  0.1750 -2.4046
   95CHL1    C4 9441   0.780   4.828   6.612  0.2845 -0.5661 -0.3889
   95CHL1   H4A 9442   0.826   4.914   6.557 -3.2987  0.8425 -1.4867
   95CHL1   H4B 9443   0.682   4.816   6.561 -1.3843  1.8439  1.9397
   95CHL1    C5 9444   0.778   4.854   6.759 -0.5601 -0.4932 -0.2158
   95CHL1    C6 9445   0.662   4.847   6.829 -0.2145  0.5665  0.4119
   95CHL1    H6 9446   0.571   4.818   6.774  0.1386 -1.9963  1.0461
   95CHL1    C7 9447   0.653   4.871   6.973  0.8748 -0.5493 -0.1986
   95CHL1   H7A 9448   0.567   4.938   6.994  1.8334  0.5369  0.3154
   95CHL1   H7B 9449   0.627   4.775   7.025  1.7407 -0.5207  0.3030
   95CHL1    C8 9450   0.771   4.945   7.035 -0.1770  0.2643 -0.2319
   95CHL1    H8 9451   0.771   5.049   6.997 -0.4770  1.0728  1.8704
   95CHL1   C14 9452   0.770   4.946   7.189  1.0712  0.3387  0.3204
   95CHL1   H14 9453   0.776   4.839   7.219  2.0762  0.6630  1.3663
   95CHL1   C15 9454   0.642   4.996   7.261 -0.5698 -0.5278  0.7403
   95CHL1  H15A 9455   0.616   5.090   7.207 -1.4617 -0.6784  0.8993
   95CHL1  H15B 9456   0.549   4.937   7.271 -0.4898 -0.3796  2.7034
   95CHL1   C16 9457   0.672   5.022   7.404  0.5349 -0.8241 -0.9470
   95CHL1  H16A 9458   0.642   5.126   7.432 -0.9781 -0.8109 -2.4374
   95CHL1  H16B 9459   0.633   4.953   7.482  1.8381 -0.1422  0.3433
   95CHL1   C17 9460   0.829   5.003   7.405  0.4510  0.5587  0.3970
   95CHL1   H17 9461   0.843   4.895   7.424  1.6454  0.7156  0.4642
   95CHL1   C13 9462   0.880   5.022   7.261  0.2970 -0.4372 -0.1132
   95CHL1   C18 9463   0.879   5.181   7.231  0.4231  0.2860  0.3938
   95CHL1  H18A 9464   0.799   5.230   7.292  1.1884  1.0257  0.8243
   95CHL1  H18B 9465   0.975   5.219   7.271  1.5382 -0.4250 -1.4937
   95CHL1  H18C 9466   0.866   5.201   7.122 -0.5760 -0.2391  0.4064
   95CHL1   C12 9467   1.008   4.950   7.216  0.5013  0.1133  0.1252
   95CHL1  H12A 9468   1.100   4.989   7.265  0.8689  0.2860 -0.6976
   95CHL1  H12B 9469   1.000   4.844   7.251 -0.7177 -0.4190 -1.5915
   95CHL1   C11 9470   1.026   4.954   7.062  0.1956 -0.1006 -1.1499
   95CHL1  H11A 9471   1.052   5.058   7.032  0.7500  0.2189  0.3560
   95CHL1  H11B 9472   1.113   4.889   7.039  1.3785  0.5337  1.2275
   95CHL1    C9 9473   0.903   4.891   6.985  0.0674  0.7583 -0.3253
   95CHL1    H9 9474   0.901   4.785   7.020 -0.3023  0.6570 -0.6517
   95CHL1   C10 9475   0.909   4.885   6.828 -0.6299 -0.0796 -0.1177
   95CHL1   C19 9476   0.975   5.017   6.775 -0.6688  0.5936  0.2765
   95CHL1  H19A 9477   1.066   5.054   6.828 -0.1595  1.0373 -0.8743
   95CHL1  H19B 9478   0.992   5.013   6.666 -0.5616 -0.6609  0.3248
   95CHL1  H19C 9479   0.897   5.095   6.781  0.3365  1.6426  0.1394
   95CHL1    C1 9480   1.003   4.763   6.792  0.1196 -0.1037  0.8663
   95CHL1   H1A 9481   1.101   4.775   6.842  0.6820  2.2944 -0.6358
   95CHL1   H1B 9482   0.982   4.666   6.841  3.0235 -2.7481 -2.5715
   95CHL1    C2 9483   1.011   4.733   6.634  0.2206 -0.2468 -0.3471
   95CHL1   H2A 9484   1.080   4.651   6.606 -0.5644  0.2278 -4.2695
   95CHL1   H2B 9485   1.034   4.830   6.583 -0.6590 -0.6629 -1.5742
   95CHL1   C20 9486   0.897   5.079   7.523 -0.1777 -0.6437  0.4149
   95CHL1   H20 9487   0.883   5.188   7.503  1.2158 -0.3824  0.7319
   95CHL1   C21 9488   1.056   5.070   7.520  0.0186 -0.3519 -0.0580
   95CHL1  H21A 9489   1.080   4.966   7.490  2.7103 -0.4038  1.8669
   95CHL1  H21B 9490   1.098   5.078   7.623 -0.7288  0.5394  0.1970
   95CHL1  H21C 9491   1.108   5.144   7.455  0.3159 -0.8300 -0.3731
   95CHL1   C22 9492   0.847   5.042   7.663  0.3054 -0.0999 -0.1716
   95CHL1  H22A 9493   0.736   5.049   7.665  0.2428 -0.5399 -1.4752
   95CHL1  H22B 9494   0.881   4.940   7.691 -1.6004 -0.5735  0.5364
   95CHL1   C23 9495   0.886   5.145   7.776 -0.4211 -0.3285  0.5777
   95CHL1  H23A 9496   0.993   5.173   7.765 -0.7957  0.5252 -1.2640
   95CHL1  H23B 9497   0.828   5.235   7.749  0.2467 -0.1527 -0.3101
   95CHL1   C24 9498   0.850   5.093   7.911  0.8273 -0.7604 -0.0212
   95CHL1  H24A 9499   0.846   5.182   7.978 -1.0485  0.2665 -1.4175
   95CHL1  H24B 9500   0.750   5.046   7.922  0.9095 -0.9541 -0.1043
   95CHL1   C25 9501   0.945   4.979   7.964  0.0548  0.0455 -0.0540
   95CHL1   H25 9502   0.925   4.893   7.896 -1.5458 -0.4623  0.9959
   95CHL1   C26 9503   1.098   5.001   7.949 -0.3370 -0.6220 -0.9043
   95CHL1  H26A 9504   1.148   5.019   7.851 -0.2870 -0.1804 -0.8019
   95CHL1  H26B 9505   1.113   5.096   8.005 -1.6043 -0.7623 -0.2859
   95CHL1  H26C 9506   1.151   4.916   7.997  0.5304  0.9121  0.9984
   95CHL1   C27 9507   0.905   4.937   8.105  0.2567  0.1297 -0.1971
   95CHL1  H27A 9508   0.804   4.892   8.098  0.3691 -0.0088 -1.0235
   95CHL1  H27B 9509   0.965   4.853   8.146 -2.0772 -1.4602  0.1207
   95CHL1  H27C 9510   0.917   5.027   8.169  3.0612 -1.6480  2.0475
   96CHL1    C3 9511   0.937   3.931   6.465  0.3596 -0.6543  1.2899
   96CHL1    H3 9512   0.927   4.041   6.460 -0.0087 -0.7135  0.4367
   96CHL1    O3 9513   0.897   3.890   6.334  0.6953  0.5714  0.1247
   96CHL1   H3' 9514   0.977   3.898   6.282  0.0328  1.3915 -0.7954
   96CHL1    C4 9515   1.081   3.890   6.502 -0.5825 -0.0558  0.7296
   96CHL1   H4A 9516   1.100   3.782   6.487 -0.8277  0.2341 -2.4517
   96CHL1   H4B 9517   1.153   3.938   6.433 -1.2721 -0.0762 -0.0165
   96CHL1    C5 9518   1.105   3.933   6.646 -0.1244  0.4143  0.0326
   96CHL1    C6 9519   1.204   4.025   6.668 -0.3417  0.1324 -0.0282
   96CHL1    H6 9520   1.265   4.057   6.583 -1.5012 -1.0789 -1.3813
   96CHL1    C7 9521   1.240   4.078   6.805  0.3453 -0.3520 -1.1988
   96CHL1   H7A 9522   1.348   4.076   6.832 -0.1743  0.9754  1.2353
   96CHL1   H7B 9523   1.202   4.182   6.813  1.2446 -0.1696  1.8042
   96CHL1    C8 9524   1.163   4.006   6.920  0.5463 -0.3399  0.0419
   96CHL1    H8 9525   1.215   3.909   6.938 -0.8234 -1.0793  0.1295
   96CHL1   C14 9526   1.181   4.081   7.049  0.2313 -0.2312 -0.2486
   96CHL1   H14 9527   1.136   4.182   7.041 -3.3860 -1.7223 -0.6100
   96CHL1   C15 9528   1.328   4.105   7.101 -0.2526  0.2308  0.0472
   96CHL1  H15A 9529   1.379   4.008   7.082 -0.2441  0.5999 -2.0772
   96CHL1  H15B 9530   1.375   4.186   7.041 -0.1452  0.5572  0.5641
   96CHL1   C16 9531   1.306   4.135   7.251  0.1832 -0.0021 -0.1040
   96CHL1  H16A 9532   1.366   4.065   7.313 -2.5311  0.0166  2.7989
   96CHL1  H16B 9533   1.343   4.237   7.275  1.4277 -0.5561  0.4319
   96CHL1   C17 9534   1.155   4.117   7.284 -0.5314 -0.1223 -0.6185
   96CHL1   H17 9535   1.109   4.215   7.257 -0.1623  0.5557  1.0749
   96CHL1   C13 9536   1.110   4.021   7.171  0.3953  0.4621 -0.4555
   96CHL1   C18 9537   1.148   3.871   7.209  0.0294 -0.0527  0.0891
   96CHL1  H18A 9538   1.238   3.866   7.273  0.0908 -0.3474 -0.0199
   96CHL1  H18B 9539   1.062   3.832   7.268  1.7351 -0.7631  2.2266
   96CHL1  H18C 9540   1.154   3.796   7.128  0.1988  1.2689 -1.1574
   96CHL1   C12 9541   0.956   4.023   7.133 -0.7878  0.1553  0.1900
   96CHL1  H12A 9542   0.899   3.993   7.223  1.1530  1.5233  1.9702
   96CHL1  H12B 9543   0.948   4.132   7.110  1.4035 -0.0769 -2.1707
   96CHL1   C11 9544   0.934   3.937   7.007 -0.2288 -0.2937  0.7119
   96CHL1  H11A 9545   0.951   3.828   7.017 -0.9108 -0.4605  0.1378
   96CHL1  H11B 9546   0.825   3.954   6.987 -0.0613 -0.8197 -0.7785
   96CHL1    C9 9547   1.018   3.981   6.885  0.2465  0.6606  0.1282
   96CHL1    H9 9548   0.982   4.081   6.852 -1.8403  0.0474  0.3725
   96CHL1   C10 9549   1.003   3.895   6.756  0.0891 -0.2295 -0.0504
   96CHL1   C19 9550   1.026   3.741   6.777  0.6953 -0.5754 -0.3768
   96CHL1  H19A 9551   1.025   3.686   6.680  1.4059  0.1178 -0.7944
   96CHL1  H19B 9552   1.123   3.722   6.826  1.9220  1.3660 -1.8847
   96CHL1  H19C 9553   0.944   3.696   6.837 -1.0803  0.8332 -1.6371
   96CHL1    C1 9554   0.859   3.920   6.703  0.3848 -0.4074  0.2427
   96CHL1   H1A 9555   0.776   3.892   6.771  0.4269 -1.1406  0.0054
   96CHL1   H1B 9556   0.859   4.031   6.704  2.4711 -0.3576 -0.7615
   96CHL1    C2 9557   0.832   3.872   6.558  0.4054 -0.6776 -0.2396
   96CHL1   H2A 9558   0.726   3.898   6.538  0.5845 -0.6041 -1.1026
   96CHL1   H2B 9559   0.842   3.761   6.555  1.1137 -0.6119 -0.5366
   96CHL1   C20 9560   1.121   4.091   7.434  0.2870 -0.7168  0.0941
   96CHL1   H20 9561   1.150   3.986   7.454 -0.7272 -1.2510 -1.1155
   96CHL1   C21 9562   0.968   4.123   7.467 -1.1659 -0.7879  0.6877
   96CHL1  H21A 9563   0.945   4.120   7.575 -1.3778  0.3937  0.6948
   96CHL1  H21B 9564   0.907   4.045   7.416 -0.0671 -2.9282  2.4983
   96CHL1  H21C 9565   0.941   4.224   7.429  1.6052 -0.5209 -0.8303
   96CHL1   C22 9566   1.209   4.184   7.525 -0.3729 -0.1676  0.3455
   96CHL1  H22A 9567   1.315   4.159   7.504 -0.7497 -0.3400 -1.6063
   96CHL1  H22B 9568   1.197   4.292   7.500 -2.4848 -0.5317 -0.4135
   96CHL1   C23 9569   1.196   4.154   7.674 -0.3603 -0.3712 -0.4709
   96CHL1  H23A 9570   1.251   4.239   7.720  1.0527 -1.0736 -0.8078
   96CHL1  H23B 9571   1.094   4.176   7.712  0.4276 -0.2637  1.7240
   96CHL1   C24 9572   1.243   4.024   7.725 -0.5355  0.2847  0.7158
   96CHL1  H24A 9573   1.219   3.946   7.650  0.4750  0.6556 -0.0191
   96CHL1  H24B 9574   1.353   4.024   7.744 -0.4752  3.0246  0.7754
   96CHL1   C25 9575   1.183   3.986   7.850 -0.2481  0.9810  0.1822
   96CHL1   H25 9576   1.073   3.989   7.831 -0.2544  2.6879  0.3459
   96CHL1   C26 9577   1.217   3.843   7.902  0.1273  0.0557 -0.6456
   96CHL1  H26A 9578   1.152   3.833   7.992  0.6846  3.1851  0.2184
   96CHL1  H26B 9579   1.193   3.765   7.828  0.1324  0.0633 -0.6555
   96CHL1  H26C 9580   1.323   3.849   7.936  0.1692  5.8832 -0.6810
   96CHL1   C27 9581   1.210   4.089   7.966 -0.1517 -0.4620 -0.0711
   96CHL1  H27A 9582   1.320   4.084   7.984 -0.1880 -2.2759 -0.1040
   96CHL1  H27B 9583   1.175   4.190   7.939 -0.3958 -0.5430 -0.0627
   96CHL1  H27C 9584   1.159   4.054   8.058 -1.1792  0.8820 -0.1116
   97OSM      N 9585   5.203   2.080  11.161 -0.0434 -0.6128  0.6783
   97OSM    C15 9586   5.326   2.175  11.144  0.1488  0.7489 -0.1761
   97OSM   H15A 9587   5.380   2.202  11.233 -0.8717  0.8428  0.4328
   97OSM   H15B 9588   5.284   2.260  11.092 -1.8530 -0.5538 -0.8042
   97OSM   H15C 9589   5.405   2.124  11.091  0.2239  0.6621  0.0205
   97OSM    C14 9590   5.250   1.975  11.259  0.3499  0.2533  0.3690
   97OSM   H14A 9591   5.339   1.924  11.224 -1.2333 -0.8306 -2.4475
   97OSM   H14B 9592   5.177   1.896  11.272  0.3033  0.1825 -0.2776
   97OSM   H14C 9593   5.276   2.015  11.356 -1.6495  0.8363  0.6967
   97OSM    C13 9594   5.091   2.158  11.227 -0.3089  0.2928 -0.2720
   97OSM   H13A 9595   5.062   2.236  11.158  1.1567 -1.0715 -2.5530
   97OSM   H13B 9596   5.120   2.196  11.324  0.2590  0.8816 -0.6668
   97OSM   H13C 9597   5.005   2.096  11.248 -1.2638  0.7006 -2.6577
   97OSM    C12 9598   5.166   2.022  11.029  0.1613 -0.2537  0.2176
   97OSM   H12A 9599   5.241   1.952  10.995 -0.5662 -0.4687 -1.0254
   97OSM   H12B 9600   5.157   2.099  10.953  1.0612 -1.3778 -1.0792
   97OSM    C11 9601   5.039   1.938  11.019  0.6003 -0.3524  0.1189
   97OSM   H11A 9602   5.054   1.858  11.094 -0.1479  0.7373  1.4880
   97OSM   H11B 9603   5.017   1.880  10.927 -0.1567  1.4775 -0.9232
   97OSM      P 9604   4.850   2.098  10.953  0.2732 -0.0630  0.2024
   97OSM    O13 9605   4.760   2.196  11.022  0.0041 -0.1789  0.2330
   97OSM    O14 9606   4.958   2.153  10.871 -0.2800 -0.0466  0.3414
   97OSM    O11 9607   4.759   1.999  10.863 -0.7270 -0.0211  0.2931
   97OSM    O12 9608   4.916   2.006  11.061 -0.1543  0.1393  0.4713
   97OSM    C1S 9609   4.680   2.048  10.750 -0.8409 -0.3847 -0.2163
   97OSM    H1S 9610   4.716   2.149  10.721  0.4065  0.0952  2.6425
   97OSM    H1T 9611   4.571   2.038  10.767 -0.7385 -0.6718  0.2983
   97OSM     NF 9612   4.644   2.013  10.502  0.3381  0.2855 -0.4371
   97OSM    HNF 9613   4.564   1.966  10.468  0.4076  0.1578 -0.4218
   97OSM    C2S 9614   4.702   1.953  10.620 -0.4388  0.3232 -0.2177
   97OSM    H2S 9615   4.813   1.948  10.609 -0.5444 -0.6788 -0.9855
   97OSM    C3S 9616   4.655   1.809  10.651 -0.1564  0.5244 -0.7951
   97OSM    H3S 9617   4.546   1.800  10.669  0.2569  0.0271  1.7735
   97OSM     O3 9618   4.715   1.748  10.763  0.7124 -0.4963 -0.0949
   97OSM    HO3 9619   4.751   1.821  10.814 -2.0382  1.2812 -0.4457
   97OSM    C4S 9620   4.686   1.719  10.531 -0.4103 -0.1068  0.2745
   97OSM    H4S 9621   4.773   1.745  10.470  0.4282 -0.0097  1.4642
   97OSM    C5S 9622   4.601   1.618  10.492  0.3786 -0.0158 -0.6210
   97OSM    H5S 9623   4.520   1.585  10.557  1.6097  0.4100  1.2082
   97OSM    C6S 9624   4.636   1.533  10.380 -0.6175  0.8424  0.0523
   97OSM    H6S 9625   4.595   1.430  10.387  1.8258 -0.1342  1.4174
   97OSM    H6T 9626   4.747   1.530  10.372 -0.7312  1.1906 -2.3170
   97OSM    C7S 9627   4.582   1.589  10.253  0.3854 -0.4900  0.1737
   97OSM    H7S 9628   4.633   1.681  10.218 -3.5101  0.8639 -2.6480
   97OSM    H7T 9629   4.473   1.611  10.254  0.4553  0.3618 -2.6590
   97OSM    C8S 9630   4.591   1.500  10.134 -0.6986  0.2322  0.6296
   97OSM    H8S 9631   4.509   1.532  10.067 -1.0724  0.8460  1.3697
   97OSM    H8T 9632   4.574   1.394  10.162  2.6267 -0.6119 -0.0880
   97OSM    C9S 9633   4.725   1.506  10.066  0.4883  0.4723 -0.0299
   97OSM    H9S 9634   4.802   1.487  10.145 -0.1760 -0.9844  0.3004
   97OSM    H9T 9635   4.729   1.616  10.048 -2.3020  0.9186  1.5678
   97OSM   C10S 9636   4.750   1.425   9.931  0.3379  0.8344 -0.1639
   97OSM   H10S 9637   4.758   1.319   9.963 -0.6634  1.1719  1.3113
   97OSM   H10T 9638   4.844   1.464   9.885  0.4687  0.4330 -0.2380
   97OSM   C11S 9639   4.639   1.439   9.829  0.3007 -0.6568 -0.0082
   97OSM   H11S 9640   4.582   1.534   9.833  1.4051  0.1185 -1.8073
   97OSM   H11T 9641   4.565   1.363   9.863 -0.2062  0.2253  0.9288
   97OSM   C12S 9642   4.690   1.412   9.687  0.5002  0.0011  0.1621
   97OSM   H12S 9643   4.772   1.337   9.680  0.3619 -0.2944  1.4805
   97OSM   H12T 9644   4.727   1.507   9.645  1.8809  0.2174  1.7886
   97OSM   C13S 9645   4.569   1.367   9.598  0.1488 -0.3407 -0.5749
   97OSM   H13S 9646   4.492   1.445   9.615  0.6192  0.2926 -1.3033
   97OSM   H13T 9647   4.521   1.270   9.621 -1.9935  1.2025  2.0681
   97OSM   C14S 9648   4.598   1.368   9.439 -0.2693  0.4701 -0.1709
   97OSM   H14S 9649   4.668   1.282   9.427 -1.2674 -0.2523 -0.9028
   97OSM   H14T 9650   4.647   1.466   9.420 -0.0611  0.3758 -0.1300
   97OSM   C15S 9651   4.471   1.358   9.352 -0.1690  0.3327  1.0513
   97OSM   H15S 9652   4.389   1.423   9.389 -0.8167  0.7076 -0.9021
   97OSM   H15T 9653   4.436   1.254   9.362 -0.6042  0.6762  3.5079
   97OSM   C16S 9654   4.509   1.386   9.208 -0.3190 -0.2164 -0.0330
   97OSM   H16S 9655   4.587   1.317   9.169 -0.2135 -1.0455  1.5699
   97OSM   H16T 9656   4.552   1.489   9.206  0.8354 -0.6385  1.2355
   97OSM   C17S 9657   4.382   1.391   9.122  0.5726  0.9267 -0.5816
   97OSM   H17S 9658   4.307   1.445   9.184  0.7677  0.5998 -0.0516
   97OSM   H17T 9659   4.359   1.283   9.109 -0.4711  1.0984 -0.2877
   97OSM   C18S 9660   4.384   1.443   8.979  0.5382 -0.3675 -0.2104
   97OSM   H18S 9661   4.291   1.413   8.926  0.1658  1.1568 -0.4837
   97OSM   H18T 9662   4.473   1.390   8.940  0.4325 -2.1125  1.7568
   97OSM   H18U 9663   4.421   1.547   8.967  1.9987 -0.8793 -0.3113
   97OSM    C1F 9664   4.683   2.125  10.445  0.2959 -0.4770  0.0125
   97OSM     OF 9665   4.791   2.177  10.476  0.1474  0.0931 -0.2670
   97OSM    C2F 9666   4.593   2.177  10.332 -0.1368  0.0642 -0.1070
   97OSM    H2F 9667   4.505   2.229  10.375 -2.5825 -2.1370 -2.0600
   97OSM    H2G 9668   4.548   2.094  10.274 -0.8702  2.0578 -2.5718
   97OSM    C3F 9669   4.674   2.259  10.231 -0.8090  0.0902  1.2759
   97OSM    H3F 9670   4.713   2.353  10.276 -3.3265  1.5482  0.6320
   97OSM    H3G 9671   4.598   2.296  10.159  0.6852  0.1056 -0.3592
   97OSM    C4F 9672   4.768   2.177  10.147  0.0489  0.2208  0.1581
   97OSM    H4F 9673   4.717   2.079  10.137  1.2032 -0.3204 -0.5640
   97OSM    H4G 9674   4.863   2.152  10.199 -0.1253  0.5786  0.6653
   97OSM    C5F 9675   4.789   2.246  10.010  0.6391  0.0961  0.3062
   97OSM    H5F 9676   4.850   2.339  10.014  2.5833 -1.0392 -1.3894
   97OSM    H5G 9677   4.692   2.279   9.966  1.0262  2.8957  1.3484
   97OSM    C6F 9678   4.860   2.159   9.904 -0.1060 -0.2755 -0.9053
   97OSM    H6F 9679   4.798   2.067   9.897  1.6101 -1.6295  0.6589
   97OSM    H6G 9680   4.962   2.128   9.934 -0.9926 -2.2205  0.3489
   97OSM    C7F 9681   4.864   2.236   9.778  0.2949 -0.1516  0.9844
   97OSM    H7F 9682   4.932   2.324   9.781  1.5682 -0.9518 -1.3490
   97OSM    H7G 9683   4.764   2.283   9.773 -0.0031 -0.9049 -0.5786
   97OSM    C8F 9684   4.911   2.155   9.656  0.7215 -0.2590 -0.6106
   97OSM    H8F 9685   4.853   2.060   9.657 -2.4429  1.5120 -0.8217
   97OSM    H8G 9686   5.015   2.123   9.675  0.6326 -0.5656 -0.6266
   97OSM    C9F 9687   4.881   2.243   9.537 -0.2560 -0.3993 -1.2144
   97OSM    H9F 9688   4.776   2.259   9.509 -0.1704 -0.0520 -1.3476
   97OSM   C10F 9689   4.973   2.297   9.463 -0.2489 -0.6021 -0.8956
   97OSM   H10F 9690   4.945   2.361   9.378  1.6729  2.0012  0.2915
   97OSM   C11F 9691   5.122   2.289   9.489 -0.2849 -0.1243  0.1729
   97OSM   H11F 9692   5.166   2.196   9.446  0.2011  0.6394 -1.0107
   97OSM   H11G 9693   5.140   2.292   9.598  2.5768  1.2258 -0.2684
   97OSM   C12F 9694   5.196   2.413   9.428  0.6948 -0.1836  0.0427
   97OSM   H12F 9695   5.283   2.443   9.491  0.7041  1.3207 -0.6466
   97OSM   H12G 9696   5.127   2.499   9.428  0.8319 -0.0289  2.2358
   97OSM   C13F 9697   5.236   2.396   9.283 -0.3878  0.1712  0.0078
   97OSM   H13F 9698   5.148   2.383   9.217  1.0858  0.7268 -2.1937
   97OSM   H13G 9699   5.307   2.311   9.274 -1.2937 -0.5163 -0.8299
   97OSM   C14F 9700   5.311   2.520   9.233 -0.6804 -0.3800 -0.4106
   97OSM   H14F 9701   5.391   2.537   9.308 -0.5546  1.9609 -0.9827
   97OSM   H14G 9702   5.238   2.604   9.223  0.1707  0.3505 -0.5597
   97OSM   C15F 9703   5.354   2.497   9.091 -0.5211  0.4045  0.8608
   97OSM   H15F 9704   5.266   2.490   9.024  0.1980 -1.1434  0.0415
   97OSM   H15G 9705   5.409   2.401   9.088  1.9031  1.5955  3.0356
   97OSM   C16F 9706   5.445   2.609   9.025  0.0384 -0.5875 -0.3633
   97OSM   H16F 9707   5.481   2.575   8.925 -2.4924 -2.8909 -0.6267
   97OSM   H16G 9708   5.533   2.631   9.089 -0.7599  0.1386  0.4994
   97OSM   C17F 9709   5.373   2.750   9.005 -0.1370  0.1897 -0.0293
   97OSM   H17F 9710   5.384   2.801   9.103  0.1769  1.0431 -0.4994
   97OSM   H17G 9711   5.265   2.736   8.981  0.2064 -1.5366 -0.7333
   97OSM   C18F 9712   5.421   2.841   8.895 -0.4931 -0.3829  0.2338
   97OSM   H18F 9713   5.404   2.803   8.792 -1.2201  0.9520 -0.1693
   97OSM   H18G 9714   5.531   2.857   8.902 -0.6124  1.3174 -1.3200
   97OSM   H18H 9715   5.374   2.942   8.890 -2.2489 -1.2215 -1.5231
   98OSM      N 9716   4.517   1.905  11.226 -0.7724  0.2009  0.7505
   98OSM    C15 9717   4.536   1.785  11.318  0.0626  0.1929  0.3839
   98OSM   H15A 9718   4.451   1.718  11.319 -0.5037  0.7216 -2.4349
   98OSM   H15B 9719   4.553   1.816  11.420  0.6243 -1.5104  0.8313
   98OSM   H15C 9720   4.618   1.733  11.272 -0.0522  2.2765 -2.4592
   98OSM    C14 9721   4.381   1.955  11.243  0.4442 -0.8781  0.2263
   98OSM   H14A 9722   4.318   1.875  11.205  1.9057 -1.7678 -0.4101
   98OSM   H14B 9723   4.362   2.042  11.183  0.0245 -1.1397 -0.0305
   98OSM   H14C 9724   4.354   1.973  11.346 -0.8978  1.5606 -0.4932
   98OSM    C13 9725   4.620   2.006  11.260  0.1334 -0.4068  0.1647
   98OSM   H13A 9726   4.714   1.957  11.281 -0.8923 -2.2575  0.7292
   98OSM   H13B 9727   4.591   2.060  11.349 -0.6619  1.8800 -1.3963
   98OSM   H13C 9728   4.636   2.076  11.180  1.2568 -1.2995 -0.4267
   98OSM    C12 9729   4.541   1.863  11.084  0.1591  0.5243 -0.0802
   98OSM   H12A 9730   4.647   1.840  11.080  0.7747  2.2996  2.9978
   98OSM   H12B 9731   4.539   1.954  11.027 -0.0925 -0.0954 -1.0847
   98OSM    C11 9732   4.451   1.753  11.012 -0.7233 -0.6318 -0.8795
   98OSM   H11A 9733   4.470   1.654  11.058 -0.3558 -0.9110 -1.6294
   98OSM   H11B 9734   4.480   1.735  10.907 -0.5249 -0.9760 -0.7675
   98OSM      P 9735   4.237   1.877  10.935 -0.0517  0.0909  0.3492
   98OSM    O13 9736   4.087   1.868  10.953  0.2446 -0.1520 -0.0791
   98OSM    O14 9737   4.303   2.005  10.955 -0.3616 -0.0415 -0.3150
   98OSM    O11 9738   4.281   1.818  10.796  0.5545  0.3663 -0.1045
   98OSM    O12 9739   4.310   1.773  11.025 -0.2939 -0.2897 -1.2542
   98OSM    C1S 9740   4.208   1.843  10.677 -0.7443  0.0559 -0.5536
   98OSM    H1S 9741   4.228   1.950  10.654 -0.2508  0.2000  0.4889
   98OSM    H1T 9742   4.101   1.838  10.706  0.1307  1.3700  3.7223
   98OSM     NF 9743   4.192   1.795  10.429 -0.0457 -0.6111 -0.7286
   98OSM    HNF 9744   4.104   1.761  10.395  0.0577 -0.2451 -1.3715
   98OSM    C2S 9745   4.244   1.747  10.558 -0.2345  0.1202  0.5965
   98OSM    H2S 9746   4.355   1.752  10.554 -0.2446  0.2138  0.3752
   98OSM    C3S 9747   4.198   1.604  10.600  0.5367 -0.5366  0.2205
   98OSM    H3S 9748   4.088   1.610  10.616  0.5942  1.2510  0.2065
   98OSM     O3 9749   4.264   1.573  10.722 -0.3150  0.0755 -0.2815
   98OSM    HO3 9750   4.295   1.657  10.758 -0.3103 -0.2661  0.5277
   98OSM    C4S 9751   4.234   1.506  10.490 -0.4717 -0.3111  0.0998
   98OSM    H4S 9752   4.342   1.507  10.468  0.2426  0.5332  3.2433
   98OSM    C5S 9753   4.164   1.435  10.411 -0.4752  0.5187  0.2327
   98OSM    H5S 9754   4.054   1.437  10.415 -0.4701 -0.6948  2.1572
   98OSM    C6S 9755   4.226   1.345  10.303  0.3872  0.3605  0.3090
   98OSM    H6S 9756   4.194   1.240  10.319  2.2656 -0.9181 -3.2085
   98OSM    H6T 9757   4.336   1.329  10.306  0.0617 -2.6262 -0.2417
   98OSM    C7S 9758   4.188   1.396  10.163 -0.2715 -0.2228 -0.3583
   98OSM    H7S 9759   4.216   1.502  10.145 -1.6771 -0.0469 -1.7430
   98OSM    H7T 9760   4.077   1.389  10.162 -0.2781 -0.3866  0.5714
   98OSM    C8S 9761   4.259   1.308  10.055 -0.0054 -0.0521 -0.0127
   98OSM    H8S 9762   4.246   1.202  10.085 -1.8899  0.8995  2.9140
   98OSM    H8T 9763   4.367   1.331  10.061  0.4025 -1.8430 -0.0446
   98OSM    C9S 9764   4.204   1.331   9.914 -0.1982 -0.3385 -0.4569
   98OSM    H9S 9765   4.240   1.428   9.874  0.8479 -0.9364 -1.0187
   98OSM    H9T 9766   4.093   1.336   9.917 -0.2074 -0.5900 -0.3825
   98OSM   C10S 9767   4.256   1.231   9.803 -1.5014 -0.1140 -0.1599
   98OSM   H10S 9768   4.250   1.136   9.861  0.6596  0.8497  1.8043
   98OSM   H10T 9769   4.366   1.232   9.784 -1.4592  0.0573  0.0914
   98OSM   C11S 9770   4.172   1.237   9.675  0.3193 -0.1508  0.1536
   98OSM   H11S 9771   4.152   1.343   9.647 -0.7749 -0.1762  0.7773
   98OSM   H11T 9772   4.074   1.190   9.700  0.4397 -0.4910 -0.0060
   98OSM   C12S 9773   4.235   1.157   9.556 -0.5010  0.4729 -0.6027
   98OSM   H12S 9774   4.250   1.059   9.605  1.7447  0.8725 -0.4014
   98OSM   H12T 9775   4.338   1.197   9.542 -0.7874  1.0417 -1.1584
   98OSM   C13S 9776   4.156   1.157   9.430  0.0459  0.9666  0.2539
   98OSM   H13S 9777   4.153   1.255   9.378  0.3209  0.6209 -0.4323
   98OSM   H13T 9778   4.058   1.110   9.452  0.6535 -0.3244  0.2750
   98OSM   C14S 9779   4.209   1.064   9.310  0.6851 -0.7648 -0.2716
   98OSM   H14S 9780   4.202   0.957   9.336  1.8605 -1.0402 -1.0346
   98OSM   H14T 9781   4.315   1.088   9.286  1.0349  0.2721  2.0335
   98OSM   C15S 9782   4.124   1.089   9.183  0.1858  0.5115  0.0539
   98OSM   H15S 9783   4.112   1.195   9.153 -1.3472  0.9106  1.8766
   98OSM   H15T 9784   4.023   1.051   9.209  1.0847  0.0873  3.3105
   98OSM   C16S 9785   4.172   1.003   9.064 -0.7544 -0.6476 -0.2885
   98OSM   H16S 9786   4.189   0.895   9.082  0.9286 -0.1114  1.7375
   98OSM   H16T 9787   4.273   1.040   9.036 -1.0777  1.4816  1.1032
   98OSM   C17S 9788   4.071   1.023   8.956 -0.3856 -0.1526  0.2990
   98OSM   H17S 9789   4.016   1.117   8.978  2.4645  1.5082  0.8887
   98OSM   H17T 9790   4.005   0.934   8.951 -1.2360  0.4526  0.5791
   98OSM   C18S 9791   4.150   1.043   8.829 -0.4993  0.2492 -0.3435
   98OSM   H18S 9792   4.084   1.062   8.742 -1.8733  1.2805  0.8633
   98OSM   H18T 9793   4.211   0.955   8.801 -2.1220 -0.8692 -0.4961
   98OSM   H18U 9794   4.218   1.130   8.840  0.8327 -0.6925 -0.8483
   98OSM    C1F 9795   4.267   1.883  10.357  0.9022 -0.3085 -0.4159
   98OSM     OF 9796   4.368   1.936  10.404 -0.7354 -0.4614 -0.2905
   98OSM    C2F 9797   4.221   1.921  10.216 -0.7190 -0.4703 -0.2036
   98OSM    H2F 9798   4.234   2.031  10.208 -1.5533 -0.4305 -1.1525
   98OSM    H2G 9799   4.112   1.901  10.209 -0.5915 -1.8269  1.1902
   98OSM    C3F 9800   4.308   1.854  10.113  0.0180 -0.2354  0.3757
   98OSM    H3F 9801   4.284   1.746  10.109 -1.4460  0.0941 -0.2963
   98OSM    H3G 9802   4.413   1.860  10.148 -0.9199  1.1857  3.2450
   98OSM    C4F 9803   4.278   1.911   9.972  0.3615  0.4864  0.2162
   98OSM    H4F 9804   4.180   1.963   9.964  0.7361  1.1488 -0.2346
   98OSM    H4G 9805   4.278   1.830   9.896  1.5650  1.3302 -0.7299
   98OSM    C5F 9806   4.369   2.024   9.922  0.7008 -0.4098 -0.4567
   98OSM    H5F 9807   4.358   2.101  10.002 -0.2324 -1.4654  0.4635
   98OSM    H5G 9808   4.324   2.055   9.825 -0.4481  0.4093  0.3007
   98OSM    C6F 9809   4.512   1.978   9.908 -0.4962  0.2022  0.8691
   98OSM    H6F 9810   4.561   1.956  10.006  1.2771  0.1504  0.0128
   98OSM    H6G 9811   4.565   2.067   9.866  0.3069 -0.4284  0.5256
   98OSM    C7F 9812   4.523   1.862   9.816 -0.6546  0.1550  0.2654
   98OSM    H7F 9813   4.480   1.772   9.864 -1.5089  0.2130 -0.3813
   98OSM    H7G 9814   4.631   1.834   9.818 -1.1463 -2.1275 -1.2821
   98OSM    C8F 9815   4.478   1.892   9.669 -0.0182 -0.1573 -0.1262
   98OSM    H8F 9816   4.513   1.991   9.634  0.1105 -0.1368  0.0574
   98OSM    H8G 9817   4.368   1.896   9.684 -0.0594 -0.1850 -0.4244
   98OSM    C9F 9818   4.519   1.776   9.586 -0.4147  0.5211  0.4099
   98OSM    H9F 9819   4.488   1.678   9.627  1.7150  0.2404  1.5027
   98OSM   C10F 9820   4.597   1.783   9.476 -0.4717 -0.6832  0.2206
   98OSM   H10F 9821   4.627   1.687   9.433  1.3660 -0.7949  1.6112
   98OSM   C11F 9822   4.644   1.915   9.413 -0.7444  0.1397 -0.1121
   98OSM   H11F 9823   4.752   1.900   9.392 -0.8349  0.4475 -0.8338
   98OSM   H11G 9824   4.640   2.002   9.481  1.8076  0.4127 -0.2128
   98OSM   C12F 9825   4.575   1.953   9.277 -0.4127 -0.0381  0.2786
   98OSM   H12F 9826   4.654   2.017   9.232  0.7679 -0.0193  2.2346
   98OSM   H12G 9827   4.478   2.005   9.290  0.1481  1.1172 -0.0025
   98OSM   C13F 9828   4.540   1.833   9.184 -0.7217  0.0356 -0.4135
   98OSM   H13F 9829   4.468   1.868   9.107  0.2043  0.8995 -0.9162
   98OSM   H13G 9830   4.483   1.762   9.248 -1.8611  1.2036 -0.1002
   98OSM   C14F 9831   4.659   1.760   9.120  1.0729 -0.1826  0.4726
   98OSM   H14F 9832   4.622   1.667   9.073  2.7781  0.0145 -1.4097
   98OSM   H14G 9833   4.724   1.723   9.202  1.2008  0.1901  0.5411
   98OSM   C15F 9834   4.733   1.851   9.014 -0.5245 -0.0574 -0.3654
   98OSM   H15F 9835   4.810   1.783   8.972 -0.3404 -1.1793  1.6270
   98OSM   H15G 9836   4.787   1.933   9.066 -1.1418  0.1968 -0.1117
   98OSM   C16F 9837   4.643   1.903   8.902 -0.6697  0.2685  0.2050
   98OSM   H16F 9838   4.543   1.931   8.940 -1.4088 -0.6100 -1.0149
   98OSM   H16G 9839   4.628   1.830   8.819 -0.5202  3.0103 -2.3961
   98OSM   C17F 9840   4.692   2.046   8.870  0.1045 -0.7560  0.5622
   98OSM   H17F 9841   4.669   2.112   8.957  1.2828  1.6049 -0.8049
   98OSM   H17G 9842   4.634   2.080   8.782 -0.0800 -0.2881  0.8574
   98OSM   C18F 9843   4.840   2.061   8.840  0.3037 -0.0854  0.5703
   98OSM   H18F 9844   4.866   2.162   8.803  1.5916 -0.5826  0.0628
   98OSM   H18G 9845   4.872   2.001   8.752  0.5573 -0.9410  1.2311
   98OSM   H18H 9846   4.905   2.040   8.928  0.5509 -0.5559  0.2807
   99OSM      N 9847   5.924   1.824  10.749  0.5081  0.2009  0.5611
   99OSM    C15 9848   5.825   1.725  10.806  0.0401 -0.2081  0.2970
   99OSM   H15A 9849   5.870   1.643  10.860  1.8887  0.7363  0.2562
   99OSM   H15B 9850   5.776   1.678  10.722  0.8286 -0.2904 -0.1230
   99OSM   H15C 9851   5.756   1.783  10.865  0.4252  0.6491 -0.0817
   99OSM    C14 9852   6.033   1.746  10.681 -0.4901 -0.0940 -0.5316
   99OSM   H14A 9853   5.988   1.689  10.601  0.1139 -1.6767  0.2133
   99OSM   H14B 9854   6.067   1.674  10.754 -1.8720 -0.9054 -0.6563
   99OSM   H14C 9855   6.115   1.807  10.646 -0.8127  1.1236  0.7407
   99OSM    C13 9856   5.863   1.906  10.637 -0.3611  0.0846 -0.7505
   99OSM   H13A 9857   5.935   1.939  10.564 -1.2868  0.3925 -1.5421
   99OSM   H13B 9858   5.813   1.988  10.687  1.7798 -0.2928  2.3061
   99OSM   H13C 9859   5.799   1.842  10.579 -2.0357  1.8821 -1.0213
   99OSM    C12 9860   5.982   1.909  10.862  0.1486 -0.8705 -0.6454
   99OSM   H12A 9861   5.999   1.855  10.954  1.3596  1.9583  0.9230
   99OSM   H12B 9862   5.915   1.989  10.888  2.3051  0.3599  1.5480
   99OSM    C11 9863   6.115   1.976  10.830 -0.8830  0.1252 -0.0211
   99OSM   H11A 9864   6.189   1.894  10.817 -2.2973 -1.3877  1.0537
   99OSM   H11B 9865   6.160   2.031  10.916  0.5033  0.6260 -1.0195
   99OSM      P 9866   6.093   2.203  10.698 -0.3868 -0.2810 -0.1368
   99OSM    O13 9867   5.951   2.242  10.679  0.2313  0.2895 -0.8480
   99OSM    O14 9868   6.172   2.282  10.796 -0.4779 -0.0346 -0.1827
   99OSM    O11 9869   6.169   2.207  10.559 -0.0007  0.1013  0.1545
   99OSM    O12 9870   6.115   2.048  10.713  0.3291  0.0870 -0.0283
   99OSM    C1S 9871   6.132   2.123  10.446 -0.2111 -0.5629  0.0117
   99OSM    H1S 9872   6.099   2.020  10.475  1.2653 -1.1931 -0.4793
   99OSM    H1T 9873   6.222   2.109  10.383 -0.0303  1.6953 -0.2815
   99OSM     NF 9874   6.030   2.102  10.225 -0.3378  0.1812 -0.1728
   99OSM    HNF 9875   6.094   2.138  10.158  0.7202  0.5137  0.9793
   99OSM    C2S 9876   6.021   2.181  10.344 -0.3521 -0.3392 -0.1228
   99OSM    H2S 9877   5.923   2.173  10.395  0.4841  1.8404  2.0160
   99OSM    C3S 9878   6.039   2.332  10.321 -0.6104  0.0136 -0.2496
   99OSM    H3S 9879   6.143   2.347  10.288 -0.4447  0.3792  0.4215
   99OSM     O3 9880   6.020   2.420  10.437 -0.5609 -0.2535  0.1517
   99OSM    HO3 9881   5.980   2.362  10.503  0.1758 -2.9871 -1.6286
   99OSM    C4S 9882   5.961   2.380  10.201 -0.4161  0.1650  0.4884
   99OSM    H4S 9883   6.003   2.348  10.105 -0.8126 -0.4636  0.5180
   99OSM    C5S 9884   5.853   2.466  10.196 -0.8492 -0.4173  0.6341
   99OSM    H5S 9885   5.816   2.515  10.288  2.2709  0.7515  1.3775
   99OSM    C6S 9886   5.797   2.521  10.067  0.7682  0.1235 -0.2634
   99OSM    H6S 9887   5.696   2.559  10.091  1.1300 -0.4837  2.6255
   99OSM    H6T 9888   5.784   2.441   9.991 -2.1848 -1.2821  1.5428
   99OSM    C7S 9889   5.902   2.617   9.998  0.9532  0.3662 -0.5238
   99OSM    H7S 9890   5.979   2.561   9.940  0.2231 -0.5324 -0.6666
   99OSM    H7T 9891   5.953   2.674  10.078  0.4339 -0.8916  0.7386
   99OSM    C8S 9892   5.838   2.710   9.895  0.1627 -0.2872  0.1237
   99OSM    H8S 9893   5.912   2.789   9.868  0.2190 -0.4173 -0.0974
   99OSM    H8T 9894   5.756   2.765   9.947  0.1272 -0.2933  0.0733
   99OSM    C9S 9895   5.787   2.638   9.774 -0.0861 -0.3871  0.0224
   99OSM    H9S 9896   5.678   2.620   9.774 -0.4381  1.4392  1.6388
   99OSM    H9T 9897   5.837   2.539   9.783  2.4153  0.7691 -0.1624
   99OSM   C10S 9898   5.829   2.703   9.642 -0.2019  0.7891 -0.3007
   99OSM   H10S 9899   5.939   2.718   9.634 -0.4028  2.2553 -0.4149
   99OSM   H10T 9900   5.785   2.804   9.640 -1.7023  0.1610 -0.4507
   99OSM   C11S 9901   5.777   2.628   9.520  0.4049 -1.1923 -0.1327
   99OSM   H11S 9902   5.669   2.650   9.506  0.0237 -2.5175  0.5699
   99OSM   H11T 9903   5.785   2.517   9.530 -0.7960 -1.3132 -0.3614
   99OSM   C12S 9904   5.852   2.661   9.386  0.7485 -0.2633 -0.0346
   99OSM   H12S 9905   5.960   2.642   9.404  1.4095  3.6042  1.0666
   99OSM   H12T 9906   5.809   2.597   9.306 -1.2719  3.1987 -1.9959
   99OSM   C13S 9907   5.843   2.807   9.336  0.5398  1.2442  0.4287
   99OSM   H13S 9908   5.937   2.820   9.277  0.5575 -1.3438 -0.2240
   99OSM   H13T 9909   5.843   2.862   9.432  2.1046 -1.6851  2.2471
   99OSM   C14S 9910   5.720   2.830   9.246 -0.4417  0.2953 -0.2511
   99OSM   H14S 9911   5.625   2.800   9.296  1.0804  0.6666  3.1324
   99OSM   H14T 9912   5.727   2.774   9.150  0.8152  0.1925 -0.1153
   99OSM   C15S 9913   5.712   2.980   9.214  0.0183 -0.0330  0.3900
   99OSM   H15S 9914   5.737   3.037   9.306  0.3900 -1.5029  1.2201
   99OSM   H15T 9915   5.612   3.013   9.176  0.7003  1.8862  0.1139
   99OSM   C16S 9916   5.817   3.017   9.104  0.3965  0.3215  0.1102
   99OSM   H16S 9917   5.841   2.927   9.044  0.0583  1.3096 -1.5672
   99OSM   H16T 9918   5.912   3.049   9.151  0.3477 -0.0627  0.4771
   99OSM   C17S 9919   5.761   3.121   9.012  0.2519  0.2084  0.4128
   99OSM   H17S 9920   5.763   3.218   9.066  0.3605  1.1688 -1.2538
   99OSM   H17T 9921   5.657   3.099   8.981  0.3077  0.5661 -0.0345
   99OSM   C18S 9922   5.845   3.115   8.882 -0.4193 -0.0419  0.3554
   99OSM   H18S 9923   5.953   3.105   8.903  0.0765  1.2074 -1.3718
   99OSM   H18T 9924   5.837   3.213   8.829 -3.0424  0.6711  1.8737
   99OSM   H18U 9925   5.814   3.030   8.817 -1.8801  0.6374  0.1118
   99OSM    C1F 9926   5.962   1.985  10.205  0.9860  0.1703  0.4079
   99OSM     OF 9927   5.888   1.938  10.294  0.0229 -0.3025 -0.0555
   99OSM    C2F 9928   5.971   1.915  10.073 -0.3106 -0.0728 -0.6814
   99OSM    H2F 9929   6.074   1.883  10.047 -0.9053 -1.1065 -1.8667
   99OSM    H2G 9930   5.939   1.988   9.995  1.6733  1.1536 -0.4175
   99OSM    C3F 9931   5.887   1.788  10.063  0.1428  0.7892 -0.3516
   99OSM    H3F 9932   5.891   1.724  10.154 -1.5591  1.4753  0.2524
   99OSM    H3G 9933   5.781   1.815  10.042 -0.3042 -1.8472 -1.9450
   99OSM    C4F 9934   5.931   1.704   9.941  0.0401 -0.0871 -0.0522
   99OSM    H4F 9935   5.858   1.620   9.944 -1.0346  0.8291  0.7669
   99OSM    H4G 9936   6.039   1.678   9.944  0.6327  2.2559  1.1289
   99OSM    C5F 9937   5.908   1.785   9.812 -0.0911  0.2062 -0.0519
   99OSM    H5F 9938   5.986   1.864   9.812  0.8027 -0.6373  0.7634
   99OSM    H5G 9939   5.808   1.833   9.816 -1.0520 -1.7137  0.1609
   99OSM    C6F 9940   5.921   1.699   9.687 -0.0360 -0.4430  0.2195
   99OSM    H6F 9941   5.839   1.624   9.687 -1.1575  0.6974 -1.9616
   99OSM    H6G 9942   6.021   1.651   9.683  0.5917  0.8870 -1.0240
   99OSM    C7F 9943   5.908   1.799   9.561  0.5106 -0.4027  0.6098
   99OSM    H7F 9944   6.006   1.847   9.542 -1.2127  2.2609 -2.4876
   99OSM    H7G 9945   5.839   1.882   9.584 -1.3216 -1.9087  0.8052
   99OSM    C8F 9946   5.873   1.735   9.427  0.3069  0.4238  0.0617
   99OSM    H8F 9947   5.871   1.820   9.355  0.1942  0.7417  0.4333
   99OSM    H8G 9948   5.773   1.686   9.433  0.1600  0.8672  2.3548
   99OSM    C9F 9949   5.990   1.641   9.389  0.7465  0.3808 -0.2364
   99OSM    H9F 9950   5.990   1.548   9.448 -0.5979  0.3018 -0.3475
   99OSM   C10F 9951   6.094   1.668   9.310 -0.3985 -0.3468 -0.6192
   99OSM   H10F 9952   6.170   1.590   9.298 -0.7207 -0.5970 -1.0576
   99OSM   C11F 9953   6.124   1.793   9.234  0.8435 -0.4628  0.3101
   99OSM   H11F 9954   6.220   1.828   9.276  0.7651 -1.2052  1.1190
   99OSM   H11G 9955   6.059   1.881   9.253  0.6310 -0.5631  0.0746
   99OSM   C12F 9956   6.159   1.785   9.089  0.1785 -0.2985  0.1733
   99OSM   H12F 9957   6.238   1.707   9.081 -1.5278 -2.0114 -0.6545
   99OSM   H12G 9958   6.218   1.878   9.074  0.3805 -0.1117  1.9380
   99OSM   C13F 9959   6.042   1.765   8.995 -0.1919  0.9322  0.0882
   99OSM   H13F 9960   5.958   1.708   9.040  2.4083 -2.1118  1.3858
   99OSM   H13G 9961   6.072   1.700   8.910  0.4133 -1.2504  1.9034
   99OSM   C14F 9962   5.986   1.893   8.949 -0.1685 -0.0193  0.3110
   99OSM   H14F 9963   5.981   1.963   9.035 -0.5577  1.0297 -0.5445
   99OSM   H14G 9964   5.889   1.885   8.895  0.6633  1.0197 -1.4286
   99OSM   C15F 9965   6.071   1.962   8.837 -1.0877 -0.4714  0.8882
   99OSM   H15F 9966   6.052   1.906   8.744 -1.4846 -0.9856  1.2712
   99OSM   H15G 9967   6.177   1.957   8.870 -0.5578  1.7740 -0.2409
   99OSM   C16F 9968   6.030   2.107   8.814 -0.3360  0.3110  0.1929
   99OSM   H16F 9969   6.057   2.160   8.907  0.9422  2.1974 -1.1774
   99OSM   H16G 9970   5.919   2.112   8.806 -0.5682  0.1278  2.7123
   99OSM   C17F 9971   6.099   2.176   8.697 -0.8249  0.0017  1.0403
   99OSM   H17F 9972   6.067   2.117   8.609  0.2315 -0.3049  0.8405
   99OSM   H17G 9973   6.210   2.175   8.692 -0.8236  1.9595 -1.1766
   99OSM   C18F 9974   6.049   2.324   8.677 -0.7681 -0.0054  0.7289
   99OSM   H18F 9975   5.940   2.327   8.698 -0.6224  1.8838  1.4389
   99OSM   H18G 9976   6.079   2.366   8.579 -3.6062 -0.4106 -0.4157
   99OSM   H18H 9977   6.107   2.379   8.754  0.1330 -0.0921  0.1353
  100OSM      N 9978   3.035   3.731  10.907  0.2762  0.2651  0.4377
  100OSM    C15 9979   2.883   3.713  10.919 -0.0084 -0.2843 -1.0471
  100OSM   H15A 9980   2.855   3.630  10.856  1.0076 -0.5392 -1.1876
  100OSM   H15B 9981   2.830   3.804  10.896  1.7469  0.1834 -3.6731
  100OSM   H15C 9982   2.867   3.698  11.025  0.9868  0.3089 -0.7971
  100OSM    C14 9983   3.075   3.775  10.767 -0.3065 -0.5325  0.6723
  100OSM   H14A 9984   3.040   3.720  10.681  0.7875  1.5333 -1.1972
  100OSM   H14B 9985   3.182   3.765  10.757 -0.3499 -2.0727  1.3947
  100OSM   H14C 9986   3.047   3.878  10.753 -1.6279 -1.0531 -0.6759
  100OSM    C13 9987   3.090   3.830  11.003 -0.1569 -0.3903 -0.4984
  100OSM   H13A 9988   3.038   3.923  10.986 -0.1492 -0.4976 -1.1174
  100OSM   H13B 9989   3.183   3.867  10.962 -1.1461  1.0122 -1.5983
  100OSM   H13C 9990   3.087   3.808  11.109 -1.8417  1.4209 -0.1193
  100OSM    C12 9991   3.112   3.605  10.944 -0.3316 -0.2834  0.6161
  100OSM   H12A 9992   3.106   3.599  11.052  1.7521  2.9719  1.0630
  100OSM   H12B 9993   3.212   3.636  10.915 -1.2918 -0.1344 -2.9459
  100OSM    C11 9994   3.091   3.475  10.865  0.2922  0.0248  0.0777
  100OSM   H11A 9995   2.991   3.430  10.879  0.9543 -1.3687  0.5669
  100OSM   H11B 9996   3.154   3.400  10.920 -0.6807 -1.5587 -0.8925
  100OSM      P 9997   3.289   3.468  10.699  0.2213  0.4386  0.0822
  100OSM    O13 9998   3.363   3.589  10.750 -0.3805 -0.3324  0.1068
  100OSM    O14 9999   3.317   3.335  10.760 -0.1499  0.2440  0.0858
  100OSM    O1110000   3.305   3.457  10.542 -0.0135 -0.1563  0.6636
  100OSM    O1210001   3.136   3.494  10.728  0.1772 -0.3139 -0.0223
  100OSM    C1S10002   3.256   3.336  10.479  0.1575  0.3128  0.6550
  100OSM    H1S10003   3.146   3.324  10.490  0.0936  1.6402  1.6044
  100OSM    H1T10004   3.302   3.247  10.526  0.0369  0.1023  0.3780
  100OSM     NF10005   3.217   3.219  10.251 -0.3097  0.4152 -0.4669
  100OSM    HNF10006   3.279   3.143  10.230 -0.0735  1.0211 -2.1752
  100OSM    C2S10007   3.280   3.335  10.312 -0.4334 -0.0671 -0.0883
  100OSM    H2S10008   3.232   3.429  10.276  1.6172  1.0980  0.0053
  100OSM    C3S10009   3.436   3.350  10.297 -0.3842 -0.0910 -0.0632
  100OSM    H3S10010   3.490   3.263  10.339 -2.4918 -0.5875  1.8368
  100OSM     O310011   3.490   3.466  10.359  0.4161 -0.2650 -0.1720
  100OSM    HO310012   3.414   3.509  10.400  0.6215  0.5997 -0.6704
  100OSM    C4S10013   3.455   3.357  10.147  0.2124 -0.7431 -0.5221
  100OSM    H4S10014   3.395   3.433  10.096 -0.1528 -2.2399 -2.4557
  100OSM    C5S10015   3.529   3.288  10.064  0.7106  0.2507  0.7103
  100OSM    H5S10016   3.599   3.217  10.111  1.7614 -0.2452 -1.4426
  100OSM    C6S10017   3.534   3.298   9.907 -0.5992 -0.4386 -0.9861
  100OSM    H6S10018   3.612   3.368   9.870 -0.7579 -0.4937 -1.4264
  100OSM    H6T10019   3.438   3.344   9.876 -2.2140 -2.6677  0.4261
  100OSM    C7S10020   3.547   3.164   9.838 -0.2026 -0.0743 -0.5192
  100OSM    H7S10021   3.462   3.095   9.860  0.2988 -0.6856 -0.4719
  100OSM    H7T10022   3.644   3.116   9.862  0.8574  1.8132 -0.8597
  100OSM    C8S10023   3.546   3.173   9.687  0.0896 -0.4458 -0.1379
  100OSM    H8S10024   3.643   3.221   9.665  0.1145 -0.5726 -0.3017
  100OSM    H8T10025   3.463   3.242   9.658  1.3181  0.1458 -2.4644
  100OSM    C9S10026   3.544   3.045   9.611  0.3704 -0.0094 -0.0971
  100OSM    H9S10027   3.438   3.012   9.621  0.4817 -0.1009  0.9196
  100OSM    H9T10028   3.621   2.975   9.649 -1.3909 -2.0723 -0.0762
  100OSM   C10S10029   3.574   3.072   9.460 -0.5710  1.0053 -0.4667
  100OSM   H10S10030   3.550   2.982   9.401 -0.0761  2.3363 -2.8244
  100OSM   H10T10031   3.682   3.097   9.450 -0.0043  0.2277  2.5875
  100OSM   C11S10032   3.486   3.179   9.391 -0.7598 -0.4760 -0.2567
  100OSM   H11S10033   3.497   3.280   9.436 -0.4811 -1.7319  2.6447
  100OSM   H11T10034   3.380   3.149   9.408 -0.3446 -1.5999  0.4169
  100OSM   C12S10035   3.504   3.193   9.239 -0.2199 -0.7950  0.6239
  100OSM   H12S10036   3.484   3.100   9.182 -0.9183  1.1194 -2.4698
  100OSM   H12T10037   3.608   3.222   9.214  1.9477 -4.7388  3.7837
  100OSM   C13S10038   3.406   3.300   9.187 -0.3739 -0.5144  0.2229
  100OSM   H13S10039   3.426   3.393   9.243 -1.2475 -1.5399  2.3417
  100OSM   H13T10040   3.307   3.257   9.211 -0.2249 -1.9515 -1.4816
  100OSM   C14S10041   3.426   3.312   9.036 -0.3352  0.0248 -0.6490
  100OSM   H14S10042   3.416   3.209   8.995 -2.0473  0.2608 -0.9181
  100OSM   H14T10043   3.522   3.366   9.017  0.8169 -0.6254  2.7602
  100OSM   C15S10044   3.338   3.411   8.961 -0.3900  0.3025 -1.0679
  100OSM   H15S10045   3.330   3.514   9.002 -3.1060  0.0039 -0.7063
  100OSM   H15T10046   3.236   3.370   8.973 -0.7427  1.5012  0.3052
  100OSM   C16S10047   3.376   3.403   8.813 -0.0386  0.2866 -0.1507
  100OSM   H16S10048   3.376   3.292   8.803  0.7815  0.1828  0.8101
  100OSM   H16T10049   3.479   3.441   8.797  0.5512 -1.5964 -1.1728
  100OSM   C17S10050   3.282   3.477   8.718  0.3541  0.1628 -1.5420
  100OSM   H17S10051   3.271   3.581   8.754  1.1746 -0.9444  2.2785
  100OSM   H17T10052   3.182   3.429   8.728 -0.1120  1.1644 -1.2499
  100OSM   C18S10053   3.324   3.479   8.575 -0.1041  0.2563  0.1441
  100OSM   H18S10054   3.246   3.530   8.515 -0.5541 -0.8887 -0.2718
  100OSM   H18T10055   3.348   3.375   8.541 -1.1577  0.2711 -0.6882
  100OSM   H18U10056   3.413   3.543   8.556 -0.5120  0.6731 -0.4002
  100OSM    C1F10057   3.088   3.208  10.228  0.5601  0.3144 -0.3343
  100OSM     OF10058   3.008   3.300  10.249 -0.6971  0.0019 -0.0391
  100OSM    C2F10059   3.035   3.071  10.187 -0.1161  0.4854 -0.5397
  100OSM    H2F10060   2.944   3.089  10.126  1.6409  0.3771 -3.3744
  100OSM    H2G10061   3.004   3.011  10.275  0.6287 -0.3940 -0.8499
  100OSM    C3F10062   3.143   2.988  10.099  0.4411  0.2366 -0.2958
  100OSM    H3F10063   3.222   2.950  10.167 -0.5146 -1.4363 -0.0808
  100OSM    H3G10064   3.189   3.057  10.025 -0.5028  1.3686  0.1463
  100OSM    C4F10065   3.088   2.862  10.036  0.1519  0.0534  0.4379
  100OSM    H4F10066   3.029   2.799  10.105  0.3442  1.3075  1.7821
  100OSM    H4G10067   3.175   2.801  10.003 -0.3780  0.0200 -0.9817
  100OSM    C5F10068   3.020   2.888   9.900  0.5710  0.4205  0.0199
  100OSM    H5F10069   2.939   2.964   9.909  0.6389  0.4084  0.8600
  100OSM    H5G10070   2.965   2.795   9.872 -0.9002  1.1451  0.3881
  100OSM    C6F10071   3.118   2.916   9.789  0.3467  0.2397 -0.2333
  100OSM    H6F10072   3.179   2.824   9.774  1.0858  0.6112  0.4436
  100OSM    H6G10073   3.187   2.993   9.831 -0.9234  2.5922 -2.1646
  100OSM    C7F10074   3.041   2.959   9.666 -0.1402  0.0944  0.2584
  100OSM    H7F10075   2.990   3.057   9.680 -2.1748 -1.0955  1.7975
  100OSM    H7G10076   2.975   2.874   9.642 -1.7974  1.4202 -0.0631
  100OSM    C8F10077   3.131   2.971   9.545 -0.5267  0.0112  0.8003
  100OSM    H8F10078   3.188   3.067   9.549 -1.3976  0.5881 -0.1637
  100OSM    H8G10079   3.054   2.995   9.468 -1.4753 -0.0991  1.6959
  100OSM    C9F10080   3.220   2.854   9.502 -0.5008 -0.4453  0.6264
  100OSM    H9F10081   3.259   2.789   9.582 -3.2740 -0.5233  2.0441
  100OSM   C10F10082   3.261   2.824   9.374  1.0631  0.4215  0.6304
  100OSM   H10F10083   3.328   2.741   9.350  0.5413  0.2936 -0.4388
  100OSM   C11F10084   3.223   2.911   9.253  0.2425  0.6096 -0.0629
  100OSM   H11F10085   3.289   3.000   9.249  2.7264 -1.1488 -0.4165
  100OSM   H11G10086   3.117   2.943   9.263 -0.3113 -0.6127 -1.4866
  100OSM   C12F10087   3.233   2.837   9.120 -0.3927  0.7855  0.1149
  100OSM   H12F10088   3.167   2.748   9.118  1.3073 -0.7365  3.3709
  100OSM   H12G10089   3.336   2.797   9.119 -1.2871 -1.6932 -0.9011
  100OSM   C13F10090   3.203   2.922   8.998 -0.2650 -0.9586 -0.3909
  100OSM   H13F10091   3.260   2.881   8.913  0.2625 -4.4319  1.4313
  100OSM   H13G10092   3.240   3.023   9.026 -2.2683 -0.3818  0.3581
  100OSM   C14F10093   3.057   2.909   8.962 -0.0202  0.5711 -0.4344
  100OSM   H14F10094   2.997   2.894   9.054  0.3483  0.4808 -0.2082
  100OSM   H14G10095   3.030   2.815   8.908 -0.2287  0.0060  0.6263
  100OSM   C15F10096   3.005   3.028   8.885 -0.8770  0.3830  0.3148
  100OSM   H15F10097   3.063   3.045   8.792  1.5016 -0.5990  1.5387
  100OSM   H15G10098   3.007   3.124   8.941  0.9973  1.5186 -1.5556
  100OSM   C16F10099   2.861   3.008   8.833 -0.6013  0.5146  0.2754
  100OSM   H16F10100   2.781   2.995   8.908 -0.8715  0.7595  0.0352
  100OSM   H16G10101   2.860   2.913   8.774 -1.5534  1.2837 -1.0043
  100OSM   C17F10102   2.814   3.129   8.756 -0.3164  0.3196  0.7105
  100OSM   H17F10103   2.843   3.219   8.814  2.0529  1.1616 -1.6192
  100OSM   H17G10104   2.703   3.123   8.750 -0.2984  0.6500 -0.0113
  100OSM   C18F10105   2.881   3.147   8.622  0.3688 -0.2651  0.3205
  100OSM   H18F10106   2.855   3.065   8.551 -1.4007  2.9019 -3.0398
  100OSM   H18G10107   2.990   3.165   8.612 -0.1341  2.0669 -1.6605
  100OSM   H18H10108   2.840   3.240   8.578 -0.7851 -0.9353 -0.0486
  101OSM      N10109   5.183   3.426  11.101 -0.2025  0.4157 -0.1140
  101OSM    C1510110   5.222   3.475  11.243  0.0620 -0.3924 -0.4498
  101OSM   H15A10111   5.316   3.526  11.229 -0.7709  0.6915 -2.7854
  101OSM   H15B10112   5.215   3.401  11.320 -1.6483  0.2624  0.0827
  101OSM   H15C10113   5.153   3.554  11.271 -0.4495 -1.1878  0.6051
  101OSM    C1410114   5.037   3.413  11.089  0.0270  0.2236 -0.5070
  101OSM   H14A10115   5.000   3.514  11.094  3.0626  1.3707  0.9350
  101OSM   H14B10116   4.992   3.360  11.171 -1.8157 -0.1355 -1.6809
  101OSM   H14C10117   5.006   3.369  10.995 -1.1250 -0.7302  0.2864
  101OSM    C1310118   5.232   3.539  11.010  0.1920  0.1859  0.0248
  101OSM   H13A10119   5.232   3.511  10.905  0.0993 -2.4750  0.6584
  101OSM   H13B10120   5.327   3.578  11.042  0.1029 -0.2024  0.7762
  101OSM   H13C10121   5.161   3.620  11.015 -0.4081 -0.3801  1.1301
  101OSM    C1210122   5.257   3.291  11.074 -0.2002 -0.0401  0.1388
  101OSM   H12A10123   5.222   3.222  11.150 -0.9266  1.0150  0.7880
  101OSM   H12B10124   5.359   3.305  11.106  0.6894 -3.0860 -1.0144
  101OSM    C1110125   5.256   3.231  10.933 -0.1925  0.4510  0.1657
  101OSM   H11A10126   5.316   3.137  10.930 -0.3150  0.4003 -1.1300
  101OSM   H11B10127   5.309   3.299  10.863 -1.4371  1.1678 -0.1009
  101OSM      P10128   5.043   3.081  10.903  0.1427  0.0774 -0.1149
  101OSM    O1310129   5.086   3.021  11.032 -0.3871 -0.5247 -0.4239
  101OSM    O1410130   4.903   3.101  10.882 -0.0566 -0.4894  0.8387
  101OSM    O1110131   5.094   2.990  10.784 -0.2132  0.5472 -0.2528
  101OSM    O1210132   5.120   3.217  10.882  0.6760 -0.1234 -0.5736
  101OSM    C1S10133   5.138   3.040  10.656  0.0630  0.3026  0.5194
  101OSM    H1S10134   5.235   3.089  10.675  0.6830 -0.7586  0.1965
  101OSM    H1T10135   5.063   3.117  10.625  1.0269  1.7019  1.5853
  101OSM     NF10136   5.223   2.993  10.420  0.0994  0.6295  0.1432
  101OSM    HNF10137   5.178   2.994  10.331 -1.4545 -0.5061  0.8657
  101OSM    C2S10138   5.150   2.937  10.539 -0.6755  0.0676 -0.5719
  101OSM    H2S10139   5.215   2.858  10.582 -1.5398 -0.5208 -0.3315
  101OSM    C3S10140   5.015   2.881  10.498 -0.0046  0.1532  0.4961
  101OSM    H3S10141   4.957   2.966  10.457 -1.0433 -0.3469  0.8836
  101OSM     O310142   4.935   2.833  10.606  0.1638 -0.1732 -0.5404
  101OSM    HO310143   4.988   2.851  10.684  0.6710  0.6532 -1.0658
  101OSM    C4S10144   5.019   2.764  10.396  0.0581 -0.3162 -0.2944
  101OSM    H4S10145   5.117   2.716  10.381  0.8090  0.5889  1.4782
  101OSM    C5S10146   4.918   2.729  10.305  0.0257 -0.4563 -0.8157
  101OSM    H5S10147   4.833   2.797  10.289  0.3354  0.2243  0.3253
  101OSM    C6S10148   4.927   2.623  10.200 -0.3247 -0.2345  0.0466
  101OSM    H6S10149   4.843   2.551  10.195 -0.2546 -0.2439 -1.3953
  101OSM    H6T10150   5.023   2.567  10.202 -1.9890 -3.5243 -2.9657
  101OSM    C7S10151   4.927   2.704  10.073 -0.3628 -0.7821  0.4195
  101OSM    H7S10152   5.024   2.756  10.058 -0.5688 -1.3229 -4.6020
  101OSM    H7T10153   4.847   2.781  10.073 -0.3657 -0.7853  0.4493
  101OSM    C8S10154   4.911   2.610   9.952  0.0853  0.3960 -0.7947
  101OSM    H8S10155   4.814   2.557   9.959  0.4581 -0.3819 -1.3059
  101OSM    H8T10156   4.980   2.525   9.966 -1.3889 -0.6995  0.0719
  101OSM    C9S10157   4.919   2.666   9.814  0.7587 -0.2080 -0.0645
  101OSM    H9S10158   4.887   2.579   9.754  2.3487 -2.4314  2.1010
  101OSM    H9T10159   5.023   2.693   9.786  0.2405 -0.4461 -2.3766
  101OSM   C10S10160   4.821   2.782   9.778  0.4305  0.5266 -0.6169
  101OSM   H10S10161   4.812   2.844   9.869  1.8617  0.3702 -0.3579
  101OSM   H10T10162   4.713   2.756   9.771 -0.1347  1.8969  1.8685
  101OSM   C11S10163   4.876   2.864   9.664  0.3744 -0.1667  0.1190
  101OSM   H11S10164   4.977   2.903   9.690 -0.6162  3.2814 -0.6595
  101OSM   H11T10165   4.808   2.952   9.657  0.1232 -0.3825 -0.1657
  101OSM   C12S10166   4.871   2.792   9.524  0.2086 -0.0231 -0.3765
  101OSM   H12S10167   4.765   2.779   9.492  0.5942 -2.3882 -0.8853
  101OSM   H12T10168   4.923   2.694   9.532  1.5974  0.3759 -3.2909
  101OSM   C13S10169   4.961   2.875   9.426 -0.2381  0.0997 -0.3507
  101OSM   H13S10170   5.062   2.886   9.471 -1.2634  1.6483  1.7768
  101OSM   H13T10171   4.929   2.981   9.428 -0.7534 -0.0005 -1.8022
  101OSM   C14S10172   4.961   2.817   9.284 -0.2280 -0.5040 -0.2403
  101OSM   H14S10173   4.856   2.805   9.248 -0.0367 -2.2212 -0.3222
  101OSM   H14T10174   4.998   2.712   9.284 -1.0826 -0.8183  0.3278
  101OSM   C15S10175   5.052   2.888   9.184 -0.0979  0.9974 -0.0023
  101OSM   H15S10176   5.076   2.814   9.105 -1.3949 -0.3736  0.8334
  101OSM   H15T10177   5.141   2.919   9.243 -1.0932  1.6971  1.1917
  101OSM   C16S10178   4.999   3.017   9.133 -0.3677  1.0062  0.3961
  101OSM   H16S10179   4.945   3.080   9.207 -0.5575 -0.8503  1.9161
  101OSM   H16T10180   4.911   2.984   9.075 -0.2239 -0.6849  1.0715
  101OSM   C17S10181   5.107   3.097   9.050 -0.5121  0.4979 -0.3092
  101OSM   H17S10182   5.163   3.024   8.989 -1.5931  0.1165 -0.8742
  101OSM   H17T10183   5.176   3.128   9.131  2.3994 -0.9791 -2.0695
  101OSM   C18S10184   5.052   3.211   8.969 -0.0484 -0.1385  0.2969
  101OSM   H18S10185   5.126   3.258   8.901 -0.6159 -0.9374 -0.9133
  101OSM   H18T10186   5.013   3.289   9.038  1.3645 -1.1001  2.2912
  101OSM   H18U10187   4.967   3.173   8.909 -0.1578  1.3177 -0.5146
  101OSM    C1F10188   5.347   3.025  10.430 -0.2260 -0.1100 -0.5864
  101OSM     OF10189   5.406   3.004  10.535  0.1784  0.8999  0.6689
  101OSM    C2F10190   5.416   3.096  10.315  0.1712  0.0570  0.9227
  101OSM    H2F10191   5.488   3.172  10.351 -2.2893  2.9120  0.2463
  101OSM    H2G10192   5.330   3.145  10.264 -1.7889 -0.8949  3.0893
  101OSM    C3F10193   5.488   3.000  10.219 -0.1902  0.6937 -0.2544
  101OSM    H3F10194   5.427   2.913  10.188 -0.2208  0.6830 -0.1637
  101OSM    H3G10195   5.584   2.961  10.260 -0.3622 -0.5273 -0.9776
  101OSM    C4F10196   5.514   3.081  10.089 -0.2572  0.2417 -0.0508
  101OSM    H4F10197   5.590   3.158  10.113 -1.1022  0.8021  0.9278
  101OSM    H4G10198   5.423   3.137  10.060 -1.5950 -2.0031 -0.3991
  101OSM    C5F10199   5.554   2.996   9.968  0.1879  0.6071  0.4198
  101OSM    H5F10200   5.473   2.922   9.951  0.4509  0.4900 -0.4039
  101OSM    H5G10201   5.651   2.953  10.002  0.7543  2.7466  1.6932
  101OSM    C6F10202   5.591   3.081   9.844  0.6511  0.7133  0.0650
  101OSM    H6F10203   5.610   2.999   9.773 -1.1258 -0.7461  1.1829
  101OSM    H6G10204   5.497   3.132   9.812  0.6613  0.5545 -0.2191
  101OSM    C7F10205   5.719   3.170   9.843  1.0552  0.2572  1.0738
  101OSM    H7F10206   5.798   3.126   9.908  1.2796 -2.0351 -0.5972
  101OSM    H7G10207   5.698   3.260   9.904  1.2210  1.8071 -1.0426
  101OSM    C8F10208   5.769   3.216   9.706 -0.5961  0.2978  0.0018
  101OSM    H8F10209   5.845   3.297   9.714  0.4308 -0.7863  1.8972
  101OSM    H8G10210   5.687   3.255   9.642 -1.6712 -0.5641  0.8131
  101OSM    C9F10211   5.831   3.097   9.634 -0.4004  0.6916 -0.8889
  101OSM    H9F10212   5.758   3.022   9.601 -1.7777  1.3239  0.6359
  101OSM   C10F10213   5.957   3.063   9.605  0.0187 -0.8776  0.0690
  101OSM   H10F10214   5.991   2.976   9.547  1.6689  0.9184 -1.8147
  101OSM   C11F10215   6.082   3.138   9.638  0.8677 -0.3480 -0.2108
  101OSM   H11F10216   6.172   3.076   9.661  1.0612  0.2269  0.6424
  101OSM   H11G10217   6.058   3.204   9.724 -0.5644  0.8310 -1.4526
  101OSM   C12F10218   6.114   3.241   9.527 -0.7211 -0.2588 -0.3336
  101OSM   H12F10219   6.219   3.274   9.544 -1.2455  1.0867  0.4646
  101OSM   H12G10220   6.044   3.327   9.526  1.4544  1.6202 -0.6107
  101OSM   C13F10221   6.109   3.184   9.387 -0.0811 -0.6271 -0.1838
  101OSM   H13F10222   6.005   3.196   9.350  0.4787  0.4692 -1.4598
  101OSM   H13G10223   6.140   3.078   9.380 -0.9894 -1.3131  3.6932
  101OSM   C14F10224   6.201   3.257   9.284  0.1014  0.3661  0.1651
  101OSM   H14F10225   6.308   3.245   9.311  0.0632  0.6371  0.4480
  101OSM   H14G10226   6.182   3.366   9.284  1.1481  0.6425  3.0742
  101OSM   C15F10227   6.194   3.195   9.140 -0.0841 -0.1835 -0.3365
  101OSM   H15F10228   6.092   3.202   9.098 -0.2072  0.5808  0.0623
  101OSM   H15G10229   6.216   3.086   9.145  0.3008 -0.3052 -3.0573
  101OSM   C16F10230   6.295   3.255   9.040 -0.3839  0.3743  0.0140
  101OSM   H16F10231   6.397   3.238   9.081 -0.4839 -2.6978 -0.7681
  101OSM   H16G10232   6.276   3.363   9.027 -2.2766  0.5157  2.8882
  101OSM   C17F10233   6.295   3.178   8.911  0.1806  0.2021  0.1427
  101OSM   H17F10234   6.374   3.218   8.844  0.0124 -1.8116 -1.3475
  101OSM   H17G10235   6.194   3.177   8.864 -0.3835 -2.1326  1.2609
  101OSM   C18F10236   6.330   3.024   8.918  0.1792  0.0679 -0.1834
  101OSM   H18F10237   6.322   2.981   8.817  0.8496  0.6687 -0.5076
  101OSM   H18G10238   6.265   2.975   8.994 -0.6094  1.3196 -0.0212
  101OSM   H18H10239   6.438   3.013   8.943  0.1403 -0.2394 -0.1523
  102OSM      N10240   1.548   4.267  10.986 -0.0755  0.6651  0.1596
  102OSM    C1510241   1.489   4.379  11.055  0.2184 -0.9219  0.0085
  102OSM   H15A10242   1.437   4.437  10.980 -1.2890 -0.4769  1.3279
  102OSM   H15B10243   1.555   4.452  11.100 -2.6126  0.7866  1.6967
  102OSM   H15C10244   1.406   4.355  11.121  0.7661 -0.0705  1.0283
  102OSM    C1410245   1.665   4.320  10.911  0.1053 -0.1554  0.8195
  102OSM   H14A10246   1.719   4.246  10.854  0.9402  1.1618 -0.1635
  102OSM   H14B10247   1.724   4.380  10.979  2.2726  0.9903 -1.9173
  102OSM   H14C10248   1.644   4.396  10.837 -0.7130  1.8654  2.9995
  102OSM    C1310249   1.607   4.185  11.094  0.3113 -0.4289  0.2451
  102OSM   H13A10250   1.530   4.142  11.156 -0.1390  0.6892  0.4705
  102OSM   H13B10251   1.670   4.246  11.156 -0.3183  1.5467 -0.9804
  102OSM   H13C10252   1.663   4.103  11.051  0.4502  0.1151 -0.6285
  102OSM    C1210253   1.445   4.187  10.907 -0.3352  0.4365  0.0848
  102OSM   H12A10254   1.364   4.163  10.973 -1.2342 -0.7636 -1.3917
  102OSM   H12B10255   1.488   4.095  10.871  0.4146  1.9315 -3.3116
  102OSM    C1110256   1.400   4.254  10.770 -0.6387  0.0053 -0.6505
  102OSM   H11A10257   1.313   4.187  10.752  0.8923 -1.9193 -1.1471
  102OSM   H11B10258   1.484   4.228  10.703  0.8414  1.1710  0.6728
  102OSM      P10259   1.418   4.504  10.693 -0.3939  0.2095  0.0636
  102OSM    O1310260   1.356   4.627  10.737 -0.7721 -0.2151  0.2541
  102OSM    O1410261   1.564   4.488  10.678  0.0331 -0.7457  0.0179
  102OSM    O1110262   1.362   4.469  10.551  0.1679 -0.1797 -0.3598
  102OSM    O1210263   1.366   4.393  10.783 -0.1850  0.2689 -0.5121
  102OSM    C1S10264   1.361   4.571  10.454 -0.5599 -0.4009  0.8798
  102OSM    H1S10265   1.442   4.645  10.464  0.4765 -1.3139 -0.5185
  102OSM    H1T10266   1.268   4.630  10.472 -0.3470  0.5785 -1.0438
  102OSM     NF10267   1.392   4.624  10.206 -0.0384  0.6910  0.6208
  102OSM    HNF10268   1.317   4.653  10.148 -2.0578 -2.8788  1.2158
  102OSM    C2S10269   1.374   4.514  10.304  0.1436 -0.3921 -0.1379
  102OSM    H2S10270   1.454   4.438  10.292 -0.0866 -0.4297 -1.6276
  102OSM    C3S10271   1.246   4.432  10.279 -0.2261 -0.3460 -0.4606
  102OSM    H3S10272   1.160   4.502  10.291  0.6215  0.4182  1.4775
  102OSM     O310273   1.223   4.333  10.379  0.6188 -0.3519  0.0793
  102OSM    HO310274   1.268   4.369  10.455  1.7685  1.2120 -1.2588
  102OSM    C4S10275   1.239   4.367  10.142  0.6098  0.0705  0.0609
  102OSM    H4S10276   1.309   4.284  10.127 -0.9782 -1.1296 -1.1608
  102OSM    C5S10277   1.142   4.400  10.055  0.3954 -0.2955  0.4030
  102OSM    H5S10278   1.069   4.471  10.097 -0.1942 -1.5527  1.5572
  102OSM    C6S10279   1.109   4.352   9.916  0.0298  0.8075  0.1720
  102OSM    H6S10280   1.138   4.422   9.834 -1.9580  0.4546 -0.9168
  102OSM    H6T10281   0.998   4.347   9.910  0.1401 -0.5237 -2.2816
  102OSM    C7S10282   1.163   4.209   9.880 -0.0650 -0.4223 -0.0352
  102OSM    H7S10283   1.141   4.141   9.965  1.2396  0.7321  1.2963
  102OSM    H7T10284   1.274   4.210   9.871 -0.0657  0.1865 -0.0286
  102OSM    C8S10285   1.097   4.161   9.753 -0.1301 -0.5190  0.1964
  102OSM    H8S10286   1.112   4.239   9.675  1.0629 -1.6264 -0.7361
  102OSM    H8T10287   0.988   4.153   9.776  0.2766 -0.4998  2.2683
  102OSM    C9S10288   1.162   4.031   9.695 -0.1753  0.4769 -1.0007
  102OSM    H9S10289   1.163   3.949   9.770  0.6606 -1.2657 -2.8298
  102OSM    H9T10290   1.272   4.046   9.695 -0.1085  0.2215  0.6542
  102OSM   C10S10291   1.108   3.987   9.559 -0.0376  0.4041  0.0966
  102OSM   H10S10292   1.137   4.074   9.497  0.1800  0.2391 -0.0347
  102OSM   H10T10293   0.998   3.974   9.563 -0.4716  2.5114 -2.4106
  102OSM   C11S10294   1.175   3.854   9.516 -0.0346  0.3680  0.0391
  102OSM   H11S10295   1.149   3.775   9.589 -1.3062  0.3468 -0.4141
  102OSM   H11T10296   1.285   3.867   9.525  0.0374 -0.5557  0.6027
  102OSM   C12S10297   1.154   3.821   9.370  0.5122  0.3368  0.0285
  102OSM   H12S10298   1.051   3.786   9.348  1.0604 -0.4162 -1.5358
  102OSM   H12T10299   1.212   3.730   9.344  1.0313  0.4039  0.9164
  102OSM   C13S10300   1.199   3.934   9.273  0.1074 -0.4807 -0.2576
  102OSM   H13S10301   1.278   3.989   9.329  0.3929 -0.7944 -0.3457
  102OSM   H13T10302   1.118   4.009   9.265  0.4763  0.0018  0.4049
  102OSM   C14S10303   1.260   3.883   9.143  0.4957 -0.0591 -0.8910
  102OSM   H14S10304   1.323   3.795   9.167  0.4346  0.3418  0.9325
  102OSM   H14T10305   1.333   3.956   9.101  0.3383  0.4687 -0.2749
  102OSM   C15S10306   1.147   3.846   9.041  0.2073 -0.0957 -0.5364
  102OSM   H15S10307   1.072   3.928   9.038  0.8435  0.6279  1.3047
  102OSM   H15T10308   1.098   3.752   9.074 -3.5714  0.7486 -3.1519
  102OSM   C16S10309   1.195   3.813   8.904 -0.2455 -0.0287 -0.6620
  102OSM   H16S10310   1.257   3.724   8.929 -1.1672 -0.8258 -1.1394
  102OSM   H16T10311   1.269   3.883   8.859  0.7211 -0.0057  0.8952
  102OSM   C17S10312   1.090   3.770   8.802 -0.1079 -0.0438  0.4301
  102OSM   H17S10313   1.010   3.719   8.859  0.2881  2.5693  3.5846
  102OSM   H17T10314   1.142   3.701   8.733 -0.8540 -0.9151  0.7236
  102OSM   C18S10315   1.019   3.885   8.728  0.5125  0.8138 -0.0369
  102OSM   H18S10316   0.971   3.954   8.801  0.6594  1.3020 -0.3981
  102OSM   H18T10317   0.942   3.843   8.659  0.6948 -0.3030  0.4258
  102OSM   H18U10318   1.092   3.930   8.658 -0.9952  2.5852 -0.5580
  102OSM    C1F10319   1.504   4.690  10.201  0.6107  0.0485  0.1396
  102OSM     OF10320   1.595   4.676  10.281  0.1490  0.0551 -0.4313
  102OSM    C2F10321   1.496   4.804  10.105  0.0539 -0.5326 -0.3401
  102OSM    H2F10322   1.399   4.855  10.121  0.6297  1.0107 -1.4575
  102OSM    H2G10323   1.499   4.772   9.998  0.9204  3.2531 -1.6006
  102OSM    C3F10324   1.605   4.905  10.132 -0.4724 -0.5797  0.2428
  102OSM    H3F10325   1.706   4.862  10.118  0.6387  1.7299  0.6361
  102OSM    H3G10326   1.590   4.940  10.237 -0.2923  0.5451 -0.0861
  102OSM    C4F10327   1.607   5.035  10.038 -0.0543 -0.4185 -0.7806
  102OSM    H4F10328   1.661   5.113  10.096 -1.9202 -0.0335  0.5151
  102OSM    H4G10329   1.502   5.067  10.021  0.8962  2.6575 -1.4476
  102OSM    C5F10330   1.676   5.007   9.902  0.6633 -0.5337  0.0675
  102OSM    H5F10331   1.609   4.949   9.836  0.8096 -0.7506  0.1091
  102OSM    H5G10332   1.761   4.936   9.908 -0.1685 -1.6531 -1.0413
  102OSM    C6F10333   1.725   5.134   9.827 -0.0661  0.1765 -0.5789
  102OSM    H6F10334   1.765   5.104   9.728 -0.7572 -1.7612 -0.3267
  102OSM    H6G10335   1.807   5.181   9.885  0.7938  1.2660 -2.5952
  102OSM    C7F10336   1.616   5.235   9.800 -0.1866 -0.6169 -1.1676
  102OSM    H7F10337   1.567   5.268   9.893  0.7932  1.8625 -1.4447
  102OSM    H7G10338   1.546   5.190   9.726 -0.8694  0.0726 -0.9510
  102OSM    C8F10339   1.679   5.362   9.740 -0.2389 -0.4469  0.0284
  102OSM    H8F10340   1.730   5.324   9.649 -0.5722  0.5558 -0.5864
  102OSM    H8G10341   1.753   5.402   9.813  0.6650 -0.0330 -1.0757
  102OSM    C9F10342   1.584   5.470   9.708 -0.3943  0.7201  0.6521
  102OSM    H9F10343   1.549   5.520   9.800 -0.9377 -0.3031  1.0186
  102OSM   C10F10344   1.527   5.511   9.591 -0.1468 -0.1299  0.3910
  102OSM   H10F10345   1.454   5.593   9.592 -1.7285 -1.4959  0.8394
  102OSM   C11F10346   1.555   5.456   9.448 -0.1845  0.1340 -0.0914
  102OSM   H11F10347   1.651   5.401   9.452 -0.5546 -0.5965 -0.8821
  102OSM   H11G10348   1.574   5.530   9.367  1.4139 -0.1308  0.0251
  102OSM   C12F10349   1.433   5.371   9.416 -0.6622 -0.7567 -0.0469
  102OSM   H12F10350   1.409   5.308   9.505 -1.0223  0.5588  0.8124
  102OSM   H12G10351   1.470   5.295   9.343  1.7195 -0.0233  0.3140
  102OSM   C13F10352   1.314   5.450   9.370  0.8005  0.2732  0.1653
  102OSM   H13F10353   1.287   5.524   9.448  2.2233  1.8642 -0.7855
  102OSM   H13G10354   1.221   5.391   9.355 -0.1604  2.0004 -1.0759
  102OSM   C14F10355   1.336   5.545   9.247  0.3568  0.3089 -0.0193
  102OSM   H14F10356   1.400   5.492   9.173  0.6581  0.7641 -0.0942
  102OSM   H14G10357   1.396   5.625   9.298  0.3516 -0.1422  0.7057
  102OSM   C15F10358   1.201   5.597   9.188 -0.1638 -0.9485 -0.0129
  102OSM   H15F10359   1.227   5.684   9.125  2.4815  0.5706  2.9148
  102OSM   H15G10360   1.137   5.634   9.271  0.9705 -1.9495  1.3493
  102OSM   C16F10361   1.122   5.490   9.102 -0.7877  0.4428  0.2536
  102OSM   H16F10362   1.030   5.538   9.061 -0.8091 -0.1153 -0.3719
  102OSM   H16G10363   1.102   5.399   9.162 -2.2368 -1.0260 -2.2558
  102OSM   C17F10364   1.212   5.465   8.977  0.6284  0.5700  0.2581
  102OSM   H17F10365   1.300   5.408   9.014  0.3311 -0.8494 -1.1082
  102OSM   H17G10366   1.257   5.556   8.932  5.0898 -0.0618  2.8970
  102OSM   C18F10367   1.129   5.395   8.870  0.1834 -0.0853  0.2563
  102OSM   H18F10368   1.201   5.368   8.791 -0.3579  0.3694 -0.4008
  102OSM   H18G10369   1.049   5.455   8.822  2.1055  0.6455 -2.2280
  102OSM   H18H10370   1.081   5.304   8.913 -1.3477  0.5515 -0.0407
  103OSM      N10371   6.054   0.465  10.967  0.1363  0.0263  0.0036
  103OSM    C1510372   5.957   0.555  11.044 -0.4095  0.3065 -0.2290
  103OSM   H15A10373   5.970   0.532  11.148  2.2381  0.2717 -0.5017
  103OSM   H15B10374   5.855   0.528  11.022 -0.5991  0.5238  0.3657
  103OSM   H15C10375   5.958   0.661  11.025  0.4454  0.3623  0.0926
  103OSM    C1410376   6.197   0.494  10.999 -0.8413 -0.2896  0.3154
  103OSM   H14A10377   6.261   0.441  10.930 -1.5571 -1.0258  0.1966
  103OSM   H14B10378   6.236   0.472  11.097  1.2648 -2.3125 -0.8782
  103OSM   H14C10379   6.212   0.597  10.974 -0.6172 -0.7265 -1.4670
  103OSM    C1310380   6.024   0.325  11.005  0.6347  0.2785 -0.0205
  103OSM   H13A10381   6.063   0.311  11.105 -2.0345 -0.5733  0.9739
  103OSM   H13B10382   6.071   0.260  10.933 -1.2430 -0.0387 -1.0203
  103OSM   H13C10383   5.921   0.295  11.011  0.7461 -0.2683 -0.7469
  103OSM    C1210384   6.024   0.476  10.822 -0.1195  0.0077  0.0720
  103OSM   H12A10385   5.922   0.449  10.800  0.0766 -0.9646  0.3233
  103OSM   H12B10386   6.086   0.402  10.773 -2.0703 -1.3829 -0.4309
  103OSM    C1110387   6.019   0.603  10.743 -0.0352 -0.0999 -0.1925
  103OSM   H11A10388   6.014   0.572  10.637 -1.1524 -0.9854  0.0913
  103OSM   H11B10389   6.121   0.644  10.755 -1.3692  3.0644  1.3684
  103OSM      P10390   5.778   0.719  10.736 -0.0249  0.2279  0.1126
  103OSM    O1310391   5.684   0.611  10.772 -0.1093  0.1965 -0.1997
  103OSM    O1410392   5.732   0.855  10.785 -0.1621 -0.1230  0.7167
  103OSM    O1110393   5.791   0.721  10.580  0.3792 -0.6490  0.2658
  103OSM    O1210394   5.923   0.692  10.793  0.3388 -0.4298  0.2389
  103OSM    C1S10395   5.890   0.803  10.520  0.7487  0.1325  0.8464
  103OSM    H1S10396   5.989   0.770  10.557  0.6900  0.6540  1.5018
  103OSM    H1T10397   5.873   0.911  10.542  1.4694  0.7471 -1.3715
  103OSM     NF10398   5.984   0.881  10.305 -0.5353 -0.2158 -0.6083
  103OSM    HNF10399   5.956   0.971  10.272  1.1265  0.0616 -1.3480
  103OSM    C2S10400   5.875   0.800  10.361  0.2379 -1.1646  0.2100
  103OSM    H2S10401   5.887   0.695  10.326  0.5134 -1.3937  0.9738
  103OSM    C3S10402   5.738   0.862  10.331 -0.8629  0.2022  0.2694
  103OSM    H3S10403   5.739   0.964  10.374 -0.1964  0.1057  0.5009
  103OSM     O310404   5.633   0.801  10.396  0.1251  0.3039  0.2728
  103OSM    HO310405   5.682   0.755  10.464  1.5399  0.5020 -0.5820
  103OSM    C4S10406   5.716   0.855  10.182  0.0415  0.0087 -0.1347
  103OSM    H4S10407   5.722   0.753  10.143 -0.4095  0.3184 -1.0400
  103OSM    C5S10408   5.685   0.958  10.102  0.8157  0.5335  0.1237
  103OSM    H5S10409   5.668   1.056  10.150  0.2192  0.8782 -0.7549
  103OSM    C6S10410   5.653   0.956   9.951 -0.3353  0.1596 -0.0141
  103OSM    H6S10411   5.648   0.851   9.915  0.3026  0.4478 -0.9467
  103OSM    H6T10412   5.730   1.007   9.890 -1.4980 -0.6764 -2.2930
  103OSM    C7S10413   5.513   1.024   9.916  0.2118 -0.0256 -0.1208
  103OSM    H7S10414   5.515   1.135   9.917  0.3570 -0.0298  0.5589
  103OSM    H7T10415   5.431   0.994   9.985  1.6088 -0.7704  1.2627
  103OSM    C8S10416   5.472   0.966   9.780 -0.0680 -0.8360 -0.3112
  103OSM    H8S10417   5.382   1.023   9.749 -1.1807 -2.5365 -0.3652
  103OSM    H8T10418   5.441   0.859   9.789 -1.3599 -0.4997 -0.5258
  103OSM    C9S10419   5.571   0.992   9.663  0.1511 -0.1557 -0.1521
  103OSM    H9S10420   5.674   0.950   9.673  0.2240  0.4306  2.1574
  103OSM    H9T10421   5.580   1.102   9.655 -1.2121 -0.1706 -3.0106
  103OSM   C10S10422   5.512   0.939   9.528  0.1259 -0.5591 -0.4788
  103OSM   H10S10423   5.408   0.977   9.524  0.6658  1.1342  0.6279
  103OSM   H10T10424   5.504   0.828   9.532 -2.4173 -0.4554 -1.2747
  103OSM   C11S10425   5.596   0.981   9.406 -0.2173  0.0049  1.0642
  103OSM   H11S10426   5.700   0.962   9.438 -0.5622 -1.9683  1.1308
  103OSM   H11T10427   5.584   1.090   9.388 -1.5109  0.0545  2.0649
  103OSM   C12S10428   5.560   0.912   9.274 -0.2814  0.6541  0.5757
  103OSM   H12S10429   5.452   0.928   9.253  0.5164  3.4674 -2.0762
  103OSM   H12T10430   5.585   0.804   9.277  1.6984  0.9894 -1.5068
  103OSM   C13S10431   5.644   0.974   9.162 -0.0262  0.3833 -0.0937
  103OSM   H13S10432   5.748   0.981   9.198  0.7931 -2.3481 -1.6936
  103OSM   H13T10433   5.613   1.081   9.160  0.1308  0.4212 -0.6111
  103OSM   C14S10434   5.654   0.900   9.030  0.8721 -0.6102  0.5503
  103OSM   H14S10435   5.552   0.885   8.989  1.0746 -0.4174 -0.0454
  103OSM   H14T10436   5.701   0.799   9.035  2.0260 -0.0858  0.6189
  103OSM   C15S10437   5.723   0.985   8.921  0.7046 -0.5548  0.3353
  103OSM   H15S10438   5.822   1.029   8.949 -0.5616  3.9343 -1.4353
  103OSM   H15T10439   5.663   1.078   8.916 -1.8153 -2.0433  0.9689
  103OSM   C16S10440   5.740   0.925   8.782 -0.0528 -0.0350 -0.8888
  103OSM   H16S10441   5.652   0.867   8.747 -1.0039 -0.8115  2.4674
  103OSM   H16T10442   5.818   0.849   8.804 -1.1014 -1.0545 -0.6504
  103OSM   C17S10443   5.800   1.021   8.682 -0.0615  0.0008  0.5529
  103OSM   H17S10444   5.908   1.044   8.697  0.6315  0.2565 -3.6024
  103OSM   H17T10445   5.742   1.114   8.697 -0.6406 -0.2834  0.1271
  103OSM   C18S10446   5.778   0.965   8.546 -0.7820 -0.1599  0.1335
  103OSM   H18S10447   5.819   0.862   8.540 -3.1089 -1.4906  3.8458
  103OSM   H18T10448   5.815   1.032   8.465 -0.5586 -0.8719 -0.3591
  103OSM   H18U10449   5.671   0.940   8.529 -0.2186 -2.2845 -0.5407
  103OSM    C1F10450   6.099   0.834  10.274  0.1651  0.2632  0.2448
  103OSM     OF10451   6.122   0.727  10.331  0.3887  0.0825  0.2299
  103OSM    C2F10452   6.189   0.907  10.172 -0.2034  0.1535  0.5556
  103OSM    H2F10453   6.296   0.891  10.197  0.5037  0.0648 -2.1708
  103OSM    H2G10454   6.171   1.016  10.176  1.1477  0.5612 -1.9459
  103OSM    C3F10455   6.192   0.844  10.030 -0.9537 -0.5979 -0.2025
  103OSM    H3F10456   6.232   0.741  10.032 -1.2184 -0.7608 -1.9812
  103OSM    H3G10457   6.268   0.908   9.980 -1.1932  1.3249  1.7502
  103OSM    C4F10458   6.056   0.847   9.952 -0.3919 -0.1589 -0.0095
  103OSM    H4F10459   6.015   0.949   9.960 -0.4514  0.0873 -2.6807
  103OSM    H4G10460   5.992   0.776  10.009  1.3262 -1.5774  0.2725
  103OSM    C5F10461   6.058   0.797   9.806 -0.4097 -0.3148 -0.6854
  103OSM    H5F10462   6.100   0.695   9.804  0.6364 -0.0492  2.3541
  103OSM    H5G10463   6.128   0.857   9.744 -0.1864 -1.2195 -1.3340
  103OSM    C6F10464   5.919   0.807   9.747 -0.6674  0.5813  0.7248
  103OSM    H6F10465   5.889   0.913   9.733  0.5176  0.6148 -2.2908
  103OSM    H6G10466   5.842   0.768   9.818  1.0795  0.5283  2.6962
  103OSM    C7F10467   5.901   0.742   9.609 -0.4030  0.1870 -0.0498
  103OSM    H7F10468   5.793   0.757   9.587  0.0032 -1.6170 -4.1370
  103OSM    H7G10469   5.932   0.636   9.612  3.5121  1.1831  0.0433
  103OSM    C8F10470   5.993   0.809   9.497  0.0979 -0.6582  0.1218
  103OSM    H8F10471   6.093   0.777   9.535  0.2251 -1.0568 -0.5381
  103OSM    H8G10472   6.000   0.920   9.497  0.3453 -0.6257 -2.2792
  103OSM    C9F10473   5.954   0.750   9.368  0.2988 -0.3247  0.8427
  103OSM    H9F10474   5.850   0.717   9.353 -0.0245  0.4423  1.2988
  103OSM   C10F10475   6.034   0.707   9.272 -0.0941  0.0858  0.4316
  103OSM   H10F10476   5.983   0.688   9.176 -2.4408  3.2824  0.9086
  103OSM   C11F10477   6.183   0.703   9.268 -0.2929 -0.0121  0.5965
  103OSM   H11F10478   6.235   0.713   9.366  3.2320  0.4617 -1.1646
  103OSM   H11G10479   6.220   0.797   9.223 -1.6064  0.0228 -0.4413
  103OSM   C12F10480   6.242   0.593   9.193  0.7395 -0.3367  0.1507
  103OSM   H12F10481   6.210   0.492   9.226 -0.1988 -0.3076 -0.6332
  103OSM   H12G10482   6.350   0.587   9.219  1.4064  1.1645 -2.0004
  103OSM   C13F10483   6.237   0.602   9.037  0.8171  0.1810 -0.1735
  103OSM   H13F10484   6.325   0.666   9.015  0.6156  0.2028 -0.9183
  103OSM   H13G10485   6.147   0.659   9.007  0.1948 -0.2323  0.8527
  103OSM   C14F10486   6.256   0.465   8.971  0.5151 -0.6590  0.3653
  103OSM   H14F10487   6.168   0.409   9.011 -1.2559  2.7427  1.6249
  103OSM   H14G10488   6.351   0.423   9.008  0.3530 -1.2075  0.1742
  103OSM   C15F10489   6.251   0.481   8.820  0.2925 -0.5831 -0.7937
  103OSM   H15F10490   6.147   0.498   8.784  0.8334  1.4125 -1.5167
  103OSM   H15G10491   6.271   0.384   8.769  0.5185  0.1736 -2.1687
  103OSM   C16F10492   6.345   0.576   8.743 -0.5411 -0.0924 -0.3458
  103OSM   H16F10493   6.442   0.598   8.793 -0.1342 -0.3982 -0.9907
  103OSM   H16G10494   6.283   0.668   8.736 -0.2718  0.4061  2.4687
  103OSM   C17F10495   6.385   0.530   8.599  0.2646 -0.0469 -0.5402
  103OSM   H17F10496   6.299   0.511   8.532 -0.0612 -2.0024  0.3470
  103OSM   H17G10497   6.436   0.434   8.624  1.5726  1.0258  1.1563
  103OSM   C18F10498   6.484   0.617   8.533 -0.7356 -0.9676  0.0655
  103OSM   H18F10499   6.449   0.719   8.508  2.0533  0.5848  1.8757
  103OSM   H18G10500   6.542   0.568   8.452  0.3558  1.6506 -0.8554
  103OSM   H18H10501   6.562   0.633   8.611 -1.1016 -0.8828  0.4213
  104OSM      N10502   1.674   6.733  10.990  0.0050 -0.4733  0.2496
  104OSM    C1510503   1.801   6.769  10.905  0.5464  0.2308  0.0599
  104OSM   H15A10504   1.766   6.823  10.819 -1.0119 -0.8163 -0.0172
  104OSM   H15B10505   1.854   6.676  10.886  1.7861  0.2557  2.9013
  104OSM   H15C10506   1.876   6.835  10.947  0.1365  0.7799 -0.0614
  104OSM    C1410507   1.721   6.673  11.117 -0.7052 -0.0950 -0.0856
  104OSM   H14A10508   1.646   6.672  11.195  0.6717 -1.7704  1.3058
  104OSM   H14B10509   1.802   6.726  11.167 -0.5386 -1.2176  0.8792
  104OSM   H14C10510   1.749   6.569  11.111 -0.2643 -0.0242  0.5833
  104OSM    C1310511   1.600   6.865  11.021 -0.4090 -0.5346 -0.1895
  104OSM   H13A10512   1.579   6.918  10.930 -1.0840  0.4148  0.5042
  104OSM   H13B10513   1.658   6.927  11.088  0.5211 -0.9973 -0.5504
  104OSM   H13C10514   1.502   6.841  11.061  0.5334 -1.6895  1.6003
  104OSM    C1210515   1.587   6.628  10.917  0.1049  0.4863  0.3529
  104OSM   H12A10516   1.493   6.599  10.962 -0.3496  0.1254 -0.7725
  104OSM   H12B10517   1.647   6.538  10.913 -0.5715 -0.1667  2.8938
  104OSM    C1110518   1.544   6.662  10.771  0.3934 -0.1796 -0.0548
  104OSM   H11A10519   1.509   6.568  10.722  0.8357 -1.1235  1.3928
  104OSM   H11B10520   1.633   6.680  10.706  0.0923  0.2459 -0.3567
  104OSM      P10521   1.310   6.766  10.780 -0.3360 -0.1008 -0.1256
  104OSM    O1310522   1.295   6.691  10.910  0.2214 -0.1573 -0.0730
  104OSM    O1410523   1.252   6.897  10.780 -0.1761 -0.4332  0.7905
  104OSM    O1110524   1.256   6.676  10.665  0.0749 -0.2233  0.2546
  104OSM    O1210525   1.464   6.774  10.759 -0.0613 -0.1347  0.6363
  104OSM    C1S10526   1.290   6.713  10.531  0.0207 -0.4363 -0.2957
  104OSM    H1S10527   1.397   6.684  10.519  0.6967  2.1818 -1.3090
  104OSM    H1T10528   1.281   6.822  10.513  1.1628 -0.3217 -0.2387
  104OSM     NF10529   1.260   6.678  10.285  0.6130  0.4758 -0.3480
  104OSM    HNF10530   1.205   6.732  10.222 -1.6724  0.1511  1.2723
  104OSM    C2S10531   1.207   6.651  10.416  1.0829  0.4051  0.2210
  104OSM    H2S10532   1.206   6.540  10.418  0.6035  0.2611 -2.8770
  104OSM    C3S10533   1.055   6.693  10.438  0.1612 -0.3627  0.7739
  104OSM    H3S10534   1.049   6.802  10.418  0.6144 -0.4793 -0.0579
  104OSM     O310535   1.009   6.672  10.574  0.0191  0.3770 -0.6778
  104OSM    HO310536   1.084   6.665  10.633 -0.8828 -0.0822  0.4616
  104OSM    C4S10537   0.974   6.627  10.329 -0.8250  0.2217 -0.1043
  104OSM    H4S10538   1.017   6.648  10.230  2.7564  0.6884  1.4029
  104OSM    C5S10539   0.861   6.543  10.328 -0.3127 -0.5619  0.0726
  104OSM    H5S10540   0.835   6.505  10.428  1.2184 -0.2394  0.6321
  104OSM    C6S10541   0.783   6.494  10.208  0.4528  0.1134  0.8568
  104OSM    H6S10542   0.679   6.528  10.225 -0.0515 -0.2011 -1.3339
  104OSM    H6T10543   0.776   6.383  10.210  2.0410 -0.0105  1.2994
  104OSM    C7S10544   0.829   6.549  10.065 -0.2202 -0.0570 -0.6544
  104OSM    H7S10545   0.934   6.545  10.031  0.5813  0.1354  1.6033
  104OSM    H7T10546   0.824   6.660  10.074  3.7116  0.2346 -0.3490
  104OSM    C8S10547   0.733   6.513   9.947 -0.0930  0.4281 -0.4314
  104OSM    H8S10548   0.707   6.606   9.891  4.2303  1.1609 -1.6329
  104OSM    H8T10549   0.641   6.467   9.988  1.0863  1.1254  3.3406
  104OSM    C9S10550   0.800   6.423   9.844  0.5172  0.3849 -1.1004
  104OSM    H9S10551   0.829   6.331   9.898 -0.3559 -0.0910 -1.4262
  104OSM    H9T10552   0.886   6.482   9.806 -0.0573  2.0401  0.0645
  104OSM   C10S10553   0.705   6.386   9.731 -0.7937 -0.0070 -0.2300
  104OSM   H10S10554   0.660   6.483   9.701  0.4962  0.6615 -0.1115
  104OSM   H10T10555   0.619   6.327   9.768 -0.9899  0.4801  0.0863
  104OSM   C11S10556   0.774   6.312   9.620  0.1210 -0.4185 -0.1322
  104OSM   H11S10557   0.822   6.215   9.646 -2.2913 -1.6346  0.0287
  104OSM   H11T10558   0.856   6.382   9.591  1.2573 -1.3094  0.7953
  104OSM   C12S10559   0.680   6.294   9.500 -0.2245 -0.2849  0.3694
  104OSM   H12S10560   0.599   6.370   9.502  0.6749  0.6931  0.9647
  104OSM   H12T10561   0.633   6.194   9.497  0.2202 -0.5092  0.7451
  104OSM   C13S10562   0.751   6.307   9.367 -0.2999 -0.5522 -0.0887
  104OSM   H13S10563   0.840   6.241   9.374  1.2856  1.5790  1.0576
  104OSM   H13T10564   0.778   6.412   9.342  0.8592  0.0322  3.2023
  104OSM   C14S10565   0.663   6.250   9.249 -0.0947 -0.1808 -0.1854
  104OSM   H14S10566   0.556   6.273   9.272 -0.6299 -1.7783 -0.9404
  104OSM   H14T10567   0.678   6.140   9.253 -0.0162 -0.1585  0.1466
  104OSM   C15S10568   0.703   6.303   9.106 -1.0487 -0.0448  0.0452
  104OSM   H15S10569   0.703   6.212   9.043 -1.4936  0.5896 -0.8843
  104OSM   H15T10570   0.803   6.349   9.091 -2.1470  2.5051  0.0745
  104OSM   C16S10571   0.605   6.407   9.058  0.4655  0.7784 -0.4346
  104OSM   H16S10572   0.630   6.498   9.116 -1.6085  2.8247 -2.5282
  104OSM   H16T10573   0.501   6.387   9.094  0.7755 -0.5942 -0.2247
  104OSM   C17S10574   0.618   6.425   8.906 -0.3890 -0.8069 -0.4549
  104OSM   H17S10575   0.559   6.343   8.860 -0.8655 -1.6028  1.4788
  104OSM   H17T10576   0.724   6.409   8.875 -0.3833  1.2220 -1.6410
  104OSM   C18S10577   0.578   6.567   8.867  0.4435  0.3782  0.5727
  104OSM   H18S10578   0.616   6.589   8.765 -1.4818  0.8763 -0.0694
  104OSM   H18T10579   0.616   6.647   8.934 -1.1133  0.3842  1.4976
  104OSM   H18U10580   0.468   6.578   8.870  0.5169  0.8782  2.0677
  104OSM    C1F10581   1.386   6.647  10.251  0.0407  0.4039  0.5212
  104OSM     OF10582   1.464   6.579  10.320  0.7646 -0.0873 -0.0634
  104OSM    C2F10583   1.429   6.709  10.115 -0.0286  0.2910  0.2032
  104OSM    H2F10584   1.390   6.812  10.102 -0.6432  0.2244  1.3825
  104OSM    H2G10585   1.388   6.636  10.042 -0.2356  0.3646  0.2452
  104OSM    C3F10586   1.583   6.710  10.108 -0.0838  0.3182  0.2904
  104OSM    H3F10587   1.626   6.609  10.119  2.1268  1.0404 -1.0766
  104OSM    H3G10588   1.627   6.770  10.191 -2.4355 -0.7804  2.4721
  104OSM    C4F10589   1.638   6.770   9.978 -0.2659  0.0220  0.0856
  104OSM    H4F10590   1.748   6.785   9.981 -0.0211 -1.3923 -0.8894
  104OSM    H4G10591   1.588   6.869   9.968 -0.4891  0.0541  1.3647
  104OSM    C5F10592   1.600   6.685   9.859 -0.1557 -0.3397  0.2066
  104OSM    H5F10593   1.502   6.632   9.859 -0.0090 -0.8337 -2.8102
  104OSM    H5G10594   1.680   6.608   9.851 -0.2435 -0.8155  3.0139
  104OSM    C6F10595   1.594   6.760   9.730  0.2840 -0.1396  0.1512
  104OSM    H6F10596   1.690   6.812   9.708 -0.6538  1.4481 -0.3042
  104OSM    H6G10597   1.512   6.834   9.723 -0.5336 -0.8343  1.8003
  104OSM    C7F10598   1.571   6.666   9.607  0.3876  0.1182 -0.8449
  104OSM    H7F10599   1.482   6.604   9.627 -0.5672  1.5560 -0.4961
  104OSM    H7G10600   1.661   6.605   9.584 -0.0594 -0.1214 -2.0172
  104OSM    C8F10601   1.533   6.752   9.488  0.1253  0.5665  0.8057
  104OSM    H8F10602   1.442   6.810   9.516 -0.9074 -1.3498  1.6323
  104OSM    H8G10603   1.516   6.679   9.406  0.7240 -0.4779  1.5865
  104OSM    C9F10604   1.654   6.838   9.456  0.2975  0.1378 -0.7231
  104OSM    H9F10605   1.756   6.813   9.489  0.3332  2.1196  0.8882
  104OSM   C10F10606   1.655   6.951   9.374  0.3854  0.5976  0.1008
  104OSM   H10F10607   1.747   7.011   9.366 -0.5413  2.1371  0.4932
  104OSM   C11F10608   1.534   7.004   9.303  0.5530  0.4851  0.1036
  104OSM   H11F10609   1.555   7.111   9.282  0.5828  0.5927  0.6639
  104OSM   H11G10610   1.449   6.984   9.372  1.9280 -1.8545  1.2373
  104OSM   C12F10611   1.509   6.918   9.172  0.5996 -0.5623  0.3249
  104OSM   H12F10612   1.510   6.810   9.201  2.0049 -1.1436 -1.6590
  104OSM   H12G10613   1.589   6.934   9.096 -0.3151 -0.5076 -0.6422
  104OSM   C13F10614   1.373   6.945   9.116 -0.4257  0.1230  0.1652
  104OSM   H13F10615   1.373   7.049   9.077  1.9364  1.0783  2.4559
  104OSM   H13G10616   1.286   6.932   9.184 -2.4942 -2.0306 -2.5868
  104OSM   C14F10617   1.341   6.846   9.000  0.5847  0.0583  0.3579
  104OSM   H14F10618   1.232   6.853   8.979  0.8953  1.2400 -0.9486
  104OSM   H14G10619   1.372   6.744   9.033 -1.2554 -0.7168 -0.1920
  104OSM   C15F10620   1.417   6.878   8.872 -0.1671  0.1206  0.3738
  104OSM   H15F10621   1.526   6.878   8.896  0.1962 -0.3946 -1.1507
  104OSM   H15G10622   1.397   6.985   8.851  3.4945  1.0293  0.7082
  104OSM   C16F10623   1.399   6.780   8.756 -0.5378 -0.0113  0.4023
  104OSM   H16F10624   1.422   6.677   8.791  0.5437  0.0230 -0.1483
  104OSM   H16G10625   1.472   6.817   8.682 -1.6801  0.2832 -0.6160
  104OSM   C17F10626   1.263   6.778   8.688  0.8799  0.1248  0.3759
  104OSM   H17F10627   1.230   6.883   8.675  0.6822  0.0863  0.5506
  104OSM   H17G10628   1.184   6.738   8.756  0.7302 -0.0491  0.1041
  104OSM   C18F10629   1.266   6.703   8.556  0.4554  0.9772 -0.1325
  104OSM   H18F10630   1.327   6.760   8.483  0.6699  2.3466  1.0658
  104OSM   H18G10631   1.169   6.693   8.502 -0.1533  2.2966  0.6573
  104OSM   H18H10632   1.311   6.601   8.562 -0.9177  0.3620  0.1728
  105OSM      N10633   4.471   3.718  10.681  0.2732  0.4116 -0.5448
  105OSM    C1510634   4.371   3.610  10.731 -0.0714 -0.2104  0.9591
  105OSM   H15A10635   4.429   3.519  10.738  2.2108  1.0855  0.0334
  105OSM   H15B10636   4.297   3.591  10.655 -0.1915 -0.7138  1.1937
  105OSM   H15C10637   4.324   3.627  10.827  0.2945  0.2439  1.0572
  105OSM    C1410638   4.390   3.845  10.655 -0.0563  0.1870 -0.3812
  105OSM   H14A10639   4.329   3.870  10.741 -1.5283 -0.6217 -1.1658
  105OSM   H14B10640   4.314   3.828  10.580 -2.4999  1.7040  1.5651
  105OSM   H14C10641   4.451   3.930  10.628 -0.6989 -0.0176 -2.6344
  105OSM    C1310642   4.572   3.749  10.782  0.2565  0.4563  0.0339
  105OSM   H13A10643   4.625   3.659  10.813  1.1055  0.7589 -0.5014
  105OSM   H13B10644   4.532   3.789  10.874 -0.1052 -1.7802  0.9319
  105OSM   H13C10645   4.654   3.811  10.750 -0.4609  2.7457  2.2707
  105OSM    C1210646   4.537   3.663  10.552  0.0671  0.4663  0.6212
  105OSM   H12A10647   4.616   3.733  10.527  0.2048 -0.5559 -2.0835
  105OSM   H12B10648   4.467   3.659  10.470  2.4972 -2.9341 -1.5582
  105OSM    C1110649   4.608   3.520  10.563  0.3113 -0.1098 -0.6539
  105OSM   H11A10650   4.618   3.479  10.461 -1.4311  0.7958 -1.2374
  105OSM   H11B10651   4.548   3.442  10.614  1.0131  0.2928  0.8365
  105OSM      P10652   4.854   3.603  10.531  0.0254  0.0198 -0.0961
  105OSM    O1310653   4.972   3.644  10.613  0.1818  0.3471 -0.4635
  105OSM    O1410654   4.886   3.516  10.418 -0.1022  0.4736  0.4262
  105OSM    O1110655   4.786   3.733  10.471  0.2879 -0.1819 -0.1038
  105OSM    O1210656   4.738   3.537  10.625 -0.3868 -0.2291 -0.0827
  105OSM    C1S10657   4.865   3.807  10.377  0.5168  0.1301  0.3721
  105OSM    H1S10658   4.973   3.795  10.400  0.3420 -2.5608  0.1010
  105OSM    H1T10659   4.858   3.918  10.386 -1.7049  0.4739 -3.4148
  105OSM     NF10660   4.902   3.879  10.147  0.1175  0.4785 -0.3352
  105OSM    HNF10661   4.854   3.951  10.099  0.6087  1.2828  0.3541
  105OSM    C2S10662   4.828   3.785  10.228  0.1858  0.3491 -0.0508
  105OSM    H2S10663   4.867   3.684  10.206 -1.8624 -0.3719 -0.5437
  105OSM    C3S10664   4.675   3.792  10.212 -0.2943  0.1183 -0.7294
  105OSM    H3S10665   4.631   3.883  10.258  0.2290 -0.7285  1.5730
  105OSM     O310666   4.605   3.682  10.269  0.0844  0.0324  0.0674
  105OSM    HO310667   4.671   3.642  10.326 -0.3085  0.1830  0.6355
  105OSM    C4S10668   4.640   3.808  10.062  0.6265 -0.0398  0.6301
  105OSM    H4S10669   4.612   3.911  10.036 -1.0950 -0.3473  1.1151
  105OSM    C5S10670   4.640   3.715   9.962 -0.9193  0.4237  0.0006
  105OSM    H5S10671   4.676   3.614   9.984  0.1925  0.5546 -1.1168
  105OSM    C6S10672   4.610   3.741   9.818  0.0212 -0.1057 -0.0564
  105OSM    H6S10673   4.509   3.696   9.815 -1.5830  3.1650 -0.0273
  105OSM    H6T10674   4.676   3.684   9.748 -0.3388  0.1038 -0.5711
  105OSM    C7S10675   4.580   3.879   9.769  0.6099 -1.2569 -0.3996
  105OSM    H7S10676   4.666   3.948   9.789 -0.2949 -0.3132  0.3490
  105OSM    H7T10677   4.497   3.920   9.831 -0.2287 -1.5087 -1.3397
  105OSM    C8S10678   4.556   3.886   9.615 -0.1627  0.2816 -0.8130
  105OSM    H8S10679   4.468   3.819   9.605  0.0251 -0.8630  3.2479
  105OSM    H8T10680   4.646   3.844   9.565  0.6106 -0.6167  1.2171
  105OSM    C9S10681   4.537   4.028   9.561 -0.4431  0.1087  0.0603
  105OSM    H9S10682   4.604   4.097   9.615 -0.1504  0.1764 -0.3817
  105OSM    H9T10683   4.433   4.066   9.562 -1.3092 -2.0310 -0.9652
  105OSM   C10S10684   4.597   4.033   9.420 -0.3068  0.4285  0.2513
  105OSM   H10S10685   4.701   3.994   9.421 -0.0955  0.9812  0.2583
  105OSM   H10T10686   4.620   4.138   9.392 -0.8536  0.0321 -1.9316
  105OSM   C11S10687   4.510   3.949   9.316  0.3033  0.4271 -0.1263
  105OSM   H11S10688   4.402   3.949   9.342  0.2062  0.8066 -0.5111
  105OSM   H11T10689   4.545   3.843   9.311 -0.4003  0.1626  0.5016
  105OSM   C12S10690   4.536   4.000   9.173  0.0364  0.3909  0.3633
  105OSM   H12S10691   4.637   4.045   9.167  0.3494 -0.3178  0.1567
  105OSM   H12T10692   4.475   4.089   9.149  1.8717  0.7995 -3.5926
  105OSM   C13S10693   4.534   3.899   9.064 -0.1654  0.1821 -0.6305
  105OSM   H13S10694   4.445   3.834   9.067  0.5114 -0.8503 -1.8468
  105OSM   H13T10695   4.609   3.817   9.067 -1.2944 -0.9153 -1.2023
  105OSM   C14S10696   4.544   3.957   8.921 -0.3885 -0.5276  0.6975
  105OSM   H14S10697   4.637   4.018   8.919 -0.6658  0.0234 -2.8626
  105OSM   H14T10698   4.467   4.032   8.893 -0.6090  0.2052  3.0428
  105OSM   C15S10699   4.557   3.846   8.821  0.2024  1.0684  0.1935
  105OSM   H15S10700   4.641   3.777   8.847  1.1420  1.0895 -2.4799
  105OSM   H15T10701   4.589   3.899   8.729 -1.9532 -0.4734 -1.5518
  105OSM   C16S10702   4.414   3.780   8.788 -0.4708  0.2236 -0.1043
  105OSM   H16S10703   4.344   3.864   8.769 -1.0490 -0.6130 -1.8657
  105OSM   H16T10704   4.369   3.711   8.862 -0.7472  1.7513  1.2169
  105OSM   C17S10705   4.439   3.702   8.656 -0.4257  0.0945 -0.3330
  105OSM   H17S10706   4.534   3.644   8.660  2.1397  3.8958 -1.0939
  105OSM   H17T10707   4.450   3.784   8.583 -1.1978 -0.5177 -1.1514
  105OSM   C18S10708   4.327   3.600   8.634 -0.1427 -0.2484 -0.0404
  105OSM   H18S10709   4.233   3.659   8.619  0.1468  0.5986  1.3127
  105OSM   H18T10710   4.312   3.542   8.728 -1.2605  0.0770  0.0030
  105OSM   H18U10711   4.349   3.531   8.550 -1.4893 -2.6082  1.4341
  105OSM    C1F10712   5.035   3.866  10.129 -0.5659  0.0976 -0.1608
  105OSM     OF10713   5.095   3.776  10.186 -0.0975  0.4296 -0.3015
  105OSM    C2F10714   5.104   3.968  10.045  0.0672  0.1649  0.1261
  105OSM    H2F10715   5.113   4.067  10.094  0.1379  0.5782 -0.7020
  105OSM    H2G10716   5.041   3.988   9.955  1.1847  1.8365 -0.3380
  105OSM    C3F10717   5.246   3.928   9.998  0.0718 -1.5171  0.3593
  105OSM    H3F10718   5.233   3.831   9.946 -0.0827 -0.5503 -1.4978
  105OSM    H3G10719   5.323   3.922  10.078  2.0548 -0.4289 -1.3916
  105OSM    C4F10720   5.303   4.040   9.910  0.5458  0.6779 -0.2032
  105OSM    H4F10721   5.388   3.988   9.861  0.3647 -0.8940  1.0583
  105OSM    H4G10722   5.348   4.122   9.970  0.0842  2.8368 -2.6199
  105OSM    C5F10723   5.207   4.119   9.813  0.0327 -1.0742  0.2658
  105OSM    H5F10724   5.131   4.170   9.876  1.8903  1.3543  0.6840
  105OSM    H5G10725   5.170   4.046   9.738 -1.1612  1.4963 -1.8452
  105OSM    C6F10726   5.277   4.221   9.720 -0.0594 -0.0877  0.5713
  105OSM    H6F10727   5.363   4.268   9.773  1.6045 -2.1604 -0.1566
  105OSM    H6G10728   5.209   4.302   9.685  0.4255 -0.0298 -0.2458
  105OSM    C7F10729   5.341   4.172   9.588 -0.5474 -0.3272 -0.0984
  105OSM    H7F10730   5.272   4.108   9.530  0.0661 -0.6610 -0.4686
  105OSM    H7G10731   5.425   4.103   9.614 -0.4559  0.6924  2.6961
  105OSM    C8F10732   5.392   4.291   9.501 -0.2335  0.6003  0.4170
  105OSM    H8F10733   5.451   4.354   9.571  0.2331 -1.5893  2.0826
  105OSM    H8G10734   5.299   4.346   9.473 -0.2494 -0.2760 -1.4053
  105OSM    C9F10735   5.471   4.247   9.379  0.1233 -0.4737 -0.3423
  105OSM    H9F10736   5.568   4.197   9.396  1.6084  2.4138  0.2962
  105OSM   C10F10737   5.420   4.251   9.252 -1.6560  0.5618 -0.1451
  105OSM   H10F10738   5.482   4.211   9.170  0.1190  2.0593  0.3888
  105OSM   C11F10739   5.298   4.316   9.207  0.3133 -0.5541  0.0591
  105OSM   H11F10740   5.262   4.385   9.286 -0.4148 -0.9348  0.0698
  105OSM   H11G10741   5.213   4.244   9.204 -1.6938  1.6942  0.4409
  105OSM   C12F10742   5.317   4.388   9.072  0.1561  0.8593  0.4824
  105OSM   H12F10743   5.354   4.315   8.997 -2.8743  0.7862 -1.1318
  105OSM   H12G10744   5.387   4.469   9.104 -1.5662  1.6882  2.4448
  105OSM   C13F10745   5.184   4.449   9.045  0.1194 -0.2493  0.0660
  105OSM   H13F10746   5.155   4.509   9.134 -0.8070  0.5105 -0.7225
  105OSM   H13G10747   5.112   4.367   9.024  1.7163 -1.4700 -0.8649
  105OSM   C14F10748   5.197   4.548   8.931 -0.6282 -0.2881  0.0766
  105OSM   H14F10749   5.248   4.496   8.848  0.4951 -0.5600  0.9201
  105OSM   H14G10750   5.271   4.623   8.967 -0.3030  0.0069 -1.1718
  105OSM   C15F10751   5.063   4.615   8.908  0.1357 -0.9878  0.0058
  105OSM   H15F10752   5.071   4.725   8.894 -3.6932 -0.6253 -0.4912
  105OSM   H15G10753   4.982   4.595   8.981  1.4703 -1.0694  1.5076
  105OSM   C16F10754   5.006   4.565   8.779  0.0975  0.2607  0.1616
  105OSM   H16F10755   5.017   4.454   8.774  0.6477  0.3053  0.2880
  105OSM   H16G10756   5.058   4.605   8.689  0.8086 -2.2306 -0.6201
  105OSM   C17F10757   4.854   4.589   8.768  0.3554 -0.7920  0.2644
  105OSM   H17F10758   4.832   4.696   8.793  2.5881 -0.0731 -0.6048
  105OSM   H17G10759   4.808   4.523   8.845  1.8464  0.4138  2.3140
  105OSM   C18F10760   4.797   4.557   8.626  0.3114  0.0375  0.3496
  105OSM   H18F10761   4.837   4.626   8.549 -0.0274 -0.4251 -0.2501
  105OSM   H18G10762   4.686   4.562   8.634  0.4831  1.3089  2.5161
  105OSM   H18H10763   4.809   4.451   8.594 -0.7690  0.0105 -0.0239
  106OSM      N10764   3.695   3.389  10.974 -0.5507  0.0880  0.0127
  106OSM    C1510765   3.802   3.465  11.045  0.5809  0.0380 -0.5270
  106OSM   H15A10766   3.847   3.414  11.129  0.7209  2.1453  0.7254
  106OSM   H15B10767   3.755   3.549  11.093  2.3096  1.5458 -1.3622
  106OSM   H15C10768   3.884   3.497  10.982  0.2779  1.4948 -0.2085
  106OSM    C1410769   3.597   3.328  11.064  0.2566 -0.0706 -0.2205
  106OSM   H14A10770   3.546   3.246  11.016 -0.5412 -1.8228  3.3446
  106OSM   H14B10771   3.515   3.393  11.091  0.7546 -0.0200  1.2068
  106OSM   H14C10772   3.644   3.293  11.154  1.7071 -1.0515 -1.3112
  106OSM    C1310773   3.620   3.487  10.884  0.2997 -0.0658 -0.1464
  106OSM   H13A10774   3.525   3.443  10.857  0.4845 -3.3711  3.5716
  106OSM   H13B10775   3.677   3.521  10.799 -0.4565 -1.2352 -1.1649
  106OSM   H13C10776   3.601   3.577  10.940  0.6666  1.1101 -1.8286
  106OSM    C1210777   3.752   3.272  10.890  0.8040 -0.3847 -0.0493
  106OSM   H12A10778   3.669   3.234  10.832  0.3674 -1.5492  1.2820
  106OSM   H12B10779   3.770   3.194  10.962  1.0669 -1.1796 -0.9512
  106OSM    C1110780   3.883   3.305  10.812  0.4443  0.0112 -0.1407
  106OSM   H11A10781   3.910   3.212  10.758 -2.0048 -0.6495 -0.3547
  106OSM   H11B10782   3.970   3.317  10.879  0.8336 -3.5188  0.1838
  106OSM      P10783   3.948   3.536  10.695  0.1496 -0.0419 -0.0006
  106OSM    O1310784   3.867   3.622  10.605  0.1850 -0.5440  0.0247
  106OSM    O1410785   3.973   3.594  10.826 -0.2419 -0.1362 -0.5417
  106OSM    O1110786   4.088   3.493  10.631  0.6924  0.4108  0.0613
  106OSM    O1210787   3.866   3.401  10.714 -0.1708 -0.2403  0.7516
  106OSM    C1S10788   4.082   3.401  10.514 -1.1100 -0.3029  0.5518
  106OSM    H1S10789   4.003   3.324  10.526  0.7942 -3.0539 -2.7012
  106OSM    H1T10790   4.180   3.351  10.514 -0.4672  0.8977 -0.0532
  106OSM     NF10791   4.032   3.394  10.271 -0.7319 -0.9054  0.6158
  106OSM    HNF10792   4.100   3.395  10.199  1.0198 -0.1314  2.1828
  106OSM    C2S10793   4.067   3.486  10.380 -0.0478  0.7728 -0.4252
  106OSM    H2S10794   3.977   3.551  10.390 -0.6970 -0.3660  1.7349
  106OSM    C3S10795   4.184   3.584  10.360  0.7670 -0.0321 -0.5813
  106OSM    H3S10796   4.273   3.520  10.379  1.0240  0.5325  0.1818
  106OSM     O310797   4.205   3.686  10.462  0.0329  0.2918  0.0117
  106OSM    HO310798   4.136   3.667  10.526  0.4863 -2.6737 -0.2444
  106OSM    C4S10799   4.177   3.650  10.231  0.8432 -0.1317  0.4199
  106OSM    H4S10800   4.075   3.677  10.198  1.1237  0.8082  0.2820
  106OSM    C5S10801   4.283   3.671  10.150 -0.4351  0.7962  0.4137
  106OSM    H5S10802   4.374   3.616  10.177  1.4854  2.7617 -1.7393
  106OSM    C6S10803   4.287   3.743  10.019 -0.0198  0.1735  0.0093
  106OSM    H6S10804   4.334   3.673   9.947  1.1327 -0.5065  1.3515
  106OSM    H6T10805   4.358   3.828  10.032 -0.4932  0.3852  1.4449
  106OSM    C7S10806   4.149   3.795   9.972 -1.0433  0.7035  0.8721
  106OSM    H7S10807   4.101   3.861  10.047 -2.5935  0.5107  0.1061
  106OSM    H7T10808   4.089   3.703   9.956 -0.3970  0.5028 -0.5742
  106OSM    C8S10809   4.155   3.869   9.838 -0.1911 -0.0296 -0.5581
  106OSM    H8S10810   4.196   3.805   9.757  0.2075  0.4266 -0.7187
  106OSM    H8T10811   4.214   3.961   9.858  1.5303 -0.8947 -1.4144
  106OSM    C9S10812   4.012   3.916   9.795 -0.1102 -0.1780 -0.4044
  106OSM    H9S10813   3.970   3.984   9.873  1.1586  2.7366 -2.0729
  106OSM    H9T10814   3.945   3.830   9.773 -0.0855 -0.0205 -1.1400
  106OSM   C10S10815   4.033   3.987   9.656 -0.1538  0.2507 -0.3781
  106OSM   H10S10816   4.133   4.037   9.648 -0.8140  2.0218  1.5195
  106OSM   H10T10817   3.962   4.071   9.639 -0.0176  0.2786 -0.8294
  106OSM   C11S10818   4.034   3.892   9.532 -0.3156  0.7043  0.0520
  106OSM   H11S10819   3.932   3.855   9.513 -0.5247  2.1028 -1.7297
  106OSM   H11T10820   4.096   3.802   9.553 -3.1602 -1.5732 -0.7372
  106OSM   C12S10821   4.094   3.947   9.401 -0.1246  0.3959 -0.1894
  106OSM   H12S10822   4.203   3.970   9.408 -0.1060  1.0707 -2.1176
  106OSM   H12T10823   4.049   4.046   9.380 -0.6167  0.1521 -0.2976
  106OSM   C13S10824   4.080   3.853   9.286  0.4012  0.4062  0.5590
  106OSM   H13S10825   3.980   3.805   9.297  0.2107  0.6134 -0.1677
  106OSM   H13T10826   4.166   3.782   9.286  0.5840  0.6294  1.0554
  106OSM   C14S10827   4.096   3.935   9.151 -0.5521  0.0459 -0.1991
  106OSM   H14S10828   4.203   3.965   9.154 -1.1563  2.2976  1.7209
  106OSM   H14T10829   4.036   4.028   9.163  0.5363  0.6211  0.9957
  106OSM   C15S10830   4.066   3.860   9.021  0.1116  0.1821  0.9465
  106OSM   H15S10831   3.961   3.824   9.034  0.3465 -1.1403 -0.4448
  106OSM   H15T10832   4.131   3.770   9.014 -0.5651 -0.2321 -0.5485
  106OSM   C16S10833   4.089   3.952   8.894  0.6004  0.2246  0.0217
  106OSM   H16S10834   4.198   3.976   8.891  0.3304  1.6198  0.5888
  106OSM   H16T10835   4.039   4.049   8.911 -0.1829 -0.3537  1.1405
  106OSM   C17S10836   4.054   3.881   8.765 -0.2578 -0.0965 -0.3442
  106OSM   H17S10837   3.953   3.834   8.771 -0.4122  0.2963  0.1876
  106OSM   H17T10838   4.122   3.797   8.738  0.4709  0.7842 -1.3431
  106OSM   C18S10839   4.061   3.982   8.648  0.8646  0.1920  0.5699
  106OSM   H18S10840   4.160   4.020   8.615 -0.2906  0.9290 -2.3311
  106OSM   H18T10841   3.989   4.063   8.671  0.0481 -0.2172 -0.4642
  106OSM   H18U10842   4.026   3.935   8.553  0.7275  1.3865  0.0088
  106OSM    C1F10843   3.926   3.321  10.270 -0.6359 -0.1812  0.2169
  106OSM     OF10844   3.845   3.350  10.352 -0.0573 -0.2897 -0.0877
  106OSM    C2F10845   3.894   3.222  10.160  0.2719  0.1593 -1.2277
  106OSM    H2F10846   3.982   3.223  10.092  1.5176 -2.6494  0.1669
  106OSM    H2G10847   3.796   3.242  10.112 -0.1903 -1.3896 -1.0017
  106OSM    C3F10848   3.896   3.079  10.223 -0.3766  0.5676  0.7130
  106OSM    H3F10849   3.802   3.063  10.281 -0.5063 -1.4501  0.0006
  106OSM    H3G10850   3.986   3.067  10.287  0.7684  4.6312  0.1585
  106OSM    C4F10851   3.895   2.971  10.111  0.1054  0.0656  0.0517
  106OSM    H4F10852   3.819   2.987  10.032  1.4437 -0.4465 -1.3904
  106OSM    H4G10853   3.883   2.876  10.166 -0.5376  0.1819  0.1194
  106OSM    C5F10854   4.043   2.957  10.056 -0.0779  0.6517  0.1216
  106OSM    H5F10855   4.100   2.922  10.145  2.8814  0.3918 -1.7281
  106OSM    H5G10856   4.090   3.054  10.029  0.8350  0.2250  0.1461
  106OSM    C6F10857   4.058   2.861   9.927  0.0059  0.2282  0.0243
  106OSM    H6F10858   4.023   2.762   9.964  0.8852  0.5158  1.7780
  106OSM    H6G10859   4.167   2.854   9.903 -0.3546  0.3885 -1.8012
  106OSM    C7F10860   3.966   2.904   9.810  0.0739  0.6514 -0.1391
  106OSM    H7F10861   3.999   3.007   9.787 -3.6616  1.3028 -3.5265
  106OSM    H7G10862   3.863   2.921   9.848  0.3320  1.0263  0.4049
  106OSM    C8F10863   3.985   2.816   9.683 -0.1159  0.0833  0.0113
  106OSM    H8F10864   3.945   2.715   9.706  0.5750  0.0158  0.9373
  106OSM    H8G10865   4.096   2.813   9.678 -0.0415 -2.0118  1.5994
  106OSM    C9F10866   3.924   2.854   9.554  0.2554 -0.0761  0.5029
  106OSM    H9F10867   3.818   2.877   9.566  0.4161  0.9664  0.0175
  106OSM   C10F10868   3.984   2.882   9.434 -0.1266 -0.1059 -0.1518
  106OSM   H10F10869   3.918   2.920   9.354 -0.1013 -0.2605 -0.2462
  106OSM   C11F10870   4.130   2.880   9.403 -0.1961 -0.0414  1.2323
  106OSM   H11F10871   4.181   2.812   9.475  1.0832 -0.9362 -0.4508
  106OSM   H11G10872   4.175   2.980   9.425 -1.3338  0.4073  1.5775
  106OSM   C12F10873   4.161   2.839   9.256 -0.2931  0.7127  0.0442
  106OSM   H12F10874   4.103   2.896   9.180 -0.4436 -1.3310 -1.4666
  106OSM   H12G10875   4.125   2.735   9.240  2.7566 -0.2268 -1.3949
  106OSM   C13F10876   4.313   2.834   9.218  0.7438  0.4562 -0.5485
  106OSM   H13F10877   4.370   2.798   9.306  0.1747 -1.1970 -0.8138
  106OSM   H13G10878   4.346   2.938   9.201  0.3611  0.4340 -1.4539
  106OSM   C14F10879   4.331   2.749   9.092 -1.0968 -0.1428 -0.2070
  106OSM   H14F10880   4.277   2.796   9.008  0.5710  3.8607  0.7502
  106OSM   H14G10881   4.301   2.643   9.107  0.9891 -0.7276  0.2049
  106OSM   C15F10882   4.483   2.744   9.055 -0.5580 -0.5613 -0.4342
  106OSM   H15F10883   4.503   2.668   8.976 -1.0639  0.0504 -1.1571
  106OSM   H15G10884   4.539   2.718   9.148  2.2598 -0.1154 -1.9081
  106OSM   C16F10885   4.558   2.877   9.017 -0.6664 -0.4040  0.0420
  106OSM   H16F10886   4.609   2.928   9.101  1.9698 -1.1049 -1.0278
  106OSM   H16G10887   4.481   2.952   8.992  2.7526  2.8411 -1.8200
  106OSM   C17F10888   4.658   2.873   8.907 -0.1410 -0.1941  0.2952
  106OSM   H17F10889   4.626   2.800   8.830 -2.3316  1.2880 -0.2889
  106OSM   H17G10890   4.753   2.835   8.950  1.4269  2.6441 -0.3811
  106OSM   C18F10891   4.693   3.007   8.840  0.1385  0.8917  0.3028
  106OSM   H18F10892   4.757   2.999   8.749 -0.2276 -0.6003  0.1603
  106OSM   H18G10893   4.747   3.077   8.908  0.8591  0.0742  0.5873
  106OSM   H18H10894   4.599   3.063   8.821 -0.1665  1.2165  2.5161
  107OSM      N10895   6.579   6.709  10.525 -0.3156  0.4426  0.0787
  107OSM    C1510896   6.693   6.611  10.552 -0.5600 -0.1396 -0.0854
  107OSM   H15A10897   6.718   6.608  10.657  1.3703 -0.5043 -0.5144
  107OSM   H15B10898   6.773   6.654  10.494 -1.6139  0.7940 -0.8946
  107OSM   H15C10899   6.667   6.512  10.519 -0.8807 -0.0827 -0.0032
  107OSM    C1410900   6.628   6.848  10.564  0.7571 -0.6948 -0.2170
  107OSM   H14A10901   6.681   6.898  10.485  1.7844 -0.2883  0.6977
  107OSM   H14B10902   6.695   6.841  10.649  0.1099 -1.9097  0.2146
  107OSM   H14C10903   6.545   6.912  10.591  1.3059  0.0933 -0.3490
  107OSM    C1310904   6.547   6.717  10.383  0.8786  0.2216 -0.3367
  107OSM   H13A10905   6.460   6.778  10.368  1.4278  2.1895  3.3435
  107OSM   H13B10906   6.525   6.624  10.333  0.5211 -0.4084  0.9441
  107OSM   H13C10907   6.627   6.766  10.330 -0.1695  2.4753  0.0450
  107OSM    C1210908   6.454   6.671  10.612 -0.1288  0.2930 -0.5233
  107OSM   H12A10909   6.481   6.650  10.714  0.9897  1.2851 -0.5998
  107OSM   H12B10910   6.422   6.573  10.579  0.2474 -1.1303  2.9710
  107OSM    C1110911   6.343   6.780  10.621  0.3684 -0.1839 -0.7819
  107OSM   H11A10912   6.253   6.731  10.663  0.3858 -0.3548 -0.9441
  107OSM   H11B10913   6.319   6.826  10.523  0.9377  1.7116 -0.0704
  107OSM      P10914   6.278   7.016  10.732  0.2536  0.0876  0.1751
  107OSM    O1310915   6.165   6.968  10.815  0.0647  0.2095 -0.0010
  107OSM    O1410916   6.346   7.136  10.784 -0.3121  0.0050 -0.9003
  107OSM    O1110917   6.228   7.055  10.593 -0.2031 -0.1168 -0.6226
  107OSM    O1210918   6.381   6.892  10.706 -0.0515  0.3209 -0.1279
  107OSM    C1S10919   6.279   7.170  10.522 -0.4043 -0.0174  0.4723
  107OSM    H1S10920   6.383   7.145  10.493 -0.9949 -2.2573  0.1233
  107OSM    H1T10921   6.280   7.260  10.587 -3.1658  0.2422  0.2464
  107OSM     NF10922   6.283   7.304  10.312  0.3732 -0.2236 -1.1386
  107OSM    HNF10923   6.251   7.398  10.309  1.2153  0.2001  1.2537
  107OSM    C2S10924   6.202   7.204  10.386 -0.4695 -0.0522  0.3632
  107OSM    H2S10925   6.205   7.107  10.333  0.0552 -0.0656  0.4163
  107OSM    C3S10926   6.062   7.235  10.412 -0.4327 -0.5524  0.0761
  107OSM    H3S10927   6.061   7.333  10.464  0.5345 -0.2514 -0.4572
  107OSM     O310928   5.993   7.153  10.504 -0.3942  0.2879 -0.4503
  107OSM    HO310929   6.069   7.107  10.540 -0.6194 -0.4035 -0.8325
  107OSM    C4S10930   5.981   7.251  10.283 -0.5608  0.1206 -0.6692
  107OSM    H4S10931   6.021   7.330  10.218 -4.2773 -0.1704 -3.6354
  107OSM    C5S10932   5.891   7.174  10.224 -0.0097 -1.3045 -0.1498
  107OSM    H5S10933   5.856   7.091  10.286 -2.3946 -0.3466 -0.0803
  107OSM    C6S10934   5.837   7.191  10.081  0.1914  0.0995 -0.3910
  107OSM    H6S10935   5.744   7.250  10.090 -0.5811 -0.9819 -0.9986
  107OSM    H6T10936   5.803   7.090  10.049 -0.4845  0.3570 -0.4865
  107OSM    C7S10937   5.935   7.251   9.976  0.2184 -0.2603 -0.7274
  107OSM    H7S10938   6.026   7.188   9.965  2.1500  1.5768  2.9681
  107OSM    H7T10939   5.986   7.336  10.026  0.0760 -0.9903  0.7323
  107OSM    C8S10940   5.869   7.285   9.842  0.2493  0.0349  0.8289
  107OSM    H8S10941   5.948   7.336   9.783 -0.6254 -1.4385 -1.7922
  107OSM    H8T10942   5.780   7.351   9.842 -0.1595 -0.4178 -1.7220
  107OSM    C9S10943   5.836   7.162   9.747 -0.6599  0.9009 -0.6211
  107OSM    H9S10944   5.752   7.107   9.796  2.1261 -1.4906  1.8262
  107OSM    H9T10945   5.922   7.092   9.754 -0.9293  0.6568  0.5842
  107OSM   C10S10946   5.802   7.202   9.605  0.1251 -0.2673  0.1415
  107OSM   H10S10947   5.895   7.257   9.581  1.2043 -1.8177  0.5837
  107OSM   H10T10948   5.718   7.274   9.612 -0.0028 -0.3719 -0.3178
  107OSM   C11S10949   5.771   7.085   9.513 -0.7240  0.1087  1.0069
  107OSM   H11S10950   5.684   7.030   9.555  1.1068 -2.1589  2.0975
  107OSM   H11T10951   5.853   7.012   9.493 -1.4730 -0.7107  0.8340
  107OSM   C12S10952   5.732   7.121   9.368  0.3107  0.2554  0.3412
  107OSM   H12S10953   5.669   7.213   9.378 -1.3320 -0.9981  2.3595
  107OSM   H12T10954   5.663   7.054   9.312  0.2968 -0.2005  0.9077
  107OSM   C13S10955   5.853   7.160   9.285  0.2544 -0.8433  0.0566
  107OSM   H13S10956   5.893   7.066   9.243  3.9216 -0.5088  2.4193
  107OSM   H13T10957   5.932   7.201   9.351 -0.4783 -1.2978  1.2361
  107OSM   C14S10958   5.837   7.270   9.177 -0.2793 -0.4729  0.0427
  107OSM   H14S10959   5.937   7.297   9.137  0.5844 -2.3789  0.7841
  107OSM   H14T10960   5.800   7.362   9.228 -0.7126 -2.0571  2.7737
  107OSM   C15S10961   5.742   7.237   9.063 -0.1909  0.5682 -0.4893
  107OSM   H15S10962   5.649   7.196   9.109  1.5652 -1.0424  1.8642
  107OSM   H15T10963   5.777   7.149   9.006  1.2646 -0.6663  2.1170
  107OSM   C16S10964   5.712   7.349   8.963 -0.0323 -0.4856 -0.7348
  107OSM   H16S10965   5.800   7.415   8.943  0.0360  1.0789  3.5463
  107OSM   H16T10966   5.631   7.417   8.999 -1.0627 -1.1074 -1.8234
  107OSM   C17S10967   5.656   7.286   8.833 -0.6566  0.5675 -0.8105
  107OSM   H17S10968   5.575   7.212   8.850  0.1565 -0.0282  0.5068
  107OSM   H17T10969   5.741   7.244   8.775 -0.9060  2.1710 -2.4554
  107OSM   C18S10970   5.593   7.392   8.742 -0.4540  0.2726 -0.9325
  107OSM   H18S10971   5.501   7.440   8.782  0.6840  2.1676 -0.4717
  107OSM   H18T10972   5.559   7.350   8.645 -0.1292  1.3394 -1.5216
  107OSM   H18U10973   5.669   7.471   8.725  1.0482 -0.9605 -0.2277
  107OSM    C1F10974   6.403   7.283  10.260  0.2172 -0.1933  0.2691
  107OSM     OF10975   6.460   7.176  10.267  0.0624  0.2483  0.0779
  107OSM    C2F10976   6.463   7.394  10.184  0.3624 -0.2812  0.1410
  107OSM    H2F10977   6.570   7.369  10.197 -0.0800 -1.6787  1.2708
  107OSM    H2G10978   6.426   7.492  10.222  1.5621 -0.3500  1.5592
  107OSM    C3F10979   6.432   7.374  10.034  0.4645  0.2736  0.6266
  107OSM    H3F10980   6.322   7.370  10.019  0.2078  3.0043  1.2129
  107OSM    H3G10981   6.483   7.281  10.001 -1.5724 -0.1101 -1.7910
  107OSM    C4F10982   6.505   7.480   9.948 -0.1516  0.4045  0.2523
  107OSM    H4F10983   6.614   7.470   9.967 -0.6603 -2.2311  2.4652
  107OSM    H4G10984   6.476   7.580   9.985 -1.5182 -0.3586  1.3600
  107OSM    C5F10985   6.472   7.468   9.798  0.0056 -0.1894  0.2831
  107OSM    H5F10986   6.368   7.446   9.768 -0.1718  0.6136  0.2867
  107OSM    H5G10987   6.530   7.376   9.774  2.5606  1.0389  1.2913
  107OSM    C6F10988   6.520   7.595   9.722 -0.5026 -0.7662  0.6918
  107OSM    H6F10989   6.629   7.608   9.741 -0.7016 -0.1768  1.5147
  107OSM    H6G10990   6.464   7.684   9.760 -0.7920  1.0349 -3.4330
  107OSM    C7F10991   6.492   7.581   9.569  0.5302 -0.4983  0.3184
  107OSM    H7F10992   6.381   7.574   9.567  0.5496 -1.8178  1.7645
  107OSM    H7G10993   6.523   7.479   9.536  1.2393 -0.0078 -0.5624
  107OSM    C8F10994   6.545   7.698   9.477 -0.1882 -0.0467  0.6550
  107OSM    H8F10995   6.510   7.677   9.374  1.4714 -2.8382  0.5357
  107OSM    H8G10996   6.651   7.664   9.483 -0.3934 -0.5686  1.4985
  107OSM    C9F10997   6.535   7.835   9.540 -0.2705 -0.8813  0.9578
  107OSM    H9F10998   6.628   7.847   9.597 -0.4341 -1.2835  1.3108
  107OSM   C10F10999   6.434   7.928   9.526  0.0609  0.2270  0.3883
  107OSM   H10F11000   6.434   8.023   9.580 -2.4811  1.3083 -1.3284
  107OSM   C11F11001   6.302   7.907   9.456 -0.1746 -0.5800  0.0774
  107OSM   H11F11002   6.220   7.905   9.531 -0.0402  1.4521  0.3479
  107OSM   H11G11003   6.302   7.808   9.406  1.2586 -0.7611  0.4009
  107OSM   C12F11004   6.282   8.016   9.352  0.3336  0.2890  0.3278
  107OSM   H12F11005   6.279   8.109   9.413  1.2555 -1.3917  3.1388
  107OSM   H12G11006   6.177   8.007   9.317  0.6033 -0.5931 -0.3026
  107OSM   C13F11007   6.388   8.026   9.243  1.0290  0.3909 -0.2424
  107OSM   H13F11008   6.481   8.071   9.285  1.1283 -0.5080  0.5363
  107OSM   H13G11009   6.356   8.097   9.163 -0.5040  0.8700  0.7449
  107OSM   C14F11010   6.424   7.895   9.163 -0.0908 -0.7821  0.5232
  107OSM   H14F11011   6.333   7.839   9.131  0.4003 -2.4279  1.8430
  107OSM   H14G11012   6.489   7.830   9.226  1.6072 -1.0510 -1.4057
  107OSM   C15F11013   6.494   7.930   9.040  0.3481  0.4005 -0.1088
  107OSM   H15F11014   6.600   7.961   9.052  0.1261  1.4806 -0.7287
  107OSM   H15G11015   6.429   8.008   8.994 -0.0356  0.3346  0.3130
  107OSM   C16F11016   6.483   7.812   8.937 -0.7670 -0.3380  0.4066
  107OSM   H16F11017   6.375   7.795   8.917 -0.2644 -1.5101 -1.5597
  107OSM   H16G11018   6.524   7.711   8.961 -1.1827 -0.9052 -1.1643
  107OSM   C17F11019   6.545   7.857   8.801 -0.7002  0.0775 -0.2390
  107OSM   H17F11020   6.650   7.878   8.829 -0.8296 -0.0771  0.3703
  107OSM   H17G11021   6.494   7.949   8.764 -1.7836 -0.1145  0.7126
  107OSM   C18F11022   6.538   7.734   8.711 -0.2629 -0.3878 -0.1179
  107OSM   H18F11023   6.431   7.723   8.684  0.1028 -1.2258 -1.3268
  107OSM   H18G11024   6.569   7.649   8.776 -0.6263  1.4001  2.5603
  107OSM   H18H11025   6.600   7.739   8.619  1.3427 -2.4199  0.7514
  108OSM      N11026   2.889   1.715  10.612 -0.0456 -0.7591  0.1983
  108OSM    C1511027   2.798   1.815  10.668  0.8284 -0.3649 -0.5357
  108OSM   H15A11028   2.735   1.861  10.592  0.1111  1.9333  1.3220
  108OSM   H15B11029   2.852   1.896  10.714 -1.0519  0.4914  0.2797
  108OSM   H15C11030   2.729   1.765  10.734  4.1054  0.1240  3.7134
  108OSM    C1411031   2.991   1.787  10.524  0.4007  0.7112 -0.2827
  108OSM   H14A11032   3.052   1.854  10.584  1.8291 -0.4560 -0.3768
  108OSM   H14B11033   2.947   1.842  10.442  0.5682 -0.9213 -1.5152
  108OSM   H14C11034   3.061   1.722  10.474  2.0269  2.3899 -0.2881
  108OSM    C1311035   2.973   1.650  10.716 -0.0201  0.6435 -0.1067
  108OSM   H13A11036   3.056   1.593  10.676  0.4788  0.3782  1.2239
  108OSM   H13B11037   2.918   1.577  10.772  0.5175  0.9156  0.8109
  108OSM   H13C11038   3.010   1.731  10.778  0.1300  1.7962 -1.6500
  108OSM    C1211039   2.811   1.605  10.536 -0.0748 -0.8275 -0.0396
  108OSM   H12A11040   2.731   1.575  10.601 -1.2324 -0.1849 -1.1340
  108OSM   H12B11041   2.882   1.525  10.516  2.5726  0.9902  1.3671
  108OSM    C1111042   2.743   1.644  10.403 -0.0856 -0.3364 -0.0468
  108OSM   H11A11043   2.689   1.557  10.358 -3.0696  1.7088 -0.7211
  108OSM   H11B11044   2.831   1.667  10.339 -0.2092  1.0907  0.2761
  108OSM      P11045   2.507   1.744  10.468 -0.1352  0.0282 -0.3432
  108OSM    O1311046   2.465   1.605  10.455 -0.0469 -0.1051  0.0376
  108OSM    O1411047   2.491   1.818  10.600 -0.8625  0.3203  0.0129
  108OSM    O1111048   2.430   1.828  10.358  0.2201  0.3068  0.3715
  108OSM    O1211049   2.659   1.757  10.416  0.2386  0.0588 -0.3583
  108OSM    C1S11050   2.319   1.914  10.381  0.5716 -0.1195  0.0715
  108OSM    H1S11051   2.340   1.980  10.468 -1.7583 -0.6271  1.1097
  108OSM    H1T11052   2.235   1.847  10.410  1.7832 -1.6086  0.2543
  108OSM     NF11053   2.157   2.066  10.272 -0.0463 -0.4078  0.1598
  108OSM    HNF11054   2.069   2.064  10.225  1.5391 -0.5296 -3.0869
  108OSM    C2S11055   2.269   1.985  10.247 -0.1152  0.4891 -0.9277
  108OSM    H2S11056   2.349   2.050  10.206  0.1546  0.7103 -0.0778
  108OSM    C3S11057   2.229   1.871  10.142  0.3623 -0.1986  0.5388
  108OSM    H3S11058   2.155   1.805  10.192 -0.9707  1.0238  0.2281
  108OSM     O311059   2.339   1.786  10.102 -0.2073 -0.3618 -0.3163
  108OSM    HO311060   2.408   1.825  10.156  0.3201 -0.3849 -0.9548
  108OSM    C4S11061   2.163   1.927  10.019  0.2619 -0.4442 -1.0985
  108OSM    H4S11062   2.053   1.926  10.018  0.2478 -0.9786 -0.1406
  108OSM    C5S11063   2.213   1.989   9.907 -0.9794 -0.1370 -0.1926
  108OSM    H5S11064   2.321   2.007   9.904 -1.0973  0.6104 -0.1618
  108OSM    C6S11065   2.143   2.040   9.792  0.0937 -0.7492 -0.3064
  108OSM    H6S11066   2.127   2.149   9.789 -1.5651 -0.8416  2.4477
  108OSM    H6T11067   2.046   1.985   9.785  0.0288 -0.8754  1.2917
  108OSM    C7S11068   2.227   1.999   9.663 -0.8163 -0.0208 -0.0073
  108OSM    H7S11069   2.248   1.890   9.665 -0.2419 -0.0131 -2.3274
  108OSM    H7T11070   2.324   2.054   9.662 -1.5116  1.2761 -2.1271
  108OSM    C8S11071   2.152   2.011   9.528 -1.1488 -0.1705 -0.2098
  108OSM    H8S11072   2.091   2.104   9.532  0.1213  0.6538  0.7936
  108OSM    H8T11073   2.091   1.919   9.515 -0.3462 -0.4483 -2.3075
  108OSM    C9S11074   2.252   2.016   9.415  0.7821  0.0933 -0.5895
  108OSM    H9S11075   2.299   1.915   9.417 -0.2294 -0.4709  3.8229
  108OSM    H9T11076   2.318   2.105   9.418  1.1058 -0.1067 -1.4490
  108OSM   C10S11077   2.184   2.030   9.280  0.2087 -0.5538 -0.6685
  108OSM   H10S11078   2.128   2.126   9.283  2.5138  0.8546 -0.2988
  108OSM   H10T11079   2.111   1.948   9.260  0.8802 -1.3845  0.1902
  108OSM   C11S11080   2.282   2.033   9.167 -0.5443 -0.1705 -0.2262
  108OSM   H11S11081   2.369   2.093   9.201  0.2380 -1.9772  1.1730
  108OSM   H11T11082   2.240   2.075   9.073  0.5662 -1.7693 -1.4878
  108OSM   C12S11083   2.338   1.895   9.121  0.1849 -0.5592 -0.0868
  108OSM   H12S11084   2.252   1.836   9.085 -0.1546 -0.0643 -0.0977
  108OSM   H12T11085   2.387   1.839   9.203  1.2291  0.8133  0.2785
  108OSM   C13S11086   2.450   1.908   9.018 -0.5175  0.3049  0.1606
  108OSM   H13S11087   2.529   1.977   9.055 -1.1007  0.7178  0.6697
  108OSM   H13T11088   2.410   1.972   8.937  0.9555  1.3164  0.1959
  108OSM   C14S11089   2.504   1.772   8.963  0.5972 -0.0710  0.4255
  108OSM   H14S11090   2.425   1.743   8.890  0.5203 -1.4714  1.0310
  108OSM   H14T11091   2.513   1.694   9.042 -1.5450  0.1287  0.9214
  108OSM   C15S11092   2.634   1.803   8.899 -0.5316  0.2273 -1.0541
  108OSM   H15S11093   2.698   1.858   8.971 -0.4226 -2.2647  0.8436
  108OSM   H15T11094   2.617   1.870   8.811 -1.4857  1.2267 -0.1457
  108OSM   C16S11095   2.698   1.669   8.859  0.3052  0.3904 -0.3126
  108OSM   H16S11096   2.795   1.693   8.811  0.9480  0.1971  0.8610
  108OSM   H16T11097   2.630   1.618   8.788  0.4239 -0.0686 -0.0963
  108OSM   C17S11098   2.735   1.573   8.971 -0.2558 -0.0416  0.0048
  108OSM   H17S11099   2.802   1.492   8.935  1.9244  1.5154  0.3693
  108OSM   H17T11100   2.648   1.514   9.005 -1.3268  1.4363 -0.0625
  108OSM   C18S11101   2.776   1.642   9.095  0.4119  0.3881 -0.0510
  108OSM   H18S11102   2.687   1.679   9.151  0.1021 -0.0755 -0.2314
  108OSM   H18T11103   2.852   1.717   9.063 -0.8378  0.8934 -2.0332
  108OSM   H18U11104   2.818   1.572   9.171 -2.0823  0.7314  1.7703
  108OSM    C1F11105   2.165   2.185  10.344 -0.3180  0.2357  0.0930
  108OSM     OF11106   2.271   2.234  10.382 -0.1249  0.3590 -0.3629
  108OSM    C2F11107   2.038   2.261  10.364  0.6588 -0.2831 -0.9775
  108OSM    H2F11108   2.052   2.348  10.431  1.4812 -1.8255  0.9602
  108OSM    H2G11109   1.958   2.198  10.409 -0.2207 -1.5088 -3.9577
  108OSM    C3F11110   1.977   2.298  10.227  0.3509 -0.4515  0.2092
  108OSM    H3F11111   1.872   2.330  10.248  0.1696 -1.9535  1.9103
  108OSM    H3G11112   1.972   2.217  10.151 -0.4724  0.1878 -0.4315
  108OSM    C4F11113   2.060   2.412  10.164  0.1584  0.7969 -0.1111
  108OSM    H4F11114   2.155   2.367  10.129  0.4480  0.4485  1.0575
  108OSM    H4G11115   2.090   2.479  10.248 -0.7234  0.0846  0.8063
  108OSM    C5F11116   1.979   2.494  10.061 -0.1491  0.3024 -0.6577
  108OSM    H5F11117   2.046   2.563  10.005  0.6822  2.4465  2.6608
  108OSM    H5G11118   1.901   2.558  10.108 -2.2203 -1.2671 -1.8346
  108OSM    C6F11119   1.913   2.415   9.954  0.8615 -0.5469  0.5000
  108OSM    H6F11120   1.831   2.355   9.999 -0.6933  2.9380  2.7041
  108OSM    H6G11121   1.985   2.349   9.901  1.0334 -1.4826  1.8593
  108OSM    C7F11122   1.859   2.509   9.839  0.0505  0.3267 -0.2712
  108OSM    H7F11123   1.935   2.572   9.788  1.0264  0.7637  1.6310
  108OSM    H7G11124   1.805   2.590   9.892  0.8670  0.8976 -0.2897
  108OSM    C8F11125   1.752   2.446   9.744 -0.4812  0.3703 -0.2094
  108OSM    H8F11126   1.691   2.516   9.683  0.1323  1.3404  0.2745
  108OSM    H8G11127   1.684   2.390   9.811  0.3787 -1.3681 -0.7190
  108OSM    C9F11128   1.810   2.344   9.659 -0.2210 -0.6605 -0.0950
  108OSM    H9F11129   1.871   2.268   9.709  1.6925  1.0328  0.2645
  108OSM   C10F11130   1.804   2.329   9.527 -0.1839  0.0602 -0.1133
  108OSM   H10F11131   1.859   2.246   9.480 -0.5521 -0.9257  1.1409
  108OSM   C11F11132   1.738   2.423   9.430 -0.0108  0.3996  0.1579
  108OSM   H11F11133   1.811   2.497   9.392  1.5009 -0.3032  1.5808
  108OSM   H11G11134   1.660   2.492   9.468 -0.5948  0.3447 -0.9008
  108OSM   C12F11135   1.691   2.348   9.304  0.1904 -0.2029 -0.7506
  108OSM   H12F11136   1.620   2.414   9.251 -0.2775  1.2883  1.5613
  108OSM   H12G11137   1.654   2.245   9.322  0.8223 -0.1518  1.0703
  108OSM   C13F11138   1.814   2.332   9.207  0.0941 -0.5486 -0.4076
  108OSM   H13F11139   1.893   2.264   9.247  1.2117  1.4677  0.9838
  108OSM   H13G11140   1.875   2.425   9.202  1.5016 -1.4917 -2.2399
  108OSM   C14F11141   1.764   2.292   9.071  0.1131  0.6997 -0.1980
  108OSM   H14F11142   1.850   2.296   9.001 -0.2650  1.2816 -0.6407
  108OSM   H14G11143   1.677   2.350   9.034 -1.5769 -2.0623 -0.8834
  108OSM   C15F11144   1.718   2.141   9.066  0.3966 -0.6697  0.4269
  108OSM   H15F11145   1.611   2.132   9.091  0.0556 -0.5176 -0.9031
  108OSM   H15G11146   1.767   2.079   9.144 -0.9545 -0.0654  1.8086
  108OSM   C16F11147   1.761   2.073   8.938  0.3522  0.4238  0.1686
  108OSM   H16F11148   1.749   2.140   8.851  0.9447 -1.2329 -1.2518
  108OSM   H16G11149   1.700   1.980   8.929  4.6403 -2.7791  1.1473
  108OSM   C17F11150   1.907   2.027   8.940 -0.2250 -0.3255  0.7807
  108OSM   H17F11151   1.912   1.955   9.025  3.4768 -1.0831  0.0618
  108OSM   H17G11152   1.970   2.116   8.960 -1.6083  1.5580 -2.3911
  108OSM   C18F11153   1.962   1.953   8.816 -0.1200  0.8331 -0.2764
  108OSM   H18F11154   1.932   1.846   8.822  1.1886  0.4386 -0.5045
  108OSM   H18G11155   2.073   1.948   8.817 -0.1434 -0.8379  1.8653
  108OSM   H18H11156   1.927   1.999   8.721  1.2013 -2.4174 -2.5172
  109OSM      N11157   2.828   6.227  11.076 -0.3149 -0.3024 -1.0059
  109OSM    C1511158   2.718   6.218  11.175  0.0484 -0.5069  0.4390
  109OSM   H15A11159   2.633   6.263  11.125  0.7596 -0.8561 -1.1732
  109OSM   H15B11160   2.746   6.258  11.271 -1.6733 -1.1505  1.2537
  109OSM   H15C11161   2.696   6.112  11.177  0.3131 -0.6776 -2.1666
  109OSM    C1411162   2.857   6.369  11.036  0.2655  0.2518  0.3199
  109OSM   H14A11163   2.948   6.373  10.979 -0.7350 -1.6992 -1.5473
  109OSM   H14B11164   2.872   6.422  11.129  2.3074  0.4743 -0.0966
  109OSM   H14C11165   2.778   6.405  10.972  0.3601 -0.3403 -0.1335
  109OSM    C1311166   2.953   6.181  11.140  0.1663  0.4190 -0.6390
  109OSM   H13A11167   2.965   6.228  11.237  0.9618 -0.2981 -0.3828
  109OSM   H13B11168   3.042   6.179  11.080  0.4367 -1.0412 -0.2426
  109OSM   H13C11169   2.935   6.080  11.174 -1.0737  1.2158  1.2533
  109OSM    C1211170   2.809   6.138  10.958  0.7669  0.1172  0.2525
  109OSM   H12A11171   2.882   6.167  10.884  1.5494  1.4160  1.4817
  109OSM   H12B11172   2.713   6.164  10.915  1.1735 -1.2093 -1.6029
  109OSM    C1111173   2.798   5.986  10.973 -0.0277 -0.1996 -0.1326
  109OSM   H11A11174   2.887   5.956  11.033  0.0812  1.9992  0.9192
  109OSM   H11B11175   2.813   5.931  10.877  0.5111 -1.9276  0.8940
  109OSM      P11176   2.544   5.952  10.985  0.4390  0.1859  0.1387
  109OSM    O1311177   2.448   5.877  11.065 -0.3616  0.4952 -0.2228
  109OSM    O1411178   2.511   6.090  10.956 -0.5709 -0.2956  0.4931
  109OSM    O1111179   2.579   5.877  10.853  0.0213 -0.4392 -0.2870
  109OSM    O1211180   2.685   5.944  11.049 -0.1379 -0.9607 -0.5703
  109OSM    C1S11181   2.579   5.933  10.719  0.2318  0.9923  0.2163
  109OSM    H1S11182   2.634   6.030  10.726  0.6789  0.6317  2.3977
  109OSM    H1T11183   2.478   5.953  10.677  0.8335 -0.7703 -2.2354
  109OSM     NF11184   2.691   5.904  10.503  0.3408 -0.0105  0.2219
  109OSM    HNF11185   2.637   5.879  10.423 -1.9840  0.8744  1.4249
  109OSM    C2S11186   2.663   5.839  10.626  0.2375 -0.0632  0.9013
  109OSM    H2S11187   2.758   5.817  10.680  0.2138 -0.6473  0.7127
  109OSM    C3S11188   2.606   5.696  10.623  0.0168  0.1313 -0.3627
  109OSM    H3S11189   2.502   5.697  10.585 -0.1990 -0.7572  0.1747
  109OSM     O311190   2.604   5.636  10.752 -0.2319  0.1242  0.3746
  109OSM    HO311191   2.623   5.710  10.810 -0.4925 -0.5198  1.3056
  109OSM    C4S11192   2.688   5.615  10.522  0.6863 -0.6585 -0.4042
  109OSM    H4S11193   2.647   5.624  10.421  0.2603 -0.3718 -0.2081
  109OSM    C5S11194   2.796   5.546  10.558  0.3470 -0.3540 -0.1187
  109OSM    H5S11195   2.826   5.539  10.664  1.9854  2.1455 -0.3285
  109OSM    C6S11196   2.896   5.478  10.469 -0.6438 -0.1649 -0.6848
  109OSM    H6S11197   2.920   5.375  10.503  0.3576 -0.0059 -0.8685
  109OSM    H6T11198   2.993   5.528  10.489 -0.4795 -0.4302 -0.8089
  109OSM    C7S11199   2.861   5.487  10.322  0.1040  0.5214  0.0886
  109OSM    H7S11200   2.834   5.593  10.300 -0.4150  0.4710  0.4515
  109OSM    H7T11201   2.777   5.416  10.309  3.1722 -3.0329 -2.4835
  109OSM    C8S11202   2.966   5.435  10.220 -0.2395 -0.1620  0.2886
  109OSM    H8S11203   3.006   5.333  10.239  2.8430  0.6716 -1.0598
  109OSM    H8T11204   3.052   5.506  10.216 -1.9837  2.0013 -1.7892
  109OSM    C9S11205   2.905   5.447  10.079  0.5513 -0.1292  1.1987
  109OSM    H9S11206   2.875   5.552  10.055 -2.3985 -1.0085  0.6233
  109OSM    H9T11207   2.818   5.378  10.086  1.5478 -1.5610  0.0619
  109OSM   C10S11208   2.991   5.397   9.963  0.4240  0.1286 -0.1770
  109OSM   H10S11209   3.031   5.301  10.000  2.3484  0.5029 -1.1497
  109OSM   H10T11210   3.081   5.458   9.936  0.1034  0.3628 -0.7346
  109OSM   C11S11211   2.918   5.378   9.834  0.1762 -0.2318 -0.1477
  109OSM   H11S11212   2.884   5.477   9.796  1.4742 -0.5692 -2.3376
  109OSM   H11T11213   2.825   5.317   9.841 -0.7847  0.9988 -1.5490
  109OSM   C12S11214   3.012   5.324   9.720  0.2611 -0.4179 -0.8196
  109OSM   H12S11215   3.042   5.225   9.761 -5.3218 -1.1815  2.4678
  109OSM   H12T11216   3.098   5.393   9.715 -1.5414  2.0651  0.2342
  109OSM   C13S11217   2.934   5.289   9.592 -0.2670  0.9659 -0.6913
  109OSM   H13S11218   2.930   5.374   9.521  0.8736  0.9494 -0.8010
  109OSM   H13T11219   2.827   5.264   9.604  0.2338 -0.6715  0.8551
  109OSM   C14S11220   2.995   5.169   9.509 -0.0584  0.2675 -0.4104
  109OSM   H14S11221   2.998   5.077   9.572  1.0059 -0.3145 -1.2848
  109OSM   H14T11222   3.099   5.203   9.490  0.2917 -0.7973 -0.4722
  109OSM   C15S11223   2.917   5.138   9.385  0.0289 -0.5359  0.3396
  109OSM   H15S11224   2.921   5.227   9.318  0.9338 -0.6771  0.1873
  109OSM   H15T11225   2.811   5.126   9.413 -0.4837 -0.3019 -1.3870
  109OSM   C16S11226   2.977   5.022   9.303  0.1570  0.4416  0.7909
  109OSM   H16S11227   3.085   5.038   9.280 -0.0359  1.7510  0.7373
  109OSM   H16T11228   2.915   5.028   9.211  1.9987 -0.6616 -0.6035
  109OSM   C17S11229   2.970   4.886   9.364 -0.3341  0.0005  0.0584
  109OSM   H17S11230   2.868   4.860   9.400 -0.4684  0.2205 -0.1655
  109OSM   H17T11231   3.017   4.896   9.464  1.4015  0.8293 -0.7852
  109OSM   C18S11232   3.020   4.779   9.279  0.4472  0.2963  0.3266
  109OSM   H18S11233   2.978   4.782   9.176  2.4824  1.1515 -0.5335
  109OSM   H18T11234   2.979   4.688   9.328 -2.5966  0.6265 -1.3466
  109OSM   H18U11235   3.130   4.778   9.270  0.3986  1.2324 -0.4574
  109OSM    C1F11236   2.780   6.001  10.498 -0.0968  0.0360 -0.3612
  109OSM     OF11237   2.848   6.018  10.603  1.6294  0.3198  0.2526
  109OSM    C2F11238   2.801   6.088  10.376  0.3615  0.7632  0.4300
  109OSM    H2F11239   2.809   6.196  10.400 -2.3023  0.7789  1.4801
  109OSM    H2G11240   2.710   6.068  10.316  1.5874  1.2084 -1.7100
  109OSM    C3F11241   2.924   6.040  10.296 -0.1186 -0.4801  0.5408
  109OSM    H3F11242   3.011   6.081  10.353  0.4327 -2.0029  0.8501
  109OSM    H3G11243   2.906   6.086  10.197 -1.3716  2.5699  2.0557
  109OSM    C4F11244   2.941   5.885  10.286 -0.3235 -0.4976 -0.0100
  109OSM    H4F11245   2.842   5.836  10.278 -1.2288  0.5794  3.0067
  109OSM    H4G11246   2.971   5.848  10.386 -1.1605  1.5499  1.0619
  109OSM    C5F11247   3.051   5.838  10.186 -0.6913 -0.3713  0.7640
  109OSM    H5F11248   3.109   5.750  10.222  0.5147  0.2582  0.4265
  109OSM    H5G11249   3.124   5.922  10.198  0.3376 -1.0418 -0.5415
  109OSM    C6F11250   3.011   5.833  10.040  0.3032  0.0573  0.5213
  109OSM    H6F11251   2.977   5.936  10.013  0.6588 -0.4065 -1.9541
  109OSM    H6G11252   2.923   5.767  10.024  0.7260 -0.4337  0.2145
  109OSM    C7F11253   3.130   5.799   9.937  0.4925  0.1317 -0.3693
  109OSM    H7F11254   3.169   5.696   9.948  2.4574  0.7895 -0.5985
  109OSM    H7G11255   3.218   5.866   9.950 -0.5083  1.0254  2.7701
  109OSM    C8F11256   3.076   5.823   9.801 -0.4923  0.1374  0.7756
  109OSM    H8F11257   3.048   5.930   9.796  2.2682  0.9551  1.4941
  109OSM    H8G11258   2.980   5.770   9.784 -1.1993  2.2321 -2.8717
  109OSM    C9F11259   3.183   5.803   9.688 -0.2195  0.2525  0.1755
  109OSM    H9F11260   3.271   5.744   9.720 -0.9844 -1.0544 -0.0664
  109OSM   C10F11261   3.176   5.833   9.557 -1.1561 -0.4752  0.1695
  109OSM   H10F11262   3.251   5.785   9.493 -1.4410 -2.8562  1.5185
  109OSM   C11F11263   3.064   5.910   9.493 -0.2451  0.2191  0.4067
  109OSM   H11F11264   3.029   5.999   9.550 -2.7071 -0.3956 -0.0410
  109OSM   H11G11265   2.979   5.839   9.498 -0.4718  0.4178 -0.4808
  109OSM   C12F11266   3.085   5.966   9.353  0.2476  0.6682 -0.1065
  109OSM   H12F11267   3.172   6.035   9.349  0.1691  0.7124 -1.1223
  109OSM   H12G11268   3.000   6.031   9.325 -0.6750 -0.1404  0.7295
  109OSM   C13F11269   3.088   5.850   9.254 -0.0585 -0.2363  0.5820
  109OSM   H13F11270   2.997   5.786   9.253  0.4878 -1.0301  0.0905
  109OSM   H13G11271   3.164   5.778   9.290 -1.1692 -1.7980 -0.0685
  109OSM   C14F11272   3.128   5.895   9.108 -0.5684  0.0781 -0.3998
  109OSM   H14F11273   3.216   5.964   9.110 -0.5092  0.0397 -1.2776
  109OSM   H14G11274   3.046   5.951   9.059 -2.1358  1.2234  3.2018
  109OSM   C15F11275   3.184   5.774   9.026  0.3439 -0.0790  0.0601
  109OSM   H15F11276   3.260   5.719   9.085 -1.4438 -2.8515 -0.0751
  109OSM   H15G11277   3.233   5.806   8.932  0.2272 -0.1217 -0.0154
  109OSM   C16F11278   3.071   5.675   8.988  0.2749  0.1427  0.2907
  109OSM   H16F11279   2.988   5.726   8.935  0.1209 -0.4940 -0.0853
  109OSM   H16G11280   3.035   5.624   9.080 -0.7823 -0.2405 -0.3320
  109OSM   C17F11281   3.131   5.571   8.888 -0.4586 -0.1748 -0.2510
  109OSM   H17F11282   3.193   5.503   8.950 -0.8219  1.8222  2.4550
  109OSM   H17G11283   3.189   5.623   8.808  2.3561 -1.4391  0.8260
  109OSM   C18F11284   3.024   5.487   8.817  0.3461  0.1342  0.4691
  109OSM   H18F11285   2.949   5.552   8.768 -3.4657 -3.0665  1.5604
  109OSM   H18G11286   2.970   5.423   8.890  0.3001 -0.6705 -0.2531
  109OSM   H18H11287   3.062   5.421   8.736  0.7476  1.9963 -0.9418
  110OSM      N11288   5.674   5.430  10.769  0.0608  0.4954 -0.6320
  110OSM    C1511289   5.588   5.439  10.649  0.1993 -1.3657  0.2148
  110OSM   H15A11290   5.645   5.442  10.557  1.9063  0.8598  1.2397
  110OSM   H15B11291   5.538   5.534  10.652 -0.2052 -1.5656 -0.1083
  110OSM   H15C11292   5.516   5.359  10.648  0.9434 -2.1652  2.7960
  110OSM    C1411293   5.729   5.293  10.779 -0.4409 -0.4498  0.1562
  110OSM   H14A11294   5.663   5.208  10.785 -0.0191 -0.6960  1.7746
  110OSM   H14B11295   5.792   5.281  10.866 -0.7377 -2.5396  0.1446
  110OSM   H14C11296   5.788   5.270  10.692  1.4659 -1.2516  1.6077
  110OSM    C1311297   5.781   5.533  10.753  0.7207  0.6756  0.5003
  110OSM   H13A11298   5.833   5.528  10.847 -2.8385  1.1155  2.7015
  110OSM   H13B11299   5.734   5.626  10.728  0.7625  0.2826 -1.1341
  110OSM   H13C11300   5.858   5.510  10.681  1.6964  0.3908  1.5903
  110OSM    C1211301   5.594   5.452  10.899 -0.4188  0.1704  0.2851
  110OSM   H12A11302   5.583   5.559  10.903  0.9084  0.2901  3.0143
  110OSM   H12B11303   5.666   5.445  10.979  1.8436  3.3897 -1.2347
  110OSM    C1111304   5.461   5.367  10.919 -0.0608  0.2286  0.1764
  110OSM   H11A11305   5.419   5.387  11.020  0.7137  1.6381  0.2575
  110OSM   H11B11306   5.488   5.260  10.909  2.1433  0.3319  3.2900
  110OSM      P11307   5.270   5.519  10.823  0.6886 -0.0678  0.1338
  110OSM    O1311308   5.172   5.469  10.922 -0.1389 -0.0271 -0.1104
  110OSM    O1411309   5.343   5.643  10.865  0.0823 -0.4710  0.3767
  110OSM    O1111310   5.206   5.530  10.678 -0.3013 -0.3656 -0.1925
  110OSM    O1211311   5.368   5.392  10.811  0.0129  0.6743 -0.1039
  110OSM    C1S11312   5.079   5.501  10.620  0.7254  0.1493  0.4519
  110OSM    H1S11313   4.995   5.544  10.678 -1.6476 -0.9263 -1.9815
  110OSM    H1T11314   5.078   5.390  10.631  2.0526  0.1236  0.4779
  110OSM     NF11315   4.936   5.515  10.422  0.3341  0.4789 -0.0605
  110OSM    HNF11316   4.926   5.435  10.364  2.6742  1.4125 -1.9614
  110OSM    C2S11317   5.068   5.550  10.472 -0.3123 -0.2409 -0.3149
  110OSM    H2S11318   5.084   5.659  10.478  3.3792 -0.7150  1.0901
  110OSM    C3S11319   5.185   5.489  10.393 -0.2616  0.1828  0.5681
  110OSM    H3S11320   5.175   5.378  10.395  0.1819  0.0847  3.7830
  110OSM     O311321   5.315   5.513  10.441  0.1357  0.1751 -0.1910
  110OSM    HO311322   5.306   5.527  10.535  0.2743  1.9229 -0.3944
  110OSM    C4S11323   5.179   5.552  10.260  0.8297  0.4297  0.1147
  110OSM    H4S11324   5.177   5.662  10.264  3.0179  0.5252 -0.1792
  110OSM    C5S11325   5.152   5.493  10.141 -0.8443  0.1541 -0.4818
  110OSM    H5S11326   5.133   5.385  10.148 -1.0488  0.2395  0.3262
  110OSM    C6S11327   5.146   5.559  10.006  0.6032 -1.0785 -0.3035
  110OSM    H6S11328   5.201   5.656  10.001 -0.5999 -0.3753 -0.1747
  110OSM    H6T11329   5.038   5.567   9.983  0.1657  1.5612  2.0406
  110OSM    C7S11330   5.219   5.477   9.906 -0.5864  0.3834 -0.1499
  110OSM    H7S11331   5.167   5.378   9.901 -2.2920  1.0116  2.8156
  110OSM    H7T11332   5.327   5.457   9.923 -0.4772 -1.1533 -2.2173
  110OSM    C8S11333   5.224   5.536   9.770 -0.3176  0.2787  0.9903
  110OSM    H8S11334   5.269   5.637   9.782 -1.4907  0.9723 -0.1980
  110OSM    H8T11335   5.117   5.538   9.741  0.4033 -0.4318 -2.0725
  110OSM    C9S11336   5.297   5.450   9.664  0.3596 -0.1620 -0.0503
  110OSM    H9S11337   5.249   5.350   9.672 -0.7818  0.2622 -1.3467
  110OSM    H9T11338   5.404   5.443   9.695  0.1408  0.2262  0.8101
  110OSM   C10S11339   5.282   5.498   9.522  0.1757  0.0323 -0.5261
  110OSM   H10S11340   5.353   5.441   9.458  2.0543  1.6606 -0.0219
  110OSM   H10T11341   5.325   5.600   9.512 -0.5620  0.2416 -1.7481
  110OSM   C11S11342   5.133   5.498   9.466 -0.5833 -0.4674  0.1795
  110OSM   H11S11343   5.056   5.552   9.526 -0.3254  1.7052 -1.3319
  110OSM   H11T11344   5.107   5.390   9.463  1.3475 -0.9694  0.3945
  110OSM   C12S11345   5.129   5.555   9.327  0.2611 -0.2652 -0.3650
  110OSM   H12S11346   5.215   5.512   9.272  1.9624  2.7504 -0.3044
  110OSM   H12T11347   5.148   5.665   9.329 -0.6862 -0.0988  0.0828
  110OSM   C13S11348   5.004   5.523   9.243  0.7347  0.6056 -0.9429
  110OSM   H13S11349   4.916   5.540   9.309  1.5621  1.8913 -0.1316
  110OSM   H13T11350   5.002   5.415   9.219  2.9965  0.3369 -0.1487
  110OSM   C14S11351   4.980   5.606   9.115  0.2675 -0.1334 -0.3490
  110OSM   H14S11352   5.074   5.599   9.057  1.7498  0.0953  1.8735
  110OSM   H14T11353   4.960   5.714   9.134  2.6735  0.6098 -1.5844
  110OSM   C15S11354   4.866   5.554   9.025  0.6535  0.4933 -0.0720
  110OSM   H15S11355   4.775   5.540   9.087  2.2284  2.1217  2.8042
  110OSM   H15T11356   4.907   5.458   8.985  0.3831  1.5352 -3.1514
  110OSM   C16S11357   4.848   5.639   8.906 -0.3342  0.1794 -0.5049
  110OSM   H16S11358   4.941   5.638   8.846  1.0950  3.3870  1.3803
  110OSM   H16T11359   4.826   5.745   8.934 -0.2911 -0.3516  1.7402
  110OSM   C17S11360   4.745   5.585   8.813 -0.2649  1.3504  0.5515
  110OSM   H17S11361   4.751   5.474   8.819  0.3672  1.3832  0.5231
  110OSM   H17T11362   4.768   5.619   8.710  0.2684 -0.1959  0.1229
  110OSM   C18S11363   4.599   5.641   8.840 -0.0440  0.6115  0.2587
  110OSM   H18S11364   4.565   5.605   8.940  0.0956 -0.0789  0.0645
  110OSM   H18T11365   4.539   5.610   8.752 -0.3900 -0.0027  0.7040
  110OSM   H18U11366   4.612   5.751   8.836 -2.6333  1.0121  0.9212
  110OSM    C1F11367   4.831   5.580  10.473  0.2186 -0.6030  1.0299
  110OSM     OF11368   4.840   5.688  10.528 -0.0985 -0.1948  0.5712
  110OSM    C2F11369   4.691   5.523  10.453 -0.3190  0.2344  0.5150
  110OSM    H2F11370   4.626   5.565  10.532 -1.3267 -0.8023  0.2531
  110OSM    H2G11371   4.700   5.413  10.463 -0.5070  0.0439 -1.0773
  110OSM    C3F11372   4.625   5.552  10.315 -0.0713  0.0021  0.1574
  110OSM    H3F11373   4.599   5.660  10.317 -0.4302 -0.0570  2.8416
  110OSM    H3G11374   4.522   5.509  10.312 -1.2000  2.5636 -1.0798
  110OSM    C4F11375   4.699   5.518  10.191  0.3476  0.2917 -0.4954
  110OSM    H4F11376   4.730   5.411  10.191 -2.1526 -0.5073  0.1804
  110OSM    H4G11377   4.788   5.585  10.191 -0.3440  1.2629  0.9730
  110OSM    C5F11378   4.610   5.522  10.066 -0.1426  0.3253  0.1495
  110OSM    H5F11379   4.599   5.627  10.032 -0.5751  0.2595  0.0696
  110OSM    H5G11380   4.509   5.489  10.100  0.3511  0.7790  2.1878
  110OSM    C6F11381   4.643   5.439   9.944  0.1910  0.5538  0.3066
  110OSM    H6F11382   4.566   5.470   9.871  0.1383 -2.3512 -1.0087
  110OSM    H6G11383   4.622   5.334   9.974  0.6538  0.6510  0.9824
  110OSM    C7F11384   4.793   5.453   9.903 -0.7949 -0.5223 -0.4376
  110OSM    H7F11385   4.862   5.446   9.990 -0.3364  1.3106 -0.6132
  110OSM    H7G11386   4.810   5.553   9.858 -0.1316  0.4495  1.8488
  110OSM    C8F11387   4.854   5.354   9.801  0.2999  0.4700 -0.0900
  110OSM    H8F11388   4.948   5.392   9.756  1.0922 -0.4674  0.7000
  110OSM    H8G11389   4.783   5.344   9.717  0.8060  1.1874 -0.6145
  110OSM    C9F11390   4.872   5.215   9.864 -0.2107 -0.0989  0.0255
  110OSM    H9F11391   4.891   5.222   9.972  0.9853 -0.5562 -0.1302
  110OSM   C10F11392   4.882   5.098   9.794 -0.0801 -0.5727  0.3985
  110OSM   H10F11393   4.891   5.003   9.850 -0.3977 -0.9564 -0.1889
  110OSM   C11F11394   4.865   5.082   9.645  0.0317 -0.3142  0.8249
  110OSM   H11F11395   4.809   5.162   9.592  0.1948 -2.9638 -3.7582
  110OSM   H11G11396   4.798   4.998   9.618  0.7738 -1.3296  2.0281
  110OSM   C12F11397   4.993   5.066   9.567 -1.6229  0.4927  0.2321
  110OSM   H12F11398   5.057   4.983   9.605  1.2778  1.7588 -1.5596
  110OSM   H12G11399   5.054   5.158   9.581  0.4961 -0.7841 -0.0908
  110OSM   C13F11400   4.980   5.044   9.413 -0.7697  0.8115 -0.4317
  110OSM   H13F11401   4.927   5.134   9.374 -0.6336  0.4059 -1.5970
  110OSM   H13G11402   4.909   4.962   9.390 -0.2891 -0.5258  2.4658
  110OSM   C14F11403   5.114   5.018   9.341  0.7831  0.2346 -0.3675
  110OSM   H14F11404   5.182   4.937   9.375 -0.4924 -0.5915  0.2800
  110OSM   H14G11405   5.183   5.099   9.374  2.0450 -0.3111 -1.5453
  110OSM   C15F11406   5.097   5.004   9.194 -0.4499  0.0538 -0.0863
  110OSM   H15F11407   5.049   5.096   9.155 -3.0343 -0.5497  1.4230
  110OSM   H15G11408   5.032   4.916   9.171  0.5997 -1.0682  1.0787
  110OSM   C16F11409   5.232   4.980   9.123  0.3847 -0.3007 -0.4995
  110OSM   H16F11410   5.223   4.931   9.023 -0.0468  0.7665 -0.9979
  110OSM   H16G11411   5.280   4.896   9.177  1.0521 -0.3518 -1.1492
  110OSM   C17F11412   5.320   5.103   9.117  0.2494 -1.3960 -0.1063
  110OSM   H17F11413   5.420   5.067   9.084 -0.2371 -0.3786 -3.0926
  110OSM   H17G11414   5.317   5.133   9.223  1.0874  2.1213 -0.9425
  110OSM   C18F11415   5.274   5.225   9.033  0.0283  0.4592 -0.4618
  110OSM   H18F11416   5.285   5.211   8.924 -1.7974 -0.4251 -0.5723
  110OSM   H18G11417   5.315   5.324   9.062 -1.3807  0.2554  2.6504
  110OSM   H18H11418   5.164   5.237   9.043 -0.3178 -1.7110 -1.1703
  111OSM      N11419   5.425   3.882  10.470 -0.1274  0.3838 -0.5308
  111OSM    C1511420   5.335   3.758  10.470  0.3367  0.1855 -0.3204
  111OSM   H15A11421   5.261   3.763  10.391  0.7775 -0.1967 -0.7601
  111OSM   H15B11422   5.289   3.741  10.566  2.6689 -3.1168  0.3504
  111OSM   H15C11423   5.395   3.674  10.440  0.4348  0.4132 -0.7807
  111OSM    C1411424   5.535   3.863  10.567  0.8047 -0.0829 -0.6028
  111OSM   H14A11425   5.599   3.949  10.564  1.5302 -0.5325  1.0227
  111OSM   H14B11426   5.597   3.783  10.530  0.9488 -0.0924 -0.3417
  111OSM   H14C11427   5.517   3.851  10.673 -0.0833  0.4889 -0.6790
  111OSM    C1311428   5.500   3.906  10.349 -0.5271 -0.0552  0.2064
  111OSM   H13A11429   5.438   3.927  10.263 -0.7193  1.4505  0.6835
  111OSM   H13B11430   5.566   3.828  10.317  2.1448  2.5696 -1.1650
  111OSM   H13C11431   5.563   3.994  10.358  0.6369 -0.9356  0.9887
  111OSM    C1211432   5.335   4.004  10.497 -0.0776  1.1842  0.4054
  111OSM   H12A11433   5.390   4.094  10.522 -1.4688  2.5301 -1.1323
  111OSM   H12B11434   5.271   3.975  10.578 -0.4942 -1.2198 -0.7080
  111OSM    C1111435   5.240   4.042  10.377  0.1452  0.2802 -0.6335
  111OSM   H11A11436   5.181   3.952  10.351  1.4397 -1.5506  2.1637
  111OSM   H11B11437   5.303   4.059  10.287  0.2932  1.3235 -0.3465
  111OSM      P11438   5.041   4.160  10.515 -0.0760  0.3941 -0.1990
  111OSM    O1311439   5.048   4.046  10.609 -0.2084 -0.2509  0.2199
  111OSM    O1411440   5.032   4.297  10.568 -0.6991 -0.5689  0.0176
  111OSM    O1111441   4.906   4.152  10.437  0.0387 -0.4255  1.0646
  111OSM    O1211442   5.156   4.157  10.408 -0.4409  0.0567 -0.3559
  111OSM    C1S11443   4.895   4.225  10.308 -0.0297  0.3098 -0.2656
  111OSM    H1S11444   4.965   4.173  10.241  1.4967 -1.0632  2.2282
  111OSM    H1T11445   4.920   4.332  10.323 -0.5895  0.6260 -1.5036
  111OSM     NF11446   4.759   4.296  10.123  0.4894 -0.0998  0.1142
  111OSM    HNF11447   4.741   4.393  10.138 -3.0361 -0.5449 -0.5666
  111OSM    C2S11448   4.752   4.226  10.254 -0.1943  0.2916  0.0669
  111OSM    H2S11449   4.709   4.124  10.242 -2.4407  1.2256 -0.2290
  111OSM    C3S11450   4.660   4.295  10.358  0.1421 -0.6200 -0.7604
  111OSM    H3S11451   4.692   4.399  10.381  1.1623 -0.9023 -0.8535
  111OSM     O311452   4.650   4.224  10.487  0.6988  0.0967 -0.6822
  111OSM    HO311453   4.741   4.201  10.507  1.2145  0.5932 -2.3002
  111OSM    C4S11454   4.522   4.306  10.296  0.5897 -0.3914  0.5748
  111OSM    H4S11455   4.510   4.388  10.224 -0.1422 -1.0684 -0.1002
  111OSM    C5S11456   4.429   4.211  10.301 -0.0048  0.9619 -0.1965
  111OSM    H5S11457   4.446   4.113  10.349 -0.7665  0.6266 -0.5897
  111OSM    C6S11458   4.302   4.211  10.219  0.2358  0.5074  0.2438
  111OSM    H6S11459   4.212   4.231  10.282 -1.5632 -1.9812 -1.3746
  111OSM    H6T11460   4.278   4.117  10.165 -1.4047  1.9354 -1.6748
  111OSM    C7S11461   4.294   4.310  10.097  0.3600 -0.3922  0.0831
  111OSM    H7S11462   4.298   4.414  10.137 -1.8629  0.1188 -0.8798
  111OSM    H7T11463   4.192   4.305  10.051  0.2572  0.7580  0.1463
  111OSM    C8S11464   4.396   4.285   9.980 -0.2664  0.2585 -0.2152
  111OSM    H8S11465   4.383   4.181   9.944 -2.8708  0.5698 -0.3754
  111OSM    H8T11466   4.498   4.291  10.023 -0.6075 -0.1857  0.6860
  111OSM    C9S11467   4.371   4.370   9.858 -0.0587  0.4049 -0.4022
  111OSM    H9S11468   4.423   4.461   9.897  3.4947 -0.9607 -1.5366
  111OSM    H9T11469   4.262   4.391   9.850 -0.8624 -2.3609  1.7339
  111OSM   C10S11470   4.431   4.337   9.721 -0.2587  0.1473 -0.1640
  111OSM   H10S11471   4.396   4.238   9.685 -2.6288  0.9113 -0.0960
  111OSM   H10T11472   4.541   4.333   9.736 -0.1298 -1.5803 -1.3246
  111OSM   C11S11473   4.391   4.443   9.612  0.0361  0.1508 -0.5585
  111OSM   H11S11474   4.281   4.457   9.619  0.1180  0.2389  4.8199
  111OSM   H11T11475   4.431   4.403   9.516  0.4947 -0.8331  0.0181
  111OSM   C12S11476   4.453   4.580   9.626  0.4919 -0.3969  0.6238
  111OSM   H12S11477   4.436   4.618   9.729  0.6540  0.6938  0.2626
  111OSM   H12T11478   4.403   4.647   9.553  2.7759 -2.0239 -2.6765
  111OSM   C13S11479   4.607   4.589   9.592  0.2284  0.1136  0.1706
  111OSM   H13S11480   4.621   4.565   9.485  0.1288  1.1055 -0.0741
  111OSM   H13T11481   4.661   4.508   9.646  2.9227  0.6687 -1.5238
  111OSM   C14S11482   4.672   4.719   9.640 -0.0239 -0.1337  0.6603
  111OSM   H14S11483   4.615   4.780   9.714  0.9517 -1.4277  2.5721
  111OSM   H14T11484   4.681   4.777   9.545 -1.6941  0.2722  0.7169
  111OSM   C15S11485   4.812   4.695   9.684 -1.0555 -0.0787 -0.5421
  111OSM   H15S11486   4.804   4.604   9.748 -0.4614 -0.6778 -1.3003
  111OSM   H15T11487   4.848   4.787   9.735 -3.2078  0.8420 -0.5526
  111OSM   C16S11488   4.905   4.666   9.569  0.2432 -0.6601 -0.5768
  111OSM   H16S11489   4.892   4.754   9.502  0.1283 -0.5241 -0.3777
  111OSM   H16T11490   4.871   4.569   9.527  2.1132 -2.3238  1.5436
  111OSM   C17S11491   5.050   4.642   9.621  0.2653  0.2879  0.8700
  111OSM   H17S11492   5.064   4.560   9.694  2.7680  1.0312  1.3174
  111OSM   H17T11493   5.098   4.727   9.673  5.1064 -1.3217 -0.4264
  111OSM   C18S11494   5.149   4.615   9.503 -0.4803  0.5128 -0.2658
  111OSM   H18S11495   5.119   4.529   9.440  0.7360 -0.7669  0.8426
  111OSM   H18T11496   5.247   4.610   9.555 -0.1317 -0.3677 -0.9923
  111OSM   H18U11497   5.162   4.702   9.435  1.5380 -0.6795 -1.4949
  111OSM    C1F11498   4.804   4.231  10.015 -0.9584 -0.3492  0.5114
  111OSM     OF11499   4.804   4.111  10.013 -0.1166 -0.3578 -0.0840
  111OSM    C2F11500   4.855   4.311   9.905  0.5259 -0.2689  0.7993
  111OSM    H2F11501   4.959   4.338   9.929  0.0365  1.9272  0.6299
  111OSM    H2G11502   4.786   4.398   9.896 -0.8960 -1.5426 -2.1621
  111OSM    C3F11503   4.859   4.224   9.773  0.0852  0.1045 -0.6866
  111OSM    H3F11504   4.762   4.176   9.748  0.7104 -2.8992  1.9835
  111OSM    H3G11505   4.930   4.140   9.785  1.3062  1.3965  2.1201
  111OSM    C4F11506   4.904   4.287   9.644 -0.0726  0.0866 -0.0998
  111OSM    H4F11507   4.992   4.352   9.664 -1.1553  1.5344  0.0546
  111OSM    H4G11508   4.827   4.354   9.603  0.8895  1.7901  0.7712
  111OSM    C5F11509   4.942   4.192   9.532 -0.1839  0.3456 -0.4079
  111OSM    H5F11510   4.869   4.109   9.531 -2.6552  2.3285  1.3511
  111OSM    H5G11511   5.040   4.151   9.563  0.0408  1.7920  0.9390
  111OSM    C6F11512   4.953   4.260   9.391 -0.0766 -0.1290  1.0224
  111OSM    H6F11513   4.991   4.188   9.315 -0.6873 -0.9746  1.4912
  111OSM    H6G11514   5.040   4.327   9.402 -0.9574  1.1663  0.2695
  111OSM    C7F11515   4.832   4.332   9.327 -0.3258  0.3517  0.0145
  111OSM    H7F11516   4.788   4.396   9.406  0.6991 -0.6618  1.4631
  111OSM    H7G11517   4.764   4.248   9.300 -2.1692  1.6171  0.4824
  111OSM    C8F11518   4.859   4.418   9.200  0.1668  0.3325  0.4766
  111OSM    H8F11519   4.924   4.352   9.139  0.7251  0.5964  0.7736
  111OSM    H8G11520   4.921   4.506   9.230 -0.0838 -0.2898  3.1156
  111OSM    C9F11521   4.732   4.443   9.124 -0.0199  0.0408 -0.2871
  111OSM    H9F11522   4.702   4.357   9.062  0.0475  0.2078 -0.5539
  111OSM   C10F11523   4.661   4.554   9.118 -0.0709 -0.7771  0.1016
  111OSM   H10F11524   4.575   4.556   9.049 -1.4943 -2.4162  1.7480
  111OSM   C11F11525   4.678   4.689   9.183 -0.0944  1.1066 -0.5866
  111OSM   H11F11526   4.725   4.760   9.112  0.4915  0.4991 -0.8151
  111OSM   H11G11527   4.751   4.673   9.265  1.8522  0.5690 -2.3382
  111OSM   C12F11528   4.553   4.749   9.246  0.7136 -0.7967 -0.1524
  111OSM   H12F11529   4.592   4.835   9.305  1.0114 -0.8648 -0.2494
  111OSM   H12G11530   4.492   4.692   9.320  0.7113  1.0404  1.3339
  111OSM   C13F11531   4.469   4.803   9.122 -0.4701  0.0818 -1.2264
  111OSM   H13F11532   4.428   4.715   9.067 -1.6301  0.3745 -0.8581
  111OSM   H13G11533   4.537   4.847   9.046  2.1543 -1.1643  0.2693
  111OSM   C14F11534   4.355   4.901   9.167  0.2909 -0.0203  0.2400
  111OSM   H14F11535   4.399   4.979   9.234 -2.5470  1.1823  0.8283
  111OSM   H14G11536   4.281   4.850   9.232 -0.6037  2.6559  1.4843
  111OSM   C15F11537   4.287   4.974   9.039 -0.2774  0.7920 -0.6813
  111OSM   H15F11538   4.368   5.029   8.986 -1.4520  0.1070 -3.3605
  111OSM   H15G11539   4.205   5.036   9.080 -0.8848 -1.3529  1.5282
  111OSM   C16F11540   4.234   4.870   8.940  0.6853 -0.2397 -0.7647
  111OSM   H16F11541   4.164   4.801   8.992  0.6587 -1.5465 -2.4326
  111OSM   H16G11542   4.313   4.808   8.894  0.4072 -1.0441 -0.1697
  111OSM   C17F11543   4.154   4.931   8.832 -0.2333 -0.7424 -0.0601
  111OSM   H17F11544   4.220   5.019   8.814  0.7283 -1.6997 -1.3836
  111OSM   H17G11545   4.055   4.963   8.869 -0.3930 -0.7588 -0.4724
  111OSM   C18F11546   4.133   4.833   8.715  0.4585 -0.3239 -0.3632
  111OSM   H18F11547   4.227   4.778   8.693  0.8613  0.3500 -0.3474
  111OSM   H18G11548   4.111   4.886   8.620  1.6091  1.1096  0.1264
  111OSM   H18H11549   4.051   4.760   8.735  0.8543 -1.2871 -2.0846
  112OSM      N11550   2.157   2.060  10.822 -0.0734 -0.8054 -0.1965
  112OSM    C1511551   2.199   2.173  10.733  0.7430 -0.0614 -0.0610
  112OSM   H15A11552   2.133   2.194  10.650 -0.2549 -1.0140  0.4643
  112OSM   H15B11553   2.302   2.162  10.704  1.1382  3.8086 -0.6422
  112OSM   H15C11554   2.212   2.262  10.793 -1.8556  0.9824 -0.9084
  112OSM    C1411555   2.254   2.055  10.934 -0.7123 -0.1011 -0.5908
  112OSM   H14A11556   2.244   1.960  10.985  0.4267 -1.3913 -2.6342
  112OSM   H14B11557   2.236   2.128  11.011  1.9759 -0.5832  0.6249
  112OSM   H14C11558   2.360   2.058  10.909 -0.7017 -1.9518 -0.9734
  112OSM    C1311559   2.023   2.086  10.885  0.0994  0.4397  0.4697
  112OSM   H13A11560   1.947   2.108  10.811 -0.5541 -0.4520  0.8525
  112OSM   H13B11561   2.036   2.174  10.946  0.6743  0.0064  0.9899
  112OSM   H13C11562   1.987   2.002  10.943 -0.7924  1.4920  1.4851
  112OSM    C1211563   2.166   1.929  10.744  0.3640  0.4279  0.4121
  112OSM   H12A11564   2.134   1.860  10.820  0.7712  0.6660  0.8046
  112OSM   H12B11565   2.268   1.915  10.714 -0.3851 -4.5137 -0.5529
  112OSM    C1111566   2.064   1.919  10.634 -0.4447  0.2619  0.7081
  112OSM   H11A11567   2.086   1.848  10.553 -0.4337  0.4735  0.5238
  112OSM   H11B11568   2.059   2.016  10.580 -0.7357 -1.3052 -2.2577
  112OSM      P11569   1.805   1.952  10.640 -0.1632 -0.1176  0.2143
  112OSM    O1311570   1.700   1.888  10.723 -0.1890  0.1195  0.3621
  112OSM    O1411571   1.833   2.101  10.656 -0.2827 -0.6303  0.2787
  112OSM    O1111572   1.789   1.907  10.488 -0.2809  0.5198 -0.0445
  112OSM    O1211573   1.940   1.878  10.677  0.7205  0.2557 -0.5226
  112OSM    C1S11574   1.762   1.767  10.456 -0.5897  0.2846 -0.8469
  112OSM    H1S11575   1.683   1.724  10.522 -1.8232  0.1819 -2.3248
  112OSM    H1T11576   1.852   1.706  10.476 -1.4801 -1.4234 -1.8159
  112OSM     NF11577   1.708   1.620  10.273  0.6711 -0.6035 -0.0691
  112OSM    HNF11578   1.769   1.591  10.199  0.4315  2.1382 -1.4674
  112OSM    C2S11579   1.729   1.759  10.309  0.3595  0.6137  0.4194
  112OSM    H2S11580   1.629   1.801  10.283 -0.0097 -1.6386 -2.2608
  112OSM    C3S11581   1.833   1.827  10.216  0.6716  0.2212 -0.2676
  112OSM    H3S11582   1.932   1.777  10.218  1.6187  1.9970 -0.5035
  112OSM     O311583   1.856   1.967  10.250 -0.6258  0.2674  0.5340
  112OSM    HO311584   1.822   1.981  10.338 -2.9098  0.1280 -0.2496
  112OSM    C4S11585   1.799   1.818  10.067  0.0940  0.1470  0.6968
  112OSM    H4S11586   1.853   1.734  10.020 -0.0625  1.1021 -1.2895
  112OSM    C5S11587   1.739   1.907   9.992  0.8028 -0.3156  0.0328
  112OSM    H5S11588   1.688   1.991  10.042 -0.7214 -0.3633 -1.3536
  112OSM    C6S11589   1.714   1.893   9.842  0.0016  0.2884 -0.1412
  112OSM    H6S11590   1.621   1.832   9.832  0.3472 -0.1752 -0.5068
  112OSM    H6T11591   1.807   1.845   9.807  0.6922  0.1015  1.8305
  112OSM    C7S11592   1.681   2.020   9.765  0.3240  0.7992 -0.2058
  112OSM    H7S11593   1.761   2.097   9.768 -0.4913  1.7134  4.4747
  112OSM    H7T11594   1.595   2.070   9.814 -0.7080 -0.5081 -0.6392
  112OSM    C8S11595   1.646   1.982   9.624 -0.4125  0.0904 -0.6719
  112OSM    H8S11596   1.605   2.072   9.573  1.0309  0.6865 -0.8427
  112OSM    H8T11597   1.565   1.907   9.634  0.9759 -1.4892 -0.8341
  112OSM    C9S11598   1.750   1.926   9.528 -0.9137  0.4512  0.1062
  112OSM    H9S11599   1.782   1.828   9.569 -1.4590 -0.5317 -1.7135
  112OSM    H9T11600   1.837   1.994   9.538 -0.0316  0.1901 -4.0602
  112OSM   C10S11601   1.702   1.910   9.383 -0.2216  0.0873  0.3814
  112OSM   H10S11602   1.671   2.008   9.342  2.3604  1.2134  0.9539
  112OSM   H10T11603   1.610   1.849   9.372 -0.0967 -0.0938  0.3344
  112OSM   C11S11604   1.806   1.858   9.282  0.5571  0.5189 -0.3712
  112OSM   H11S11605   1.892   1.927   9.275  0.0801  1.7667  3.6780
  112OSM   H11T11606   1.763   1.872   9.180  2.1314  3.2728 -0.7554
  112OSM   C12S11607   1.856   1.721   9.318 -0.7476  0.2161 -0.3918
  112OSM   H12S11608   1.771   1.657   9.349  0.5427 -1.3681  0.0405
  112OSM   H12T11609   1.918   1.728   9.410 -1.5528  0.0203  0.1786
  112OSM   C13S11610   1.929   1.647   9.202 -0.0906 -0.5281  0.2585
  112OSM   H13S11611   1.949   1.545   9.240  0.0605  0.3350  2.6832
  112OSM   H13T11612   2.017   1.709   9.172 -0.8904 -1.2544 -4.3902
  112OSM   C14S11613   1.855   1.617   9.075  0.2374 -0.8736  0.2474
  112OSM   H14S11614   1.825   1.707   9.018 -2.0347 -1.2051  0.8359
  112OSM   H14T11615   1.760   1.562   9.089  0.9397 -2.2645 -0.1746
  112OSM   C15S11616   1.940   1.534   8.974  0.0319 -0.2706 -0.0795
  112OSM   H15S11617   1.955   1.439   9.029 -0.5735 -0.1734  0.2635
  112OSM   H15T11618   2.044   1.570   8.962 -0.5731  1.2009 -1.2830
  112OSM   C16S11619   1.870   1.509   8.847 -0.8999 -0.4900  0.5130
  112OSM   H16S11620   1.841   1.603   8.795 -1.2069 -0.1129  1.3571
  112OSM   H16T11621   1.779   1.449   8.869 -0.7037 -3.0567 -4.2943
  112OSM   C17S11622   1.960   1.429   8.751 -0.0012  0.0902  0.3513
  112OSM   H17S11623   1.998   1.338   8.802 -0.8718 -1.8934 -2.3151
  112OSM   H17T11624   2.044   1.500   8.736 -0.0152 -0.1811 -1.1837
  112OSM   C18S11625   1.894   1.399   8.615  0.1926 -0.5126 -0.4886
  112OSM   H18S11626   1.980   1.372   8.550  1.2977  1.1948  0.1963
  112OSM   H18T11627   1.846   1.490   8.573  2.1248  1.4717  1.3069
  112OSM   H18U11628   1.819   1.320   8.638 -1.9083  1.6084  0.3680
  112OSM    C1F11629   1.616   1.541  10.328 -0.4793 -0.2581 -0.2501
  112OSM     OF11630   1.529   1.595  10.399 -0.0649  0.4105  0.5061
  112OSM    C2F11631   1.639   1.397  10.311  0.4288  0.2503 -0.3247
  112OSM    H2F11632   1.681   1.366  10.408 -0.2698  2.3355  0.7048
  112OSM    H2G11633   1.714   1.374  10.231  0.5012 -1.8194  0.2865
  112OSM    C3F11634   1.514   1.317  10.297 -0.4899  0.5060 -0.2443
  112OSM    H3F11635   1.472   1.354  10.201 -0.9461  1.5335  0.3332
  112OSM    H3G11636   1.463   1.326  10.395 -1.0000  2.1106 -0.6307
  112OSM    C4F11637   1.541   1.170  10.278 -0.3707  0.3519  0.1328
  112OSM    H4F11638   1.606   1.130  10.359 -2.3098 -1.4227  0.9158
  112OSM    H4G11639   1.594   1.144  10.184  2.2301 -2.2424  2.0858
  112OSM    C5F11640   1.416   1.083  10.290 -0.8984 -0.4699  0.3404
  112OSM    H5F11641   1.354   1.095  10.381 -0.8408 -0.4529  0.3763
  112OSM    H5G11642   1.445   0.978  10.310 -1.2280 -0.4468  0.9332
  112OSM    C6F11643   1.329   1.110  10.161 -0.2895  0.2203  0.0226
  112OSM    H6F11644   1.388   1.079  10.073  1.3704 -0.0156  1.1735
  112OSM    H6G11645   1.308   1.218  10.143 -0.5052  0.0645 -0.6966
  112OSM    C7F11646   1.209   1.021  10.182  0.1315 -0.1313 -0.5210
  112OSM    H7F11647   1.149   1.076  10.258 -1.4708 -2.6488  0.1749
  112OSM    H7G11648   1.229   0.925  10.235 -2.7027 -1.0081 -0.8726
  112OSM    C8F11649   1.122   1.007  10.054  0.1142  0.4644  0.2047
  112OSM    H8F11650   1.167   0.918  10.006  0.6382 -0.7958  2.8753
  112OSM    H8G11651   1.143   1.093   9.986  1.5924 -0.0638 -0.0504
  112OSM    C9F11652   0.973   0.994  10.080  0.0737 -1.2994  0.3845
  112OSM    H9F11653   0.908   1.081  10.061  0.9488 -1.0102 -1.4706
  112OSM   C10F11654   0.899   0.883  10.101 -0.5697 -0.3043  0.2314
  112OSM   H10F11655   0.794   0.902  10.125 -0.3218  0.3072  0.8739
  112OSM   C11F11656   0.960   0.745  10.115 -0.3752 -0.5203 -0.7237
  112OSM   H11F11657   0.924   0.683  10.200 -0.0902  0.1787 -0.0866
  112OSM   H11G11658   1.071   0.744  10.128 -0.1853 -0.1919 -2.1340
  112OSM   C12F11659   0.929   0.660   9.985 -0.1783  0.1160 -0.0931
  112OSM   H12F11660   0.999   0.574   9.975  2.8326  2.6877 -4.3778
  112OSM   H12G11661   0.961   0.732   9.907  2.2141 -0.0185  0.6819
  112OSM   C13F11662   0.777   0.614   9.983  0.6904 -0.2287 -0.1857
  112OSM   H13F11663   0.706   0.698   9.970  0.7359  0.1601  1.7979
  112OSM   H13G11664   0.759   0.567  10.082 -1.0081 -1.0143 -0.8234
  112OSM   C14F11665   0.745   0.509   9.871  1.0519  0.1224 -0.1362
  112OSM   H14F11666   0.647   0.462   9.893  1.3628  0.6846  2.8609
  112OSM   H14G11667   0.824   0.432   9.867  0.1928 -0.7383 -2.2613
  112OSM   C15F11668   0.730   0.571   9.729 -0.3068  0.3533 -0.2945
  112OSM   H15F11669   0.820   0.630   9.700  1.3133 -2.2186 -0.8446
  112OSM   H15G11670   0.651   0.648   9.722 -0.7893 -0.1938 -1.0082
  112OSM   C16F11671   0.711   0.461   9.621  0.1837  0.0155 -0.0438
  112OSM   H16F11672   0.605   0.426   9.624  0.0568  0.4009  0.0425
  112OSM   H16G11673   0.779   0.373   9.631 -1.4621 -1.7784 -3.1304
  112OSM   C17F11674   0.717   0.522   9.482  0.4621  1.0832  0.1062
  112OSM   H17F11675   0.625   0.583   9.473 -0.7343 -0.9416 -2.4966
  112OSM   H17G11676   0.708   0.440   9.408 -1.5149  2.5077 -1.3298
  112OSM   C18F11677   0.840   0.599   9.450  0.3363 -0.3708 -0.6612
  112OSM   H18F11678   0.939   0.556   9.480 -0.5764 -1.2726  1.2189
  112OSM   H18G11679   0.839   0.692   9.510 -1.9567 -0.7474 -0.0216
  112OSM   H18H11680   0.843   0.623   9.342 -1.3944 -3.3338 -1.4729
  113OSM      N11681   2.223   1.321  10.857  0.2030 -0.5762 -0.4915
  113OSM    C1511682   2.320   1.389  10.766  0.5300  0.2043  0.3814
  113OSM   H15A11683   2.389   1.457  10.815 -2.2418  0.7258  3.9829
  113OSM   H15B11684   2.272   1.432  10.680 -0.9209  0.9162  1.5066
  113OSM   H15C11685   2.375   1.310  10.717  1.4505  1.3441 -0.4750
  113OSM    C1411686   2.290   1.242  10.967  0.1125  0.0914 -0.1793
  113OSM   H14A11687   2.220   1.210  11.043 -1.6237 -1.0106 -2.1357
  113OSM   H14B11688   2.368   1.305  11.007 -0.5529  0.2021  1.0029
  113OSM   H14C11689   2.336   1.158  10.919 -1.4475 -0.0641 -1.4913
  113OSM    C1311690   2.140   1.426  10.926  0.3929  0.2815  0.0969
  113OSM   H13A11691   2.191   1.475  11.008 -0.1552  0.4443  0.3468
  113OSM   H13B11692   2.064   1.372  10.980  0.8459 -1.3621 -0.8352
  113OSM   H13C11693   2.091   1.504  10.869  1.0118  0.1157 -0.6814
  113OSM    C1211694   2.134   1.228  10.786  0.1055  0.3512  0.1117
  113OSM   H12A11695   2.082   1.293  10.717 -0.0301  1.0250  0.8285
  113OSM   H12B11696   2.062   1.173  10.846  2.6045 -2.5002  0.7518
  113OSM    C1111697   2.212   1.118  10.696 -0.1782 -0.3758 -0.0689
  113OSM   H11A11698   2.279   1.164  10.620 -0.3952  2.7480  1.4564
  113OSM   H11B11699   2.124   1.075  10.643 -1.1397  2.4322 -0.9036
  113OSM      P11700   2.416   0.964  10.755 -0.3042  0.2159  0.1072
  113OSM    O1311701   2.524   1.051  10.807 -0.7567 -0.1868  0.5376
  113OSM    O1411702   2.402   0.823  10.811 -0.3377 -0.3806  0.1268
  113OSM    O1111703   2.422   0.958  10.594  0.1311 -0.8666 -0.1104
  113OSM    O1211704   2.273   1.022  10.785  0.0124  0.0535 -0.0135
  113OSM    C1S11705   2.544   0.971  10.520 -0.7695 -0.0083 -0.5496
  113OSM    H1S11706   2.627   0.918  10.571 -2.5012 -1.7996  0.5703
  113OSM    H1T11707   2.567   1.080  10.516 -1.8415  0.2388 -0.2229
  113OSM     NF11708   2.660   0.875  10.319  0.6310 -0.0299 -0.1542
  113OSM    HNF11709   2.680   0.931  10.239 -0.2258 -1.2835 -1.2910
  113OSM    C2S11710   2.530   0.903  10.382  0.1869 -0.3772  0.8434
  113OSM    H2S11711   2.479   0.807  10.401  1.8968 -2.0622 -2.2948
  113OSM    C3S11712   2.430   0.984  10.293  0.4103  0.3397 -0.3753
  113OSM    H3S11713   2.484   1.076  10.263 -1.2713  1.1297 -1.1577
  113OSM     O311714   2.301   1.011  10.359  0.3860 -0.9774 -0.0463
  113OSM    HO311715   2.311   0.992  10.453  2.0655  2.6965  0.6964
  113OSM    C4S11716   2.371   0.908  10.179 -0.1624  0.4856  0.0223
  113OSM    H4S11717   2.284   0.842  10.196 -0.4648  0.2446 -2.1641
  113OSM    C5S11718   2.412   0.925  10.046 -0.6104 -0.1542 -0.7452
  113OSM    H5S11719   2.497   0.991  10.028 -1.0521  0.6405 -0.0045
  113OSM    C6S11720   2.357   0.867   9.918  0.0540  0.1167  0.1186
  113OSM    H6S11721   2.252   0.833   9.934 -0.2111  0.1423 -1.4189
  113OSM    H6T11722   2.431   0.788   9.891 -0.0165 -0.7413  2.2094
  113OSM    C7S11723   2.353   0.977   9.809  0.3573  1.4018  0.5307
  113OSM    H7S11724   2.458   0.986   9.772 -0.1019 -1.5559 -1.8734
  113OSM    H7T11725   2.324   1.076   9.850  1.8673  3.0203 -1.9979
  113OSM    C8S11726   2.275   0.959   9.676  0.2373 -0.7152  0.2253
  113OSM    H8S11727   2.289   1.042   9.604 -0.6085 -2.9799 -2.7374
  113OSM    H8T11728   2.166   0.938   9.681  0.2125 -0.6854 -0.2053
  113OSM    C9S11729   2.330   0.832   9.604  0.2710 -0.1785  0.3038
  113OSM    H9S11730   2.285   0.742   9.650 -1.1562 -0.0535 -0.7627
  113OSM    H9T11731   2.438   0.818   9.621  0.4783  1.9146  0.9660
  113OSM   C10S11732   2.293   0.819   9.454 -0.5120 -0.5825  0.3261
  113OSM   H10S11733   2.339   0.898   9.390 -0.1035 -2.5467 -1.9484
  113OSM   H10T11734   2.183   0.833   9.457 -0.6731 -1.0390 -1.7305
  113OSM   C11S11735   2.336   0.687   9.379 -0.0619  0.2420  0.2964
  113OSM   H11S11736   2.293   0.596   9.426 -1.0535 -0.6684 -2.1646
  113OSM   H11T11737   2.446   0.676   9.368 -0.4474 -2.3725 -2.0442
  113OSM   C12S11738   2.280   0.679   9.240 -0.5055 -0.0032  0.5089
  113OSM   H12S11739   2.315   0.763   9.175  0.0999  0.3676  1.2941
  113OSM   H12T11740   2.171   0.699   9.244 -0.1484  2.6060 -0.4703
  113OSM   C13S11741   2.304   0.553   9.161 -0.1566  0.9085  0.7547
  113OSM   H13S11742   2.283   0.468   9.230 -0.6967 -0.2802 -0.8351
  113OSM   H13T11743   2.408   0.542   9.124 -0.6002  0.9119 -0.5225
  113OSM   C14S11744   2.213   0.542   9.039 -0.3148  0.1792  0.2801
  113OSM   H14S11745   2.182   0.637   8.991  2.4493  0.7202 -0.6153
  113OSM   H14T11746   2.115   0.499   9.070 -0.2423  0.0436  0.3217
  113OSM   C15S11747   2.273   0.464   8.922  0.2518 -0.1814  0.1030
  113OSM   H15S11748   2.295   0.358   8.945  2.5516  0.3561  0.6528
  113OSM   H15T11749   2.365   0.520   8.893 -1.0585  2.4218  0.6521
  113OSM   C16S11750   2.173   0.477   8.805  0.0781  0.0181  0.8727
  113OSM   H16S11751   2.158   0.583   8.774  2.3009  0.1091 -0.1122
  113OSM   H16T11752   2.079   0.432   8.842 -1.1058  1.0000 -0.8053
  113OSM   C17S11753   2.220   0.408   8.681 -0.9396  0.1854 -0.0687
  113OSM   H17S11754   2.218   0.298   8.691 -2.0671  0.1363 -0.6600
  113OSM   H17T11755   2.322   0.434   8.645 -1.3472  1.1485 -0.5560
  113OSM   C18S11756   2.138   0.441   8.556 -0.2181 -0.0361  0.3129
  113OSM   H18S11757   2.198   0.414   8.466 -0.6304 -2.3434  0.6620
  113OSM   H18T11758   2.115   0.550   8.550 -1.3751 -0.2258  0.9735
  113OSM   H18U11759   2.044   0.383   8.551 -0.6807  0.6643  0.7896
  113OSM    C1F11760   2.756   0.788  10.368 -0.0186 -0.1813  0.0311
  113OSM     OF11761   2.730   0.718  10.466 -0.3765 -0.3646 -0.1365
  113OSM    C2F11762   2.892   0.792  10.315 -0.0001  0.8476  0.1941
  113OSM    H2F11763   2.950   0.865  10.375  1.6081 -0.9287  0.8958
  113OSM    H2G11764   2.883   0.818  10.207 -0.7977  1.4322  0.3939
  113OSM    C3F11765   2.960   0.652  10.313  0.1582 -0.5036  0.6219
  113OSM    H3F11766   2.902   0.581  10.250 -1.4077  0.9061  0.3952
  113OSM    H3G11767   2.991   0.623  10.416  0.7261  0.7586  0.8217
  113OSM    C4F11768   3.098   0.667  10.246 -0.0735  0.1310 -0.5621
  113OSM    H4F11769   3.167   0.599  10.300 -0.4647 -0.5198 -0.8740
  113OSM    H4G11770   3.133   0.771  10.266 -0.5684  0.2054 -0.0764
  113OSM    C5F11771   3.097   0.647  10.092  0.6078 -0.5864 -0.7719
  113OSM    H5F11772   3.171   0.716  10.047 -1.7523  2.5289 -0.3051
  113OSM    H5G11773   3.001   0.689  10.054 -0.2558  1.8921  3.3703
  113OSM    C6F11774   3.102   0.506  10.046  0.1072  0.4345 -0.2378
  113OSM    H6F11775   3.026   0.442  10.096 -0.6812  0.6788 -1.0790
  113OSM    H6G11776   3.196   0.469  10.092  0.7096  0.2905 -1.5497
  113OSM    C7F11777   3.125   0.502   9.896 -0.1337  0.1918 -0.2379
  113OSM    H7F11778   3.147   0.398   9.864  2.1376  0.6060 -0.1954
  113OSM    H7G11779   3.216   0.553   9.859  0.3774  0.5030  1.3460
  113OSM    C8F11780   2.999   0.546   9.815 -0.5896  0.2655 -0.0029
  113OSM    H8F11781   3.032   0.543   9.709 -0.4264  0.7329  0.0344
  113OSM    H8G11782   2.968   0.649   9.841 -1.1601  0.6674 -2.1221
  113OSM    C9F11783   2.884   0.448   9.825 -0.6473 -0.0354  0.0638
  113OSM    H9F11784   2.866   0.425   9.931 -0.4521  1.5190  0.4582
  113OSM   C10F11785   2.802   0.407   9.723 -0.2465 -0.7689  0.2897
  113OSM   H10F11786   2.709   0.354   9.749  1.0126 -3.3416 -0.1703
  113OSM   C11F11787   2.817   0.432   9.570 -0.3249  0.1971 -0.0437
  113OSM   H11F11788   2.873   0.526   9.548 -0.2466  0.1931  0.1366
  113OSM   H11G11789   2.717   0.448   9.525 -1.3733  0.9796  2.3876
  113OSM   C12F11790   2.892   0.316   9.505  0.3272 -0.0100 -0.4486
  113OSM   H12F11791   2.835   0.222   9.525  1.1569 -0.2648  0.8063
  113OSM   H12G11792   2.988   0.307   9.559 -0.8224 -1.0808  1.5341
  113OSM   C13F11793   2.904   0.342   9.357  0.3447  0.6524  0.7986
  113OSM   H13F11794   2.993   0.408   9.341 -0.2688  1.3236  0.0270
  113OSM   H13G11795   2.821   0.410   9.328 -1.5169  0.1117  4.4208
  113OSM   C14F11796   2.914   0.216   9.275 -0.6320 -0.9770  0.0129
  113OSM   H14F11797   2.820   0.157   9.271 -1.2589 -0.2463  2.2021
  113OSM   H14G11798   2.983   0.150   9.333  0.3259  1.4105  1.7576
  113OSM   C15F11799   2.983   0.223   9.139  0.9451  0.2342  0.0768
  113OSM   H15F11800   3.087   0.263   9.141  1.1378 -0.2489  1.5238
  113OSM   H15G11801   2.917   0.278   9.069 -2.1901  0.2823  2.7955
  113OSM   C16F11802   3.005   0.078   9.082  0.0266  0.4426 -0.0460
  113OSM   H16F11803   2.919   0.013   9.110  1.7146 -1.5940  0.7132
  113OSM   H16G11804   3.097   0.037   9.128 -0.4081 -0.8636 -0.2895
  113OSM   C17F11805   3.030   0.086   8.930 -0.0961  0.4046  0.0858
  113OSM   H17F11806   3.109   0.163   8.915 -0.1240  0.6665  1.2124
  113OSM   H17G11807   2.935   0.126   8.889  0.3843  0.6946 -0.7828
  113OSM   C18F11808   3.041  -0.053   8.861  0.2349  0.3349 -0.5393
  113OSM   H18F11809   3.129  -0.111   8.897 -0.6414 -2.7514 -2.9265
  113OSM   H18G11810   3.037  -0.051   8.750 -2.6145 -0.5535 -0.5215
  113OSM   H18H11811   2.943  -0.102   8.880  0.6326 -0.5099 -0.6153
  114OSM      N11812   4.642   0.820  11.606 -0.3900  0.2263  0.4849
  114OSM    C1511813   4.716   0.688  11.595  0.0095  0.3266  0.0043
  114OSM   H15A11814   4.756   0.692  11.495  0.6775  1.0588  0.2888
  114OSM   H15B11815   4.639   0.612  11.592  0.1633 -0.0575  2.7477
  114OSM   H15C11816   4.792   0.673  11.670 -0.3261  2.7534  0.9369
  114OSM    C1411817   4.549   0.820  11.723 -0.6020 -0.0379 -0.5024
  114OSM   H14A11818   4.502   0.916  11.733  0.1053  0.1858  0.9845
  114OSM   H14B11819   4.601   0.797  11.815 -0.1952 -0.0779 -0.7411
  114OSM   H14C11820   4.475   0.742  11.714  0.4702 -1.0668 -0.7312
  114OSM    C1311821   4.749   0.930  11.618  0.7754  0.3411  0.3754
  114OSM   H13A11822   4.701   1.026  11.628  0.3440  0.1031  0.6092
  114OSM   H13B11823   4.807   0.939  11.528  0.2323 -0.5101 -0.0775
  114OSM   H13C11824   4.820   0.923  11.700  1.7760  0.4406 -0.4716
  114OSM    C1211825   4.558   0.849  11.482  0.5432 -0.1889  0.0045
  114OSM   H12A11826   4.532   0.953  11.499  0.9024 -0.2260  0.8397
  114OSM   H12B11827   4.460   0.805  11.493  0.9041 -1.1093 -0.3569
  114OSM    C1111828   4.621   0.823  11.347  0.2155 -0.0562 -0.0206
  114OSM   H11A11829   4.725   0.859  11.334  0.1903 -0.0405 -0.1782
  114OSM   H11B11830   4.558   0.873  11.270  0.2485  1.6632  1.0220
  114OSM      P11831   4.505   0.594  11.289  0.3289 -0.0985  0.1885
  114OSM    O1311832   4.547   0.452  11.308 -0.2042 -0.4138  0.0213
  114OSM    O1411833   4.386   0.641  11.361 -0.5109 -0.3499 -0.1254
  114OSM    O1111834   4.484   0.626  11.133 -0.2407  0.0012 -0.3359
  114OSM    O1211835   4.630   0.683  11.328 -0.1165  0.0531 -0.4996
  114OSM    C1S11836   4.596   0.642  11.041  0.4065 -0.4862  0.2641
  114OSM    H1S11837   4.651   0.546  11.033 -1.1637 -1.2874 -1.4775
  114OSM    H1T11838   4.662   0.714  11.094 -1.4470  0.2267  1.7182
  114OSM     NF11839   4.663   0.656  10.815 -0.4428  0.1875  0.5746
  114OSM    HNF11840   4.736   0.723  10.819  1.7416 -2.0509  0.8058
  114OSM    C2S11841   4.554   0.690  10.903  0.9095 -0.0833 -0.8098
  114OSM    H2S11842   4.471   0.621  10.879  0.4717  0.9736 -2.5310
  114OSM    C3S11843   4.506   0.842  10.913  1.0892  0.4533  0.3606
  114OSM    H3S11844   4.590   0.904  10.951  1.6590  1.1327 -1.8760
  114OSM     O311845   4.396   0.861  10.998  0.0687 -0.1530  0.2545
  114OSM    HO311846   4.388   0.780  11.049 -1.2787  1.0650  2.0788
  114OSM    C4S11847   4.463   0.895  10.777 -0.0227 -0.0427 -0.7792
  114OSM    H4S11848   4.406   0.829  10.710 -0.9456  2.0190 -2.1044
  114OSM    C5S11849   4.521   1.005  10.724  0.5142  0.6044 -0.2037
  114OSM    H5S11850   4.596   1.054  10.787  0.8105  2.1844 -1.7246
  114OSM    C6S11851   4.493   1.061  10.589 -0.2242  0.5925 -0.2624
  114OSM    H6S11852   4.586   1.109  10.552  1.0843 -1.3683  0.3322
  114OSM    H6T11853   4.428   1.149  10.604 -0.5026  0.0688  1.9389
  114OSM    C7S11854   4.423   0.967  10.483 -0.2402  0.2319  0.3239
  114OSM    H7S11855   4.320   0.952  10.522 -0.7607  0.6836 -0.8221
  114OSM    H7T11856   4.480   0.871  10.482  0.2735  0.5292  0.4780
  114OSM    C8S11857   4.420   1.023  10.339 -0.8408 -0.6986  0.5604
  114OSM    H8S11858   4.520   1.039  10.292 -0.9042 -1.6953  0.0661
  114OSM    H8T11859   4.377   1.125  10.344 -1.2995 -0.8962  0.7156
  114OSM    C9S11860   4.340   0.932  10.242 -0.2113 -0.5507 -0.8801
  114OSM    H9S11861   4.391   0.834  10.227  0.9695  0.0785 -1.0720
  114OSM    H9T11862   4.336   0.978  10.141  0.5044  0.1848 -0.5888
  114OSM   C10S11863   4.198   0.922  10.275  0.2371 -0.5270 -0.2068
  114OSM   H10S11864   4.165   1.028  10.265  2.0511 -0.1045 -2.3591
  114OSM   H10T11865   4.164   0.896  10.378 -0.2643 -0.0856 -0.2534
  114OSM   C11S11866   4.113   0.832  10.185  0.3668 -0.5394 -0.2550
  114OSM   H11S11867   4.007   0.824  10.218  0.6558  0.8923  1.1445
  114OSM   H11T11868   4.147   0.726  10.184  1.7283 -0.1755 -2.6835
  114OSM   C12S11869   4.101   0.874  10.037 -0.0803 -0.7119  0.0312
  114OSM   H12S11870   4.203   0.847  10.003  0.9540 -2.4603  3.9014
  114OSM   H12T11871   4.090   0.984  10.026  0.2283 -0.6767  0.0791
  114OSM   C13S11872   4.005   0.794   9.950  0.7833 -0.2376 -0.1947
  114OSM   H13S11873   3.907   0.795  10.003  0.5897 -0.2227 -0.5458
  114OSM   H13T11874   4.032   0.686   9.952 -1.3977 -0.8898 -1.8854
  114OSM   C14S11875   4.013   0.848   9.809 -0.0662  0.5149  0.2320
  114OSM   H14S11876   4.105   0.815   9.758  0.3763  0.5132  1.0233
  114OSM   H14T11877   4.006   0.959   9.805  1.1701  0.5794 -0.5110
  114OSM   C15S11878   3.900   0.794   9.719  0.2754  0.0980  0.3244
  114OSM   H15S11879   3.813   0.797   9.788 -0.3560  0.6277 -0.4806
  114OSM   H15T11880   3.917   0.687   9.694  5.3553  0.3980  1.4639
  114OSM   C16S11881   3.878   0.883   9.595 -0.1102 -0.3348  0.5889
  114OSM   H16S11882   3.980   0.915   9.565 -0.0010  1.0840  2.3297
  114OSM   H16T11883   3.824   0.974   9.628  0.8567  0.7810 -0.7257
  114OSM   C17S11884   3.809   0.812   9.482 -0.0345  0.6296 -0.1480
  114OSM   H17S11885   3.699   0.806   9.496 -0.0325  1.8446  0.5255
  114OSM   H17T11886   3.863   0.715   9.481 -0.2421  0.5122  0.3237
  114OSM   C18S11887   3.824   0.881   9.342  0.2586 -0.2702 -0.2503
  114OSM   H18S11888   3.773   0.827   9.260 -0.0573 -1.4486  0.6884
  114OSM   H18T11889   3.929   0.899   9.310  0.1098  0.8221 -0.1498
  114OSM   H18U11890   3.775   0.980   9.340  0.4162 -0.1466 -3.6013
  114OSM    C1F11891   4.681   0.533  10.764 -0.3331 -0.4360 -0.4660
  114OSM     OF11892   4.603   0.438  10.789  0.0624  0.6640 -0.1048
  114OSM    C2F11893   4.798   0.515  10.672 -0.7752  0.0732  0.1441
  114OSM    H2F11894   4.854   0.431  10.719  0.1524  0.1882 -0.7121
  114OSM    H2G11895   4.873   0.597  10.670  1.6040 -1.9832  0.3790
  114OSM    C3F11896   4.763   0.470  10.531 -0.4012  0.2937  0.6446
  114OSM    H3F11897   4.718   0.556  10.478 -0.5659 -1.2867 -1.9746
  114OSM    H3G11898   4.683   0.393  10.528  0.4908 -0.6355 -0.0281
  114OSM    C4F11899   4.888   0.418  10.467 -0.4192  0.7293  0.3552
  114OSM    H4F11900   4.934   0.350  10.541 -2.0881  0.0986  0.8651
  114OSM    H4G11901   4.960   0.500  10.447 -0.9043  0.7583 -1.4079
  114OSM    C5F11902   4.874   0.334  10.340  0.5761  0.0641 -0.5527
  114OSM    H5F11903   4.778   0.279  10.351 -0.3394  1.8546  1.1034
  114OSM    H5G11904   4.956   0.259  10.335 -1.4783 -2.4444  0.9415
  114OSM    C6F11905   4.866   0.415  10.202  0.7404  0.3495 -0.0963
  114OSM    H6F11906   4.970   0.453  10.197  1.5925 -2.0170 -1.7131
  114OSM    H6G11907   4.788   0.494  10.198  1.7809  1.3538 -1.6103
  114OSM    C7F11908   4.873   0.312  10.083  0.4860  0.4480  0.2860
  114OSM    H7F11909   4.769   0.274  10.072  0.5783  0.4117 -0.4866
  114OSM    H7G11910   4.939   0.229  10.117  0.3726  0.1245 -0.2697
  114OSM    C8F11911   4.918   0.371   9.949 -0.2808  0.1391  0.0947
  114OSM    H8F11912   4.913   0.288   9.876 -0.5769  0.5375 -0.3492
  114OSM    H8G11913   5.025   0.402   9.944 -0.9688  2.5598 -1.6483
  114OSM    C9F11914   4.830   0.478   9.900  0.6084 -1.0786  0.6700
  114OSM    H9F11915   4.840   0.565   9.966 -0.2918 -0.0867 -0.4355
  114OSM   C10F11916   4.750   0.480   9.790 -0.1874  1.0314  0.2532
  114OSM   H10F11917   4.699   0.574   9.765 -2.3101  0.4485  2.0273
  114OSM   C11F11918   4.730   0.375   9.680 -0.7846 -0.5817  0.2896
  114OSM   H11F11919   4.638   0.314   9.685 -0.1306 -1.4691  2.6799
  114OSM   H11G11920   4.809   0.297   9.675 -1.3163 -1.0313 -2.2888
  114OSM   C12F11921   4.728   0.439   9.541 -0.6497  0.1620 -0.0293
  114OSM   H12F11922   4.810   0.514   9.530  1.1201 -1.8978 -1.9621
  114OSM   H12G11923   4.632   0.487   9.512 -0.3660  0.9709  0.3254
  114OSM   C13F11924   4.761   0.333   9.429 -0.4594  0.4053 -0.2723
  114OSM   H13F11925   4.692   0.246   9.426 -1.0233  0.8249  0.3104
  114OSM   H13G11926   4.862   0.293   9.455 -1.5813 -2.5915 -0.1592
  114OSM   C14F11927   4.773   0.402   9.296  0.9902 -0.8030  0.4095
  114OSM   H14F11928   4.832   0.494   9.313  0.4772 -0.7005  1.7351
  114OSM   H14G11929   4.671   0.419   9.254  0.6967 -0.2639  1.3075
  114OSM   C15F11930   4.858   0.325   9.195 -0.4561 -0.0137 -0.0759
  114OSM   H15F11931   4.947   0.289   9.251 -0.6827  2.2340  1.8977
  114OSM   H15G11932   4.881   0.391   9.108 -2.6549 -1.7020 -2.0702
  114OSM   C16F11933   4.784   0.205   9.121 -0.1919 -0.0002  0.6110
  114OSM   H16F11934   4.675   0.226   9.127 -0.1648  0.0586  0.9113
  114OSM   H16G11935   4.784   0.113   9.183 -2.9559  0.1070  0.8803
  114OSM   C17F11936   4.831   0.169   8.981 -0.4330 -0.3085 -0.2986
  114OSM   H17F11937   4.914   0.095   8.982 -0.8238 -0.7570 -0.4815
  114OSM   H17G11938   4.860   0.263   8.928 -0.0171 -0.4752 -0.3677
  114OSM   C18F11939   4.730   0.090   8.895  0.0013 -0.7374 -0.0049
  114OSM   H18F11940   4.775   0.076   8.795 -0.1644 -1.2344 -0.0122
  114OSM   H18G11941   4.641   0.152   8.872  2.5896  2.5898 -1.8838
  114OSM   H18H11942   4.694  -0.003   8.945 -0.7228 -0.0228  0.8522
  115OSM      N11943   6.137   3.844   5.827 -0.1013  0.1607  0.6239
  115OSM    C1511944   6.189   3.796   5.954 -0.0994 -0.2757  0.0159
  115OSM   H15A11945   6.291   3.762   5.946  0.5213  1.6191 -0.4589
  115OSM   H15B11946   6.127   3.709   5.971 -1.8105  1.1311  1.4076
  115OSM   H15C11947   6.178   3.867   6.035  0.5274  0.1076 -0.2307
  115OSM    C1411948   6.142   3.719   5.733  0.0537  0.7078 -0.1761
  115OSM   H14A11949   6.104   3.731   5.633  0.0135  1.2265 -0.0968
  115OSM   H14B11950   6.105   3.636   5.792  0.0154  0.3556 -0.6905
  115OSM   H14C11951   6.244   3.683   5.726 -0.1265  0.3381 -1.0597
  115OSM    C1311952   5.994   3.884   5.851 -0.1379 -0.3625 -0.0065
  115OSM   H13A11953   5.994   3.967   5.920 -0.6138 -0.8432  0.5820
  115OSM   H13B11954   5.939   3.801   5.893  0.5093 -0.9397 -0.2690
  115OSM   H13C11955   5.938   3.912   5.763  0.1278 -0.3344 -0.1669
  115OSM    C1211956   6.208   3.973   5.769 -0.4193 -0.4254  0.3089
  115OSM   H12A11957   6.173   4.000   5.670 -1.0556 -0.7034  0.4504
  115OSM   H12B11958   6.309   3.941   5.749 -0.9094 -1.9161  0.0871
  115OSM    C1111959   6.201   4.097   5.869 -0.2490 -0.3759  0.7243
  115OSM   H11A11960   6.275   4.164   5.819  2.4202 -4.3758 -1.2847
  115OSM   H11B11961   6.238   4.068   5.970 -0.9305  0.8650  1.3495
  115OSM      P11962   6.056   4.266   5.997 -0.5416 -0.1090 -0.2144
  115OSM    O1311963   5.968   4.370   5.931  0.5558  0.3099  0.0637
  115OSM    O1411964   6.012   4.193   6.117 -0.2847 -0.5416  0.8378
  115OSM    O1111965   6.200   4.319   6.032 -0.7890 -0.4861 -0.1151
  115OSM    O1211966   6.075   4.160   5.881 -0.3023  0.2005  0.1058
  115OSM    C1S11967   6.226   4.440   6.100  0.6767 -0.0060  0.3207
  115OSM    H1S11968   6.141   4.509   6.078 -1.4833 -2.6471 -0.1275
  115OSM    H1T11969   6.319   4.488   6.061 -0.4986  1.2910 -1.0117
  115OSM     NF11970   6.224   4.552   6.317 -0.1018 -0.1789 -0.2257
  115OSM    HNF11971   6.310   4.596   6.344 -0.1404  1.2310 -2.1966
  115OSM    C2S11972   6.245   4.424   6.252  0.3700 -0.8659 -0.4378
  115OSM    H2S11973   6.168   4.354   6.290  0.0454 -0.6999 -0.7856
  115OSM    C3S11974   6.386   4.366   6.288 -0.0452 -0.4698 -0.0601
  115OSM    H3S11975   6.458   4.445   6.259 -0.4483  0.1992  0.7064
  115OSM     O311976   6.410   4.247   6.214  0.2144  0.1527 -0.0174
  115OSM    HO311977   6.340   4.228   6.151 -0.3724 -0.6948  0.8635
  115OSM    C4S11978   6.396   4.350   6.437 -0.4159 -0.3959 -0.1459
  115OSM    H4S11979   6.434   4.439   6.488 -0.8868 -0.5032  0.4070
  115OSM    C5S11980   6.385   4.232   6.505  0.3182 -1.2097 -0.0636
  115OSM    H5S11981   6.382   4.145   6.438  0.7290 -0.3368 -1.2751
  115OSM    C6S11982   6.427   4.219   6.647  1.0482 -0.5594 -0.3716
  115OSM    H6S11983   6.336   4.228   6.710  2.4834  2.0149  1.5600
  115OSM    H6T11984   6.497   4.297   6.685  0.5897 -0.5836  0.5502
  115OSM    C7S11985   6.499   4.085   6.686  0.0322  0.0381 -0.0033
  115OSM    H7S11986   6.594   4.073   6.629 -0.5691 -0.7387 -0.8634
  115OSM    H7T11987   6.442   3.994   6.658 -0.2168  0.7485 -1.9630
  115OSM    C8S11988   6.529   4.069   6.842 -0.2852  0.1309 -0.4667
  115OSM    H8S11989   6.613   4.132   6.879 -0.2028 -0.2315 -0.0180
  115OSM    H8T11990   6.554   3.962   6.860 -0.2486  0.4784  1.8810
  115OSM    C9S11991   6.396   4.092   6.912  0.2634 -0.0005 -0.4057
  115OSM    H9S11992   6.313   4.044   6.856  0.4236 -1.5892  0.6447
  115OSM    H9T11993   6.363   4.198   6.920  0.9050  0.0678  2.5471
  115OSM   C10S11994   6.403   4.047   7.056  0.2474  0.5443 -1.4490
  115OSM   H10S11995   6.489   4.101   7.100  0.8985 -2.0979  0.7720
  115OSM   H10T11996   6.424   3.938   7.070  1.2063  0.6247 -2.1156
  115OSM   C11S11997   6.278   4.083   7.132  0.2915 -0.6634  0.1919
  115OSM   H11S11998   6.186   4.060   7.075  0.1168  0.9418 -0.2110
  115OSM   H11T11999   6.277   4.194   7.140  1.1541 -0.4937 -1.5737
  115OSM   C12S12000   6.242   4.021   7.264  0.1134 -0.0416  0.2418
  115OSM   H12S12001   6.336   4.023   7.323  1.5630  3.0868 -1.9078
  115OSM   H12T12002   6.214   3.914   7.254 -1.2370  0.2312  0.9957
  115OSM   C13S12003   6.146   4.100   7.356 -0.3862  0.3287 -0.5101
  115OSM   H13S12004   6.050   4.120   7.303  0.6110  2.0730 -1.7641
  115OSM   H13T12005   6.188   4.197   7.390 -1.3616 -0.4360  3.3260
  115OSM   C14S12006   6.114   4.027   7.487 -0.3929  0.2776  0.4523
  115OSM   H14S12007   6.212   4.001   7.533  0.1298  2.5988  0.7505
  115OSM   H14T12008   6.077   3.927   7.454 -1.8117  1.8017 -3.0675
  115OSM   C15S12009   6.016   4.096   7.574 -0.0983  0.0112  0.0504
  115OSM   H15S12010   5.908   4.095   7.552  0.0699  3.4263 -1.6334
  115OSM   H15T12011   6.058   4.199   7.581  2.9526 -0.9552 -2.0883
  115OSM   C16S12012   6.031   4.021   7.718  1.1231  0.5644 -0.1180
  115OSM   H16S12013   6.135   4.002   7.754  0.6389 -1.3159  0.3860
  115OSM   H16T12014   5.986   3.920   7.712  2.4275  0.0226 -1.6692
  115OSM   C17S12015   5.961   4.099   7.839  0.9106 -0.2275 -0.1843
  115OSM   H17S12016   6.021   4.192   7.845 -0.9976  1.2300 -2.0447
  115OSM   H17T12017   5.982   4.042   7.932 -1.8061 -0.3335  0.4593
  115OSM   C18S12018   5.815   4.129   7.821 -0.1022  0.3189  0.0083
  115OSM   H18S12019   5.763   4.031   7.810 -0.2402  0.4508 -0.5928
  115OSM   H18T12020   5.796   4.194   7.733 -0.3764 -0.5701 -0.6016
  115OSM   H18U12021   5.781   4.188   7.909  0.7008  2.1614 -0.8568
  115OSM    C1F12022   6.110   4.620   6.341 -0.0185  0.3681  0.4135
  115OSM     OF12023   6.008   4.591   6.284  0.0937  0.4934  0.3947
  115OSM    C2F12024   6.120   4.743   6.430  0.3453 -0.0624 -0.1083
  115OSM    H2F12025   6.061   4.828   6.392  0.4591  0.7267  1.3932
  115OSM    H2G12026   6.225   4.777   6.416  0.4914 -0.8623 -1.1031
  115OSM    C3F12027   6.085   4.708   6.569  0.5247 -0.8674 -0.0277
  115OSM    H3F12028   6.145   4.625   6.614 -0.8944 -2.2366 -0.5920
  115OSM    H3G12029   5.980   4.673   6.572  0.7839 -1.6118  0.7045
  115OSM    C4F12030   6.095   4.826   6.670  0.4475  0.0454 -0.8308
  115OSM    H4F12031   6.027   4.906   6.634  1.3112  1.0491 -0.2618
  115OSM    H4G12032   6.195   4.872   6.670  1.9890 -2.9796  0.7491
  115OSM    C5F12033   6.067   4.794   6.808  0.0332  0.6020 -0.6649
  115OSM    H5F12034   6.129   4.703   6.823  0.4172  1.1670  1.5550
  115OSM    H5G12035   5.960   4.767   6.824  0.6866 -0.8186  1.8520
  115OSM    C6F12036   6.106   4.907   6.909  0.5670  0.1719  0.5199
  115OSM    H6F12037   6.052   4.998   6.876  1.3889  0.6235  0.3922
  115OSM    H6G12038   6.214   4.934   6.913  0.0971  2.1410  2.3180
  115OSM    C7F12039   6.050   4.880   7.048 -0.1919  0.6755  0.0898
  115OSM    H7F12040   6.067   4.772   7.071  2.0428  0.4891 -2.0273
  115OSM    H7G12041   5.943   4.905   7.032 -0.2135  1.5929  1.5187
  115OSM    C8F12042   6.109   4.963   7.156  0.3649  0.6951  0.7547
  115OSM    H8F12043   6.219   4.961   7.139  0.2978 -2.1088  0.1678
  115OSM    H8G12044   6.101   4.923   7.260 -0.2105  1.8973  1.1911
  115OSM    C9F12045   6.086   5.115   7.156  0.6231  0.2598  0.3125
  115OSM    H9F12046   6.063   5.158   7.058  0.6581 -1.8453 -0.6697
  115OSM   C10F12047   6.067   5.189   7.264  0.4086 -0.7724  0.5126
  115OSM   H10F12048   6.036   5.294   7.250 -2.2539 -1.3175  1.6847
  115OSM   C11F12049   6.068   5.147   7.406 -0.3939 -0.0707 -0.0946
  115OSM   H11F12050   6.129   5.055   7.421 -1.9142 -1.0222  0.5616
  115OSM   H11G12051   5.964   5.125   7.439  0.6015 -2.7907  1.6333
  115OSM   C12F12052   6.124   5.245   7.511  0.8936  0.2461 -1.1455
  115OSM   H12F12053   6.076   5.344   7.500 -1.1971 -0.7367 -1.2773
  115OSM   H12G12054   6.231   5.266   7.488  0.9490  1.0337 -0.2358
  115OSM   C13F12055   6.121   5.191   7.657 -0.1092  0.5238 -0.0689
  115OSM   H13F12056   6.193   5.107   7.646  1.6451  1.5799  2.5783
  115OSM   H13G12057   6.023   5.149   7.687 -0.2222  1.0679  0.3369
  115OSM   C14F12058   6.153   5.293   7.770 -0.6284  0.1370  0.5865
  115OSM   H14F12059   6.151   5.245   7.870  0.1340  0.9401  0.9994
  115OSM   H14G12060   6.089   5.384   7.772  0.5831  1.0318 -0.2901
  115OSM   C15F12061   6.295   5.357   7.757  0.5615  0.2675  0.0147
  115OSM   H15F12062   6.303   5.446   7.690  2.4039 -0.0303 -0.2409
  115OSM   H15G12063   6.369   5.284   7.716 -0.5188 -0.8549  0.0205
  115OSM   C16F12064   6.352   5.419   7.891 -0.2064  1.1823  0.5656
  115OSM   H16F12065   6.269   5.475   7.938 -1.6185  0.9300 -1.4799
  115OSM   H16G12066   6.425   5.497   7.861 -0.7594  1.6752  0.4824
  115OSM   C17F12067   6.418   5.325   7.989  0.3019  0.1578 -0.0716
  115OSM   H17F12068   6.364   5.228   7.989  2.0410 -0.9709  3.4956
  115OSM   H17G12069   6.408   5.365   8.092 -1.9080  3.4878 -1.3978
  115OSM   C18F12070   6.568   5.299   7.958  0.4751  0.1596 -0.4195
  115OSM   H18F12071   6.629   5.385   7.924  0.1996  0.7796  0.5944
  115OSM   H18G12072   6.584   5.214   7.889  1.2472 -0.6839  0.7531
  115OSM   H18H12073   6.613   5.255   8.050 -0.5844 -2.0775 -0.8915
  116OSM      N12074   5.373   1.969   6.197  0.4353 -0.2109 -1.2794
  116OSM    C1512075   5.352   1.876   6.089  0.2531 -0.0899 -0.0559
  116OSM   H15A12076   5.445   1.853   6.038 -0.3024 -1.8924 -0.3097
  116OSM   H15B12077   5.275   1.918   6.026 -1.1773  0.9809  2.2656
  116OSM   H15C12078   5.313   1.781   6.122  2.2710 -1.6209 -1.7739
  116OSM    C1412079   5.498   1.947   6.271  0.3253  0.4310 -0.3455
  116OSM   H14A12080   5.495   1.854   6.327  2.0842  0.9239  0.6409
  116OSM   H14B12081   5.513   2.014   6.354  2.8659 -1.7747  1.1480
  116OSM   H14C12082   5.580   1.953   6.201 -0.2546 -1.5280 -1.3014
  116OSM    C1312083   5.385   2.109   6.142  0.0119 -0.9150 -0.4110
  116OSM   H13A12084   5.390   2.179   6.224  2.6028 -1.4018 -0.0744
  116OSM   H13B12085   5.292   2.131   6.092 -0.7174  0.3812  1.3732
  116OSM   H13C12086   5.470   2.115   6.076 -0.2948 -0.6705 -0.7835
  116OSM    C1212087   5.260   1.971   6.294  0.6206  0.4627  0.0501
  116OSM   H12A12088   5.182   2.014   6.233 -0.4430 -1.0089  0.3091
  116OSM   H12B12089   5.280   2.048   6.367 -2.7721  1.3694  0.2007
  116OSM    C1112090   5.197   1.850   6.361 -0.0018 -0.5131  0.2656
  116OSM   H11A12091   5.119   1.882   6.433  0.2163  1.1002 -0.1814
  116OSM   H11B12092   5.274   1.801   6.425 -1.2298 -0.2890  1.9790
  116OSM      P12093   5.004   1.791   6.197 -0.0135 -0.4003  0.0632
  116OSM    O1312094   5.020   1.925   6.135  0.4500  0.2173 -0.3417
  116OSM    O1412095   4.960   1.682   6.118  0.2222 -0.2895  0.5084
  116OSM    O1112096   4.912   1.809   6.323  0.7218 -0.0200  0.4604
  116OSM    O1212097   5.144   1.754   6.264 -0.1042 -0.0676 -0.0905
  116OSM    C1S12098   4.853   1.708   6.395  0.1843 -0.6466 -0.7416
  116OSM    H1S12099   4.857   1.605   6.353  2.5588 -1.2354  0.7145
  116OSM    H1T12100   4.746   1.739   6.401  0.6296  0.7010  1.4750
  116OSM     NF12101   4.898   1.591   6.609 -0.5253  0.0366 -0.0637
  116OSM    HNF12102   4.846   1.595   6.694  2.5574  3.1341  1.9076
  116OSM    C2S12103   4.921   1.710   6.538  0.6610  0.4601  0.8494
  116OSM    H2S12104   5.027   1.722   6.509  0.0376 -1.6051 -3.1281
  116OSM    C3S12105   4.879   1.837   6.620 -0.3961 -1.6287 -0.5936
  116OSM    H3S12106   4.771   1.834   6.644 -0.3567  1.4086  0.3140
  116OSM     O312107   4.886   1.957   6.534 -0.2047 -0.4272 -0.4659
  116OSM    HO312108   4.894   1.926   6.444 -0.7937 -0.6609 -0.4412
  116OSM    C4S12109   4.957   1.855   6.747  0.1257  0.7589  0.1184
  116OSM    H4S12110   4.916   1.795   6.829 -0.1172 -0.3295 -0.7726
  116OSM    C5S12111   5.068   1.928   6.771 -0.1828  0.8654  0.2049
  116OSM    H5S12112   5.103   1.988   6.686 -2.1627 -0.4453 -1.6042
  116OSM    C6S12113   5.138   1.945   6.908 -0.0884  0.1643  0.5775
  116OSM    H6S12114   5.183   2.045   6.922  2.5927 -0.9342  0.4081
  116OSM    H6T12115   5.222   1.872   6.904 -0.0975  0.0690  1.7386
  116OSM    C7S12116   5.049   1.912   7.032 -0.3481 -0.2072  0.2215
  116OSM    H7S12117   5.037   1.801   7.040  0.9145 -0.2336  4.0957
  116OSM    H7T12118   4.949   1.960   7.020 -1.5760 -1.9278  2.5083
  116OSM    C8S12119   5.123   1.955   7.161  0.5474 -0.1473  0.0695
  116OSM    H8S12120   5.144   2.064   7.169  0.2885 -0.1333  0.5957
  116OSM    H8T12121   5.226   1.912   7.156  0.3849 -0.5141 -0.1777
  116OSM    C9S12122   5.057   1.906   7.285  0.1450 -0.0148  0.2337
  116OSM    H9S12123   5.074   1.803   7.323  1.7274  0.0615 -0.1729
  116OSM    H9T12124   4.947   1.919   7.275 -0.0581 -1.8840 -0.2556
  116OSM   C10S12125   5.097   2.001   7.403  0.0274 -0.4428 -1.0433
  116OSM   H10S12126   5.068   2.106   7.379 -1.3946 -0.8636 -1.2483
  116OSM   H10T12127   5.207   2.001   7.417  0.0521  2.3874 -0.5499
  116OSM   C11S12128   5.017   1.968   7.535 -0.1090 -0.8015  0.9144
  116OSM   H11S12129   5.049   1.862   7.548 -2.1270 -1.3345  1.8811
  116OSM   H11T12130   4.907   1.970   7.519 -0.0313 -2.6847 -0.1613
  116OSM   C12S12131   5.059   2.043   7.661  0.9150  0.8665 -0.0894
  116OSM   H12S12132   5.028   2.150   7.664  3.5275  1.7138 -0.5316
  116OSM   H12T12133   5.169   2.054   7.671  0.8620 -0.5336  3.4129
  116OSM   C13S12134   4.998   1.975   7.785  0.0471  0.3173  0.5847
  116OSM   H13S12135   5.015   1.866   7.782 -1.4027  0.0899 -0.1781
  116OSM   H13T12136   4.887   1.978   7.787  0.0257 -0.2343  0.1938
  116OSM   C14S12137   5.044   2.028   7.922 -0.6922  0.1854 -0.0964
  116OSM   H14S12138   4.970   1.988   7.996 -1.1299  0.4964 -0.3618
  116OSM   H14T12139   5.040   2.139   7.916  0.1378  0.1430 -1.8501
  116OSM   C15S12140   5.193   1.991   7.957 -0.1931  0.0042  0.7954
  116OSM   H15S12141   5.264   2.057   7.902 -1.5898 -0.5111 -1.8190
  116OSM   H15T12142   5.214   1.885   7.933 -0.2784 -0.2070  1.6318
  116OSM   C16S12143   5.219   1.998   8.104  0.1449 -0.2579  0.2884
  116OSM   H16S12144   5.313   1.945   8.129  2.8691  2.7995 -2.5177
  116OSM   H16T12145   5.138   1.942   8.156  0.5915 -0.3833  0.8499
  116OSM   C17S12146   5.252   2.140   8.160 -0.1129  0.4782  0.1134
  116OSM   H17S12147   5.167   2.207   8.139 -1.0500 -0.1746  1.5942
  116OSM   H17T12148   5.342   2.190   8.120 -0.2863  1.8406  1.3497
  116OSM   C18S12149   5.282   2.122   8.309 -0.0670  0.0852 -0.6220
  116OSM   H18S12150   5.197   2.072   8.361  0.6518  1.2529  1.8351
  116OSM   H18T12151   5.298   2.213   8.370  2.1087 -1.2663  0.9702
  116OSM   H18U12152   5.373   2.061   8.321 -0.6247 -1.4506 -3.2873
  116OSM    C1F12153   4.941   1.477   6.570  0.7923  0.5020  0.4885
  116OSM     OF12154   4.977   1.453   6.453  0.0835 -0.9237  0.4426
  116OSM    C2F12155   4.943   1.363   6.669  0.0122  0.1366  0.3621
  116OSM    H2F12156   4.954   1.267   6.614 -0.4881  0.9593 -1.2247
  116OSM    H2G12157   4.843   1.358   6.719 -2.0146 -2.1087 -3.4388
  116OSM    C3F12158   5.050   1.384   6.784  0.3520  0.3280  0.3326
  116OSM    H3F12159   5.054   1.488   6.821 -1.8294  0.4449  0.3701
  116OSM    H3G12160   5.150   1.364   6.739  1.0439  0.1309  1.8875
  116OSM    C4F12161   5.038   1.287   6.905 -0.2536  0.3382  0.1529
  116OSM    H4F12162   5.053   1.188   6.857 -1.3996  0.2018  0.0387
  116OSM    H4G12163   4.940   1.301   6.955 -0.4953  3.1322 -0.9067
  116OSM    C5F12164   5.159   1.308   7.000  0.6104 -0.1233  0.2247
  116OSM    H5F12165   5.251   1.302   6.938  0.7781 -2.9930  0.6281
  116OSM    H5G12166   5.169   1.223   7.071  2.5654 -1.4534 -1.5255
  116OSM    C6F12167   5.159   1.446   7.078  0.3054 -0.0082 -0.0561
  116OSM    H6F12168   5.062   1.449   7.133  0.0959 -1.2966 -0.3140
  116OSM    H6G12169   5.170   1.537   7.015 -1.4384  2.4476  2.9236
  116OSM    C7F12170   5.272   1.441   7.187  0.3219 -0.2136 -0.5308
  116OSM    H7F12171   5.366   1.464   7.132  0.1412  1.6864 -0.1068
  116OSM    H7G12172   5.261   1.348   7.246  1.3795 -0.4684 -0.7215
  116OSM    C8F12173   5.269   1.569   7.283  0.6136  0.3451  0.1721
  116OSM    H8F12174   5.262   1.654   7.212  1.8397 -0.0109 -0.4091
  116OSM    H8G12175   5.372   1.573   7.323  0.6303  2.2615  0.0573
  116OSM    C9F12176   5.145   1.564   7.380  0.2899 -0.2269 -0.2989
  116OSM    H9F12177   5.045   1.557   7.335  0.2505 -0.6857 -0.1451
  116OSM   C10F12178   5.149   1.583   7.515  0.0766  0.3213  0.3470
  116OSM   H10F12179   5.058   1.561   7.573  0.1610 -2.4533 -0.4212
  116OSM   C11F12180   5.284   1.597   7.588  0.4279 -0.1372 -0.0620
  116OSM   H11F12181   5.348   1.675   7.543 -1.3872  0.7533 -1.1929
  116OSM   H11G12182   5.347   1.505   7.587  0.5250 -0.1440  1.8120
  116OSM   C12F12183   5.274   1.620   7.743  0.6361 -0.4056  0.6156
  116OSM   H12F12184   5.185   1.686   7.747  2.0732  2.0250 -2.5586
  116OSM   H12G12185   5.361   1.680   7.777  1.5742 -1.8862  0.8771
  116OSM   C13F12186   5.247   1.498   7.826  0.2189 -0.0439  0.2112
  116OSM   H13F12187   5.332   1.428   7.810 -0.5916 -1.5080  2.0098
  116OSM   H13G12188   5.155   1.448   7.791  1.1396 -1.0115 -0.9283
  116OSM   C14F12189   5.246   1.526   7.983 -0.3457  0.1901  0.3678
  116OSM   H14F12190   5.141   1.549   8.014 -0.8639 -1.7033  0.1519
  116OSM   H14G12191   5.307   1.613   8.017  0.5760 -0.1415 -0.4145
  116OSM   C15F12192   5.295   1.410   8.074 -0.9530  0.3767  0.0672
  116OSM   H15F12193   5.394   1.366   8.049 -1.1974 -0.5642  0.6876
  116OSM   H15G12194   5.230   1.320   8.065  0.7967 -1.2624  2.5404
  116OSM   C16F12195   5.281   1.459   8.223  0.1101  0.3649  0.1246
  116OSM   H16F12196   5.192   1.524   8.236  0.1274  0.1240  1.7726
  116OSM   H16G12197   5.366   1.528   8.238  0.1154  0.7013 -1.3573
  116OSM   C17F12198   5.271   1.348   8.329  0.1233 -0.0921 -0.2452
  116OSM   H17F12199   5.177   1.291   8.318  0.0872  0.0091 -0.4496
  116OSM   H17G12200   5.265   1.404   8.425 -0.6952 -2.4225  1.1383
  116OSM   C18F12201   5.390   1.248   8.327 -0.3529 -1.0144  0.3371
  116OSM   H18F12202   5.411   1.190   8.235  0.3440 -1.2668  0.6510
  116OSM   H18G12203   5.365   1.195   8.421 -0.7974  0.9127  1.3739
  116OSM   H18H12204   5.488   1.298   8.338 -1.3131  1.4221 -1.2179
  117OSM      N12205   4.263   4.657   6.182  0.2419 -0.0197  0.4695
  117OSM    C1512206   4.212   4.767   6.096  0.4842  0.4973  0.7014
  117OSM   H15A12207   4.251   4.865   6.118 -0.2813  0.9904 -0.0914
  117OSM   H15B12208   4.104   4.769   6.104  0.4227 -0.5968  0.3395
  117OSM   H15C12209   4.228   4.753   5.990  0.5781 -0.3848  0.8227
  117OSM    C1412210   4.257   4.530   6.104  0.7132  0.4378 -0.2073
  117OSM   H14A12211   4.310   4.550   6.012  1.5749  0.0988  0.2001
  117OSM   H14B12212   4.154   4.514   6.076  1.2780  0.8728 -2.8129
  117OSM   H14C12213   4.309   4.446   6.148 -0.7697  0.5281  1.8337
  117OSM    C1312214   4.404   4.685   6.212 -0.2378  0.5919 -0.6663
  117OSM   H13A12215   4.442   4.609   6.279  0.8179 -0.7690 -2.7035
  117OSM   H13B12216   4.417   4.781   6.261  0.4192 -0.8375  2.2259
  117OSM   H13C12217   4.463   4.680   6.122 -0.2279 -0.8212 -0.5965
  117OSM    C1212218   4.181   4.642   6.309 -0.3623 -0.7364  0.4311
  117OSM   H12A12219   4.200   4.740   6.352 -0.9993 -0.4479  0.0685
  117OSM   H12B12220   4.224   4.572   6.379 -0.1540 -2.2938 -1.1898
  117OSM    C1112221   4.030   4.613   6.317  0.0979 -0.3094 -0.2522
  117OSM   H11A12222   4.000   4.606   6.424 -0.3977 -1.5034 -0.4530
  117OSM   H11B12223   4.017   4.512   6.273  1.1115 -1.4638  1.9564
  117OSM      P12224   3.878   4.828   6.306 -0.2186  0.1911 -0.1434
  117OSM    O1312225   3.988   4.908   6.360  0.2171 -0.3083  0.1374
  117OSM    O1412226   3.795   4.890   6.202 -0.0778 -0.1867 -0.0864
  117OSM    O1112227   3.779   4.777   6.420 -0.5147  0.6810  0.2005
  117OSM    O1212228   3.944   4.700   6.241 -0.3555  0.4616 -0.2815
  117OSM    C1S12229   3.715   4.652   6.442  0.2202  0.6311  0.4434
  117OSM    H1S12230   3.751   4.571   6.375  3.7600  0.2796  2.5093
  117OSM    H1T12231   3.606   4.670   6.430  0.1841 -0.1115 -0.4750
  117OSM     NF12232   3.721   4.455   6.601 -0.2721  0.5220  0.1906
  117OSM    HNF12233   3.635   4.424   6.640  0.4118  0.5782  1.8444
  117OSM    C2S12234   3.737   4.598   6.591 -0.8035 -0.1152  0.2230
  117OSM    H2S12235   3.844   4.619   6.616 -0.2854 -2.8929  0.6836
  117OSM    C3S12236   3.649   4.685   6.684  0.2493 -0.4235 -0.1376
  117OSM    H3S12237   3.539   4.678   6.671 -0.3720  2.9975  2.0599
  117OSM     O312238   3.672   4.822   6.676 -0.0937 -0.0879  1.0035
  117OSM    HO312239   3.726   4.839   6.598 -0.8325  1.2981  0.7657
  117OSM    C4S12240   3.682   4.648   6.828 -0.2937  0.0035 -0.7217
  117OSM    H4S12241   3.789   4.644   6.853 -0.7636 -1.3293  1.3738
  117OSM    C5S12242   3.586   4.595   6.907  0.5367  0.4112  0.4508
  117OSM    H5S12243   3.485   4.574   6.868  0.9698 -3.1745  0.8916
  117OSM    C6S12244   3.613   4.546   7.041 -0.2630  0.1484 -0.5934
  117OSM    H6S12245   3.719   4.533   7.069 -0.7544 -1.8715  0.4855
  117OSM    H6T12246   3.576   4.441   7.045  1.9575 -0.6722 -0.3379
  117OSM    C7S12247   3.537   4.630   7.147  0.3060 -0.0583 -0.2751
  117OSM    H7S12248   3.534   4.584   7.248 -1.7807 -0.8111 -0.6226
  117OSM    H7T12249   3.429   4.627   7.121  0.1085  0.1619  0.5084
  117OSM    C8S12250   3.593   4.777   7.161 -0.6719 -0.0925  0.3055
  117OSM    H8S12251   3.584   4.825   7.062  0.4888 -0.5318 -0.0320
  117OSM    H8T12252   3.698   4.769   7.197 -0.8861 -1.0082  0.7836
  117OSM    C9S12253   3.503   4.864   7.255 -0.0240 -0.0338  0.0125
  117OSM    H9S12254   3.469   4.802   7.340  2.4525  1.0832  1.9329
  117OSM    H9T12255   3.413   4.902   7.201 -0.8875 -0.5368  1.0701
  117OSM   C10S12256   3.579   4.984   7.316 -1.1567  0.3741 -0.2032
  117OSM   H10S12257   3.516   5.075   7.322  0.4640  1.4725  2.6647
  117OSM   H10T12258   3.662   5.016   7.250 -0.2825 -0.4217  0.4784
  117OSM   C11S12259   3.638   4.959   7.452  0.2010  0.6468  0.0430
  117OSM   H11S12260   3.725   4.892   7.436  1.6221  2.4425 -0.0662
  117OSM   H11T12261   3.558   4.914   7.516  0.1531 -1.8995 -1.6501
  117OSM   C12S12262   3.692   5.091   7.503 -0.1482  0.3891 -0.0893
  117OSM   H12S12263   3.606   5.149   7.543  0.3615  0.4562  0.9556
  117OSM   H12T12264   3.757   5.145   7.431  1.1295  1.1184  1.5419
  117OSM   C13S12265   3.783   5.087   7.625 -0.2118  0.7470 -0.2009
  117OSM   H13S12266   3.796   5.180   7.685 -1.2878  1.2145 -0.6755
  117OSM   H13T12267   3.883   5.062   7.585 -0.7985 -1.6786 -0.2876
  117OSM   C14S12268   3.736   4.971   7.725  0.3712  0.2099 -0.3988
  117OSM   H14S12269   3.761   4.869   7.687  0.4056 -0.1935  0.6683
  117OSM   H14T12270   3.629   4.993   7.744  0.9951  2.9194  0.3645
  117OSM   C15S12271   3.806   4.980   7.866  0.6167 -0.2564  0.2334
  117OSM   H15S12272   3.802   5.090   7.881 -0.7393 -0.3160  0.5051
  117OSM   H15T12273   3.907   4.935   7.862  0.9330  0.2694  1.6002
  117OSM   C16S12274   3.727   4.903   7.974  0.8140  0.6524 -0.0917
  117OSM   H16S12275   3.695   4.802   7.942 -1.8320  1.0295  1.1516
  117OSM   H16T12276   3.632   4.954   7.999  1.2120  2.0457 -1.3098
  117OSM   C17S12277   3.803   4.895   8.102 -0.2880 -0.4577 -0.5583
  117OSM   H17S12278   3.820   4.997   8.142  1.4467 -0.8311 -0.2523
  117OSM   H17T12279   3.907   4.859   8.084  0.2741  1.3527 -1.2200
  117OSM   C18S12280   3.735   4.801   8.202  0.2239  0.0564 -0.2089
  117OSM   H18S12281   3.790   4.793   8.298  0.2850  1.9128 -0.0565
  117OSM   H18T12282   3.720   4.700   8.158 -0.3538  0.1626 -0.2550
  117OSM   H18U12283   3.634   4.846   8.211  0.2271 -0.3884  2.9797
  117OSM    C1F12284   3.802   4.361   6.552 -0.2441 -0.1080  0.2039
  117OSM     OF12285   3.915   4.387   6.516  0.5276  0.6111 -0.0813
  117OSM    C2F12286   3.745   4.221   6.545  0.4575 -0.0629  0.3726
  117OSM    H2F12287   3.738   4.184   6.440 -1.2146 -1.6646  0.9922
  117OSM    H2G12288   3.643   4.223   6.589 -0.9283  0.7806 -2.5938
  117OSM    C3F12289   3.826   4.105   6.613 -0.8779  0.5040  0.1003
  117OSM    H3F12290   3.932   4.134   6.596 -0.5310 -0.6084  0.2900
  117OSM    H3G12291   3.811   4.006   6.566  2.9398 -1.4026  2.3934
  117OSM    C4F12292   3.817   4.076   6.763  0.1955  0.7785  0.2704
  117OSM    H4F12293   3.890   4.003   6.802 -0.3732  1.6665  3.2403
  117OSM    H4G12294   3.712   4.048   6.789  0.5257 -1.2762 -0.4887
  117OSM    C5F12295   3.848   4.208   6.838  0.1194  0.6078  0.1386
  117OSM    H5F12296   3.767   4.282   6.823 -1.0421 -0.7068 -0.2437
  117OSM    H5G12297   3.943   4.248   6.796  1.2892 -0.8208  1.3149
  117OSM    C6F12298   3.860   4.193   6.990  0.2257  0.1771 -0.1234
  117OSM    H6F12299   3.776   4.139   7.039  0.8486  0.3374  1.1513
  117OSM    H6G12300   3.847   4.295   7.032 -0.4392  0.2195 -0.4126
  117OSM    C7F12301   3.997   4.136   7.037  0.1106  0.6771  0.5330
  117OSM    H7F12302   4.077   4.198   6.993  0.4956 -1.4455 -1.9989
  117OSM    H7G12303   4.016   4.035   6.994  2.4118  1.4511 -0.3677
  117OSM    C8F12304   4.000   4.130   7.193 -0.5044  0.0690 -0.9160
  117OSM    H8F12305   3.940   4.217   7.226 -0.6744 -0.2384 -0.4012
  117OSM    H8G12306   4.105   4.150   7.223 -0.5216  1.2060 -1.5488
  117OSM    C9F12307   3.965   3.998   7.258 -0.5042  0.7845  0.2324
  117OSM    H9F12308   3.869   3.960   7.220 -0.5685  2.1052 -1.0168
  117OSM   C10F12309   4.025   3.941   7.369  0.5122 -0.1220  0.5166
  117OSM   H10F12310   3.979   3.851   7.412 -0.4458  0.1215  0.0141
  117OSM   C11F12311   4.143   3.996   7.444 -0.4941 -0.4330 -0.2037
  117OSM   H11F12312   4.148   4.107   7.431  0.8666 -0.3581  0.8245
  117OSM   H11G12313   4.234   3.953   7.398 -0.5050  0.7159 -1.3717
  117OSM   C12F12314   4.114   3.975   7.593 -0.3960  0.3430 -0.0065
  117OSM   H12F12315   4.200   3.993   7.660 -0.1470  0.7272 -0.4220
  117OSM   H12G12316   4.087   3.869   7.615 -1.2727  0.6578  0.4708
  117OSM   C13F12317   4.000   4.063   7.650 -0.6651 -0.4858 -0.0849
  117OSM   H13F12318   3.912   4.063   7.583 -0.4896  5.3156 -0.7978
  117OSM   H13G12319   4.041   4.166   7.649  2.2034 -1.5189  1.4268
  117OSM   C14F12320   3.980   4.054   7.800  0.1493  0.2185 -0.2572
  117OSM   H14F12321   4.061   4.099   7.862  0.4788 -1.5885  0.7166
  117OSM   H14G12322   3.977   3.947   7.833  0.9276  0.2475 -0.0749
  117OSM   C15F12323   3.858   4.124   7.852 -0.7069 -0.2777 -0.2145
  117OSM   H15F12324   3.763   4.085   7.811 -0.2784 -1.5031 -0.0649
  117OSM   H15G12325   3.862   4.233   7.826 -1.4333 -0.2717 -0.2977
  117OSM   C16F12326   3.852   4.115   8.006 -0.1240  0.2864  0.0922
  117OSM   H16F12327   3.946   4.163   8.041 -0.8660  1.4298  0.5816
  117OSM   H16G12328   3.839   4.008   8.034  1.5692 -0.0753 -0.4165
  117OSM   C17F12329   3.729   4.183   8.064  0.7925  0.2034  1.0525
  117OSM   H17F12330   3.638   4.143   8.015  0.3589  0.0980  1.9241
  117OSM   H17G12331   3.716   4.147   8.168 -0.2035 -1.1272  0.5106
  117OSM   C18F12332   3.735   4.336   8.055  0.6483 -0.4757 -0.6711
  117OSM   H18F12333   3.752   4.378   7.954  1.2788 -1.1725 -0.8621
  117OSM   H18G12334   3.810   4.371   8.129  2.3249 -0.6934 -2.2235
  117OSM   H18H12335   3.637   4.372   8.093  0.2706 -1.5427 -0.5825
  118OSM      N12336   6.651   6.692   6.003  0.1941 -0.3969  0.0972
  118OSM    C1512337   6.544   6.593   6.009  0.6097  0.3060  0.1127
  118OSM   H15A12338   6.584   6.497   5.982  2.5301  0.7766  1.1301
  118OSM   H15B12339   6.461   6.619   5.945  0.9660  2.5355  0.4464
  118OSM   H15C12340   6.501   6.599   6.108 -1.3286  1.2799 -0.7373
  118OSM    C1412341   6.681   6.717   5.863 -0.6139  0.9471  0.3625
  118OSM   H14A12342   6.748   6.801   5.851 -2.3437  2.1106 -2.1338
  118OSM   H14B12343   6.598   6.757   5.806 -1.1863  1.4894  1.5376
  118OSM   H14C12344   6.723   6.629   5.819  0.3259  1.5682 -0.0198
  118OSM    C1312345   6.590   6.821   6.068  0.1984 -0.3411  0.1754
  118OSM   H13A12346   6.655   6.908   6.061 -0.0914 -0.2385 -2.9603
  118OSM   H13B12347   6.565   6.816   6.172  2.3509 -1.8781  0.6804
  118OSM   H13C12348   6.504   6.862   6.017  0.3388  1.0573  1.0163
  118OSM    C1212349   6.767   6.658   6.087  0.1009  0.0509 -0.0423
  118OSM   H12A12350   6.727   6.652   6.186  0.0564  1.8311  0.0873
  118OSM   H12B12351   6.833   6.743   6.098  0.1844  0.0230 -0.3000
  118OSM    C1112352   6.847   6.534   6.053 -0.0525  0.2583 -0.4325
  118OSM   H11A12353   6.935   6.531   6.121 -1.4621 -0.8415  1.4370
  118OSM   H11B12354   6.886   6.547   5.950  4.0588 -2.8254  0.4666
  118OSM      P12355   6.731   6.359   6.203  0.0175  0.4585  0.4709
  118OSM    O1312356   6.685   6.473   6.285 -0.1098 -0.3900  0.1816
  118OSM    O1412357   6.638   6.245   6.180  0.4496  0.0521  0.5639
  118OSM    O1112358   6.875   6.307   6.248  0.1678  0.0767  0.0186
  118OSM    O1212359   6.766   6.421   6.058 -0.0478  0.8380  0.2409
  118OSM    C1S12360   6.904   6.275   6.389  0.0414 -0.2691  0.2107
  118OSM    H1S12361   6.870   6.363   6.447 -1.9649 -0.6783 -0.2663
  118OSM    H1T12362   7.015   6.270   6.398  0.0480 -1.4903 -0.2568
  118OSM     NF12363   6.873   6.147   6.595 -0.0604  0.4716 -0.3172
  118OSM    HNF12364   6.943   6.081   6.619 -0.7716 -0.2376 -0.1304
  118OSM    C2S12365   6.833   6.153   6.457  0.1782  0.1425  0.4052
  118OSM    H2S12366   6.722   6.161   6.457  0.1790  0.1493  0.3851
  118OSM    C3S12367   6.865   6.029   6.370 -0.9191  1.1146 -0.0356
  118OSM    H3S12368   6.974   6.007   6.371 -1.1947 -0.4064 -0.5758
  118OSM     O312369   6.844   6.044   6.229  0.5850  0.1412  0.2344
  118OSM    HO312370   6.799   6.127   6.218  0.7166  0.1783 -0.0505
  118OSM    C4S12371   6.811   5.901   6.435  0.2795 -0.0595  0.1330
  118OSM    H4S12372   6.863   5.863   6.524 -0.7877  0.6179  1.0765
  118OSM    C5S12373   6.701   5.836   6.383 -0.0784  0.2946 -0.0434
  118OSM    H5S12374   6.651   5.866   6.291 -1.5194 -1.0936  0.2548
  118OSM    C6S12375   6.633   5.716   6.444  0.2340  0.2677  0.4616
  118OSM    H6S12376   6.675   5.626   6.393 -0.1331 -0.0919  0.7787
  118OSM    H6T12377   6.525   5.716   6.420  0.1587 -0.0004  0.7845
  118OSM    C7S12378   6.643   5.704   6.599 -0.6301  0.0524  0.2732
  118OSM    H7S12379   6.573   5.774   6.651  0.2685 -0.9118  2.9314
  118OSM    H7T12380   6.752   5.718   6.617 -0.5663 -0.0071 -0.0619
  118OSM    C8S12381   6.618   5.560   6.633 -0.2829 -0.2376 -0.0118
  118OSM    H8S12382   6.707   5.511   6.589 -1.7323 -2.0587 -1.0667
  118OSM    H8T12383   6.524   5.535   6.580  0.0238 -0.1762 -0.5856
  118OSM    C9S12384   6.615   5.527   6.779 -0.2019 -0.2550 -0.0121
  118OSM    H9S12385   6.546   5.589   6.840 -0.5204  0.3749 -0.9973
  118OSM    H9T12386   6.712   5.532   6.833  0.5198  2.2792 -1.3832
  118OSM   C10S12387   6.570   5.381   6.805 -0.1043  0.1188 -0.2766
  118OSM   H10S12388   6.625   5.306   6.745 -0.8369  1.7286 -3.1093
  118OSM   H10T12389   6.463   5.376   6.776 -0.2972 -0.3175  0.4722
  118OSM   C11S12390   6.574   5.327   6.949  0.4661  0.3001 -0.0504
  118OSM   H11S12391   6.542   5.401   7.025  2.5495  1.6870 -0.4545
  118OSM   H11T12392   6.681   5.322   6.977  0.0909 -0.2834  1.3782
  118OSM   C12S12393   6.511   5.184   6.965 -0.9945 -0.0038  1.3515
  118OSM   H12S12394   6.529   5.111   6.883 -0.3989 -0.7754  2.1529
  118OSM   H12T12395   6.400   5.193   6.965 -0.9781  0.2651  0.5870
  118OSM   C13S12396   6.561   5.129   7.097 -0.1139  0.6565  0.0351
  118OSM   H13S12397   6.672   5.127   7.096 -0.1259 -0.5929 -1.2908
  118OSM   H13T12398   6.523   5.026   7.114 -2.3269  1.2734 -0.9154
  118OSM   C14S12399   6.523   5.210   7.222  0.2789 -0.2157  0.1139
  118OSM   H14S12400   6.412   5.208   7.230  0.2620 -0.6005 -0.2026
  118OSM   H14T12401   6.556   5.316   7.228 -0.3781  0.1366 -1.8475
  118OSM   C15S12402   6.564   5.134   7.351 -0.1967 -0.2415 -0.2169
  118OSM   H15S12403   6.670   5.103   7.355 -0.3550 -0.8009 -0.2976
  118OSM   H15T12404   6.501   5.042   7.356  1.3789 -1.3841 -0.7549
  118OSM   C16S12405   6.538   5.221   7.481 -0.1954  0.5628 -0.2679
  118OSM   H16S12406   6.437   5.268   7.482  0.3160  1.6951  0.3300
  118OSM   H16T12407   6.614   5.301   7.467  1.3104 -0.7124  0.2692
  118OSM   C17S12408   6.572   5.134   7.606  0.1964 -0.1806  0.3311
  118OSM   H17S12409   6.524   5.034   7.595  0.6763 -0.4233  0.4003
  118OSM   H17T12410   6.519   5.182   7.691 -1.9102  1.8588 -1.9819
  118OSM   C18S12411   6.714   5.121   7.631 -0.5568  1.0265 -0.3292
  118OSM   H18S12412   6.758   5.222   7.621  0.1167  0.8643  0.7644
  118OSM   H18T12413   6.757   5.060   7.549 -0.2226  1.9852 -0.8806
  118OSM   H18U12414   6.737   5.068   7.726 -0.5385  2.0278  0.2326
  118OSM    C1F12415   6.828   6.235   6.684 -0.1398  0.2284  0.6443
  118OSM     OF12416   6.743   6.308   6.643  0.2371 -0.1945  0.6499
  118OSM    C2F12417   6.886   6.236   6.819  0.0456  0.1043 -0.4535
  118OSM    H2F12418   6.937   6.334   6.828  0.0989  0.1848 -1.5077
  118OSM    H2G12419   6.963   6.156   6.824 -0.4415 -0.3229  3.4335
  118OSM    C3F12420   6.787   6.212   6.935  0.1721  0.3873  0.2961
  118OSM    H3F12421   6.721   6.301   6.932 -1.5746 -0.8483 -2.5372
  118OSM    H3G12422   6.837   6.190   7.032 -1.3087 -2.9943  0.4147
  118OSM    C4F12423   6.696   6.084   6.916 -0.6379  0.4113  0.3297
  118OSM    H4F12424   6.641   6.096   6.820  1.7012  2.8858 -0.8386
  118OSM    H4G12425   6.627   6.092   7.002  0.0758  2.8885  0.7422
  118OSM    C5F12426   6.781   5.962   6.939  0.2621  0.3459  0.8142
  118OSM    H5F12427   6.827   5.964   7.039  0.9135 -1.1451  0.5680
  118OSM    H5G12428   6.863   5.975   6.865 -1.5538  1.0841 -1.1984
  118OSM    C6F12429   6.708   5.826   6.925  0.1218 -0.1280 -0.4703
  118OSM    H6F12430   6.787   5.748   6.918  1.3837  1.1756 -1.5867
  118OSM    H6G12431   6.649   5.828   6.831 -1.1560 -2.4193  0.2013
  118OSM    C7F12432   6.622   5.774   7.043  0.0276 -0.1883 -0.0672
  118OSM    H7F12433   6.547   5.702   7.005 -0.3336  0.6180 -0.9136
  118OSM    H7G12434   6.575   5.864   7.087  1.1657  0.7071 -0.6155
  118OSM    C8F12435   6.719   5.718   7.150  0.3743  0.0367  0.7264
  118OSM    H8F12436   6.774   5.803   7.196  2.8040  0.0102 -1.8175
  118OSM    H8G12437   6.796   5.659   7.096 -0.6956  0.4827 -1.4019
  118OSM    C9F12438   6.647   5.631   7.251  0.2410  0.0071 -0.4017
  118OSM    H9F12439   6.556   5.579   7.217 -0.4110  2.3578 -2.5435
  118OSM   C10F12440   6.693   5.609   7.378 -0.2574 -0.4665  0.0952
  118OSM   H10F12441   6.637   5.536   7.438  0.9120 -1.6711 -0.2514
  118OSM   C11F12442   6.812   5.666   7.444 -0.2108  0.2121  0.2049
  118OSM   H11F12443   6.858   5.746   7.382  1.4772 -2.4613 -2.2241
  118OSM   H11G12444   6.897   5.595   7.451 -0.9705 -0.6194  1.3372
  118OSM   C12F12445   6.776   5.710   7.586  0.1245 -0.2296  1.0713
  118OSM   H12F12446   6.677   5.760   7.596 -0.9500 -2.1955  0.6670
  118OSM   H12G12447   6.828   5.802   7.622  1.5867 -0.0714 -1.2496
  118OSM   C13F12448   6.781   5.596   7.692  0.1448  0.1542  0.9576
  118OSM   H13F12449   6.867   5.531   7.667 -0.1101  0.4722 -0.8826
  118OSM   H13G12450   6.699   5.521   7.681  0.8282 -0.8048  2.1175
  118OSM   C14F12451   6.794   5.656   7.830 -0.3308 -0.3776 -0.0118
  118OSM   H14F12452   6.733   5.596   7.901 -2.4809 -1.5428 -2.6572
  118OSM   H14G12453   6.754   5.759   7.839 -0.4881 -0.3577 -0.8755
  118OSM   C15F12454   6.930   5.652   7.878 -0.0471  0.2583  0.8828
  118OSM   H15F12455   6.985   5.717   7.807  1.3309 -0.4199  1.2969
  118OSM   H15G12456   6.973   5.551   7.866  2.2422  1.1601  1.0455
  118OSM   C16F12457   6.944   5.690   8.025  0.1895 -0.2095 -0.1104
  118OSM   H16F12458   6.883   5.629   8.095  0.7896 -0.7433 -0.0434
  118OSM   H16G12459   6.917   5.796   8.047  0.9835 -0.4907  2.5405
  118OSM   C17F12460   7.081   5.660   8.085 -0.3534  0.8094  0.5354
  118OSM   H17F12461   7.085   5.705   8.186 -0.4914  3.5924 -0.6114
  118OSM   H17G12462   7.145   5.723   8.019 -1.4215  1.4625  0.1086
  118OSM   C18F12463   7.126   5.515   8.083  0.5808 -0.3876 -0.5314
  118OSM   H18F12464   7.052   5.456   8.140  0.4998  0.3792  0.1731
  118OSM   H18G12465   7.221   5.499   8.139  0.6639  0.2109 -0.4900
  118OSM   H18H12466   7.136   5.472   7.981 -1.5819 -0.8747 -0.5850
  119OSM      N12467   0.626   6.457   5.528 -0.3385 -0.0213 -0.3522
  119OSM    C1512468   0.706   6.328   5.555  0.6438 -0.1285  0.0522
  119OSM   H15A12469   0.677   6.246   5.491 -0.8001 -1.5168  2.3231
  119OSM   H15B12470   0.686   6.292   5.655  1.4666 -0.5784  0.0571
  119OSM   H15C12471   0.811   6.345   5.540  0.7805 -1.9534 -1.4595
  119OSM    C1412472   0.642   6.476   5.381 -0.8172 -0.2627  0.3136
  119OSM   H14A12473   0.606   6.385   5.336 -0.9476 -0.0553 -0.0048
  119OSM   H14B12474   0.740   6.466   5.336 -1.5957 -0.1505 -1.4891
  119OSM   H14C12475   0.592   6.560   5.335  0.7603  1.1515  1.0610
  119OSM    C1312476   0.487   6.438   5.570 -0.2537 -0.3470 -0.0291
  119OSM   H13A12477   0.418   6.517   5.542  0.3949  0.8976  1.7115
  119OSM   H13B12478   0.479   6.438   5.678 -0.3701 -0.9811 -0.0312
  119OSM   H13C12479   0.447   6.342   5.540 -1.7358  0.6264 -1.3136
  119OSM    C1212480   0.681   6.578   5.597 -0.2834  0.5605  0.0688
  119OSM   H12A12481   0.646   6.670   5.553  0.7479  1.3024  0.7446
  119OSM   H12B12482   0.789   6.583   5.587 -0.1593 -0.4462  0.7134
  119OSM    C1112483   0.656   6.581   5.756 -0.3746  0.6233  0.0651
  119OSM   H11A12484   0.549   6.609   5.765 -0.2814  0.8103  0.6469
  119OSM   H11B12485   0.715   6.668   5.794 -1.5684  0.1676  3.3320
  119OSM      P12486   0.855   6.445   5.861 -0.3581  0.1032  0.2040
  119OSM    O1312487   0.883   6.304   5.897 -0.1023 -0.1367 -0.2205
  119OSM    O1412488   0.933   6.500   5.743  0.3523 -0.6566  0.2961
  119OSM    O1112489   0.862   6.537   5.992 -0.1010  0.3649 -0.4826
  119OSM    O1212490   0.701   6.461   5.828 -0.2675  0.2278  0.1199
  119OSM    C1S12491   0.784   6.500   6.113  0.3798  0.0211  0.1546
  119OSM    H1S12492   0.715   6.416   6.092  0.2833  0.2012 -0.2588
  119OSM    H1T12493   0.713   6.582   6.136 -1.0413 -1.1612  0.1343
  119OSM     NF12494   0.793   6.454   6.354  0.4596  0.4159  0.0514
  119OSM    HNF12495   0.761   6.530   6.411 -0.8490  0.1681 -0.3044
  119OSM    C2S12496   0.873   6.472   6.233 -0.2831  0.6535 -0.0289
  119OSM    H2S12497   0.931   6.381   6.209  2.3010  2.0708  0.4196
  119OSM    C3S12498   0.984   6.578   6.249 -0.9911 -0.1437 -0.3022
  119OSM    H3S12499   0.942   6.677   6.279 -0.7289  0.6673 -2.4290
  119OSM     O312500   1.070   6.597   6.140 -1.0797 -0.6447  0.4509
  119OSM    HO312501   1.018   6.568   6.065  1.2392  1.5618 -2.2561
  119OSM    C4S12502   1.067   6.544   6.370  0.9401 -0.3843  0.0754
  119OSM    H4S12503   1.127   6.452   6.364  1.2990 -0.3564  2.2914
  119OSM    C5S12504   1.063   6.602   6.496 -0.1357 -0.0793 -0.4639
  119OSM    H5S12505   1.008   6.695   6.513  0.6156  0.5953 -1.6242
  119OSM    C6S12506   1.144   6.546   6.610  0.3454  0.2246  0.0652
  119OSM    H6S12507   1.198   6.451   6.591  2.7217  1.0714  1.9596
  119OSM    H6T12508   1.076   6.534   6.697  0.9067  2.4887  0.8916
  119OSM    C7S12509   1.246   6.652   6.662  0.2689  0.1211  0.8346
  119OSM    H7S12510   1.212   6.757   6.649  0.0308 -0.2516 -2.4058
  119OSM    H7T12511   1.338   6.650   6.600  0.0792  2.9177  0.3338
  119OSM    C8S12512   1.281   6.628   6.806 -0.3793  0.3595  0.2608
  119OSM    H8S12513   1.379   6.675   6.826  1.0394 -2.3615  0.2291
  119OSM    H8T12514   1.284   6.518   6.824 -0.8937  0.3512  0.3306
  119OSM    C9S12515   1.172   6.684   6.904 -0.4886  0.5063  0.4500
  119OSM    H9S12516   1.084   6.618   6.889  1.9851 -3.0333  0.5412
  119OSM    H9T12517   1.135   6.783   6.870  1.7048  0.4627 -2.4397
  119OSM   C10S12518   1.215   6.669   7.056  0.2003  0.0215  0.0292
  119OSM   H10S12519   1.316   6.715   7.065 -1.0986  3.1622 -0.4803
  119OSM   H10T12520   1.226   6.560   7.077  0.6446  0.2727  1.1732
  119OSM   C11S12521   1.109   6.733   7.148 -0.1017  0.4092 -0.6326
  119OSM   H11S12522   1.007   6.697   7.124 -0.2857  0.4223  0.0868
  119OSM   H11T12523   1.110   6.844   7.141 -0.6939  0.4460 -0.2698
  119OSM   C12S12524   1.139   6.703   7.291  0.4776 -0.2109 -0.0951
  119OSM   H12S12525   1.210   6.772   7.341 -2.0037  1.3398  1.5533
  119OSM   H12T12526   1.168   6.598   7.315  0.8839 -0.4165 -1.4218
  119OSM   C13S12527   1.007   6.726   7.378 -0.9022 -0.4468  0.6369
  119OSM   H13S12528   0.932   6.662   7.328  0.2148  0.1030 -1.9295
  119OSM   H13T12529   0.983   6.834   7.367  2.1081  0.3191  0.5837
  119OSM   C14S12530   1.033   6.688   7.522  0.1257  0.2770  0.1566
  119OSM   H14S12531   1.084   6.591   7.541 -2.1618 -1.1385 -0.5419
  119OSM   H14T12532   0.931   6.683   7.567 -0.2930 -1.4749 -0.9145
  119OSM   C15S12533   1.097   6.799   7.613 -0.0675  0.4287  0.6377
  119OSM   H15S12534   1.071   6.907   7.600  2.0099  1.0453  1.2108
  119OSM   H15T12535   1.206   6.789   7.594 -0.1283 -1.5429  1.1141
  119OSM   C16S12536   1.073   6.750   7.752  0.1220  0.3897  0.0152
  119OSM   H16S12537   1.121   6.650   7.763  1.1426  0.5695 -2.3190
  119OSM   H16T12538   0.965   6.758   7.778  0.2505 -1.1794  1.1981
  119OSM   C17S12539   1.159   6.840   7.849 -0.3188  0.4903 -0.4767
  119OSM   H17S12540   1.150   6.947   7.822 -0.3580  0.4770 -0.5184
  119OSM   H17T12541   1.269   6.825   7.845 -0.3116 -0.2137  1.4319
  119OSM   C18S12542   1.121   6.828   7.999 -0.1728 -0.7604 -0.6488
  119OSM   H18S12543   1.015   6.854   8.020 -0.0045 -0.8388  0.3376
  119OSM   H18T12544   1.181   6.902   8.056 -2.4405  1.3700 -0.8594
  119OSM   H18U12545   1.132   6.724   8.035 -2.9012 -0.3340  1.8064
  119OSM    C1F12546   0.725   6.341   6.379 -1.0817  0.1849  0.4504
  119OSM     OF12547   0.758   6.238   6.320 -0.0756  0.6001  0.4929
  119OSM    C2F12548   0.614   6.341   6.486 -0.1647  0.6061  0.0045
  119OSM    H2F12549   0.522   6.304   6.435  0.3286 -0.3067 -0.2375
  119OSM    H2G12550   0.612   6.443   6.529 -1.1459  1.2850 -1.5725
  119OSM    C3F12551   0.644   6.232   6.593  0.1058  0.3912 -0.1984
  119OSM    H3F12552   0.694   6.142   6.552 -0.6418  0.4150 -1.2044
  119OSM    H3G12553   0.544   6.202   6.631  0.3827 -3.0679 -1.8620
  119OSM    C4F12554   0.745   6.274   6.707  0.6258  0.2102  0.1149
  119OSM    H4F12555   0.846   6.285   6.663  0.0212 -3.3275 -2.7026
  119OSM    H4G12556   0.749   6.183   6.770 -0.9793  1.4504  2.1327
  119OSM    C5F12557   0.699   6.394   6.786  0.2232  0.1446  0.3546
  119OSM    H5F12558   0.594   6.393   6.820  0.3731  2.1659  1.0374
  119OSM    H5G12559   0.728   6.480   6.721  1.3164  0.2788  1.0037
  119OSM    C6F12560   0.796   6.394   6.910  0.7883  0.6371  0.7342
  119OSM    H6F12561   0.898   6.394   6.867  0.0994 -1.3538 -1.1187
  119OSM    H6G12562   0.789   6.295   6.960  0.6774  1.5421  2.5971
  119OSM    C7F12563   0.779   6.506   7.015  0.1524  0.2286  0.9257
  119OSM    H7F12564   0.789   6.596   6.951  0.1557 -0.6240 -0.3109
  119OSM    H7G12565   0.867   6.502   7.083  0.4745  1.7631  0.6371
  119OSM    C8F12566   0.653   6.489   7.099  0.1705  0.2900  0.0562
  119OSM    H8F12567   0.674   6.392   7.149  0.7262  0.3225 -0.1080
  119OSM    H8G12568   0.566   6.474   7.032  0.4933 -0.2321 -0.2524
  119OSM    C9F12569   0.646   6.616   7.181 -0.0437 -0.0922 -0.4451
  119OSM    H9F12570   0.627   6.711   7.129  1.9906  0.3524 -0.4650
  119OSM   C10F12571   0.638   6.622   7.315  0.1343 -0.1674  0.1487
  119OSM   H10F12572   0.642   6.720   7.366 -3.1742 -0.0813  0.4625
  119OSM   C11F12573   0.657   6.513   7.425 -0.0782 -0.7983  0.8589
  119OSM   H11F12574   0.727   6.554   7.501 -0.4497  2.1995 -0.2754
  119OSM   H11G12575   0.712   6.425   7.384 -0.1234 -0.2920 -0.3269
  119OSM   C12F12576   0.534   6.449   7.487  0.4691 -0.4364 -0.0191
  119OSM   H12F12577   0.565   6.378   7.567 -1.0406  0.9465  1.8942
  119OSM   H12G12578   0.467   6.392   7.418  1.5153  0.1543 -1.5748
  119OSM   C13F12579   0.455   6.567   7.546  1.0288 -0.1752 -0.4455
  119OSM   H13F12580   0.431   6.639   7.465  2.4503 -1.5226 -2.1598
  119OSM   H13G12581   0.518   6.628   7.614  1.9634  1.5730 -2.7489
  119OSM   C14F12582   0.325   6.524   7.622 -0.1668 -0.1700 -0.4943
  119OSM   H14F12583   0.343   6.427   7.673 -0.2834  0.7310  1.3758
  119OSM   H14G12584   0.252   6.491   7.545 -0.5314 -2.1718  0.6400
  119OSM   C15F12585   0.267   6.617   7.723  0.1967  0.4797  0.1024
  119OSM   H15F12586   0.235   6.709   7.670  0.2350  0.5111  0.1343
  119OSM   H15G12587   0.347   6.648   7.793  1.4189 -0.8286 -0.6636
  119OSM   C16F12588   0.144   6.552   7.801 -0.0860  0.0669 -0.5272
  119OSM   H16F12589   0.182   6.452   7.830 -1.9444 -0.4557  0.2100
  119OSM   H16G12590   0.063   6.544   7.725 -1.7583  1.8842  0.9478
  119OSM   C17F12591   0.100   6.618   7.926 -0.3392  0.1490 -0.4209
  119OSM   H17F12592   0.058   6.719   7.907 -1.1461 -0.2659 -0.9146
  119OSM   H17G12593   0.183   6.631   7.999 -0.5061  0.1324 -0.2265
  119OSM   C18F12594  -0.013   6.537   7.997 -0.6868 -0.0083 -0.0453
  119OSM   H18F12595   0.026   6.448   8.050  2.8520  0.9139 -0.8192
  119OSM   H18G12596  -0.091   6.513   7.921 -0.1703  1.0462 -0.9484
  119OSM   H18H12597  -0.060   6.600   8.075 -1.9027  0.2946 -0.9870
  120OSM      N12598   4.743   2.150   6.146  0.5051 -0.1159 -0.4202
  120OSM    C1512599   4.668   2.048   6.228 -0.1516  0.0765 -0.1388
  120OSM   H15A12600   4.568   2.042   6.186 -0.6188  0.0340  0.9576
  120OSM   H15B12601   4.669   2.083   6.330  1.0307 -0.8104  0.1634
  120OSM   H15C12602   4.716   1.952   6.236  1.7028  1.1184  2.6975
  120OSM    C1412603   4.880   2.176   6.212 -0.5967  0.2701 -0.3624
  120OSM   H14A12604   4.869   2.206   6.315 -1.6368  1.2201 -0.7218
  120OSM   H14B12605   4.930   2.257   6.160 -2.8058  0.7116 -1.9541
  120OSM   H14C12606   4.936   2.084   6.220 -2.3470 -0.9810 -1.7206
  120OSM    C1312607   4.783   2.089   6.016  1.2919  0.4910  0.5636
  120OSM   H13A12608   4.841   2.000   6.038  0.6756  0.1807  0.9725
  120OSM   H13B12609   4.828   2.167   5.956 -0.2336  0.8443 -0.1534
  120OSM   H13C12610   4.694   2.058   5.963  1.7809 -2.3611  1.2297
  120OSM    C1212611   4.658   2.277   6.138  0.1660 -0.3101 -0.8057
  120OSM   H12A12612   4.733   2.348   6.106  0.5875 -0.9760 -1.3256
  120OSM   H12B12613   4.642   2.310   6.240  4.6199  2.2536 -0.6715
  120OSM    C1112614   4.522   2.277   6.057  0.2116 -0.5533 -0.3131
  120OSM   H11A12615   4.541   2.257   5.949 -2.4883 -1.8010 -0.6515
  120OSM   H11B12616   4.475   2.377   6.068 -0.5448 -0.7194 -1.8345
  120OSM      P12617   4.319   2.205   6.201 -0.2143  0.2281  0.1981
  120OSM    O1312618   4.223   2.292   6.134  0.3137 -0.3905  0.2789
  120OSM    O1412619   4.274   2.079   6.265  0.5317 -0.2744 -1.1470
  120OSM    O1112620   4.406   2.291   6.309 -0.0174 -0.3731  0.0554
  120OSM    O1212621   4.436   2.178   6.096 -0.4343  0.5445 -0.2099
  120OSM    C1S12622   4.351   2.353   6.424  0.1237  0.5279  0.9677
  120OSM    H1S12623   4.241   2.363   6.412  0.3125  1.8128  0.0183
  120OSM    H1T12624   4.392   2.456   6.433 -0.3343  0.8865 -0.6486
  120OSM     NF12625   4.300   2.339   6.667  0.1484 -0.0737 -0.1295
  120OSM    HNF12626   4.331   2.431   6.692 -0.4035 -0.0572  0.5230
  120OSM    C2S12627   4.371   2.272   6.555  0.2330  0.0229  0.0871
  120OSM    H2S12628   4.325   2.173   6.534  0.7282 -0.4141  1.0478
  120OSM    C3S12629   4.523   2.263   6.580 -0.6012 -0.7523 -0.2370
  120OSM    H3S12630   4.564   2.364   6.603 -1.0552 -0.7719  0.7259
  120OSM     O312631   4.599   2.218   6.470 -0.1876 -0.7009 -0.8341
  120OSM    HO312632   4.539   2.242   6.399 -0.4842 -3.0521 -1.4749
  120OSM    C4S12633   4.563   2.178   6.691  0.3575  0.4000  0.0115
  120OSM    H4S12634   4.525   2.074   6.691 -0.0903  0.5611 -0.3551
  120OSM    C5S12635   4.625   2.210   6.807 -0.9158  0.8639  0.2673
  120OSM    H5S12636   4.646   2.315   6.831  0.1239  0.1869  2.6654
  120OSM    C6S12637   4.679   2.117   6.918 -0.0819 -0.9098 -0.5473
  120OSM    H6S12638   4.781   2.147   6.951 -0.5789 -0.7970  0.9831
  120OSM    H6T12639   4.673   2.011   6.883 -1.2505 -0.5232 -1.5578
  120OSM    C7S12640   4.580   2.109   7.033 -0.4200  0.1535 -0.0696
  120OSM    H7S12641   4.553   2.206   7.080  1.0853  0.3905  0.3663
  120OSM    H7T12642   4.620   2.048   7.117 -1.2850 -1.8868 -1.0643
  120OSM    C8S12643   4.456   2.032   6.996 -0.3810  0.0387  0.3976
  120OSM    H8S12644   4.486   1.943   6.937  0.5909 -0.0874  1.0732
  120OSM    H8T12645   4.381   2.084   6.931 -0.7341 -0.5709  0.3133
  120OSM    C9S12646   4.378   1.985   7.120  0.1120 -0.3803  0.0095
  120OSM    H9S12647   4.445   1.943   7.198  0.1112  0.3135  0.3884
  120OSM    H9T12648   4.308   1.905   7.086 -0.3970 -0.2969  0.8303
  120OSM   C10S12649   4.287   2.090   7.188 -0.3218 -0.0771  0.4718
  120OSM   H10S12650   4.214   2.138   7.120 -0.4094 -0.7684  0.0677
  120OSM   H10T12651   4.354   2.167   7.232  0.3607  0.5603 -1.5226
  120OSM   C11S12652   4.199   2.046   7.306  0.0323  0.5537  1.0801
  120OSM   H11S12653   4.132   1.966   7.268 -0.3858  0.4243  2.0766
  120OSM   H11T12654   4.142   2.130   7.351  0.4875 -0.6297  4.0605
  120OSM   C12S12655   4.284   1.991   7.420  0.0010  0.2808  0.2510
  120OSM   H12S12656   4.344   2.068   7.473  2.4416 -2.7920  2.3132
  120OSM   H12T12657   4.354   1.911   7.388 -0.0012 -0.8353  2.8054
  120OSM   C13S12658   4.187   1.926   7.528  0.2454 -0.9798  0.1162
  120OSM   H13S12659   4.108   1.866   7.477 -1.0711  1.4193 -0.8350
  120OSM   H13T12660   4.136   2.008   7.583  0.2926 -2.2746  2.1532
  120OSM   C14S12661   4.248   1.856   7.650  0.4452 -0.3094 -0.1074
  120OSM   H14S12662   4.290   1.942   7.705 -1.4442  1.4099 -1.2327
  120OSM   H14T12663   4.340   1.799   7.623  1.5472  1.4691 -0.2878
  120OSM   C15S12664   4.143   1.781   7.733  0.1963 -0.1978 -0.0252
  120OSM   H15S12665   4.211   1.762   7.819 -1.8215  1.5004  2.0613
  120OSM   H15T12666   4.109   1.689   7.682 -0.0661 -0.6516  0.9535
  120OSM   C16S12667   4.033   1.867   7.775 -0.1486  0.0785 -0.1549
  120OSM   H16S12668   3.956   1.876   7.696 -1.8144  0.1646  1.3957
  120OSM   H16T12669   4.060   1.970   7.806  1.0034 -0.3821  0.4454
  120OSM   C17S12670   3.962   1.808   7.904 -0.3172 -0.2053  0.5106
  120OSM   H17S12671   4.026   1.811   7.995  0.7825  0.6801 -0.2634
  120OSM   H17T12672   3.937   1.702   7.882 -0.6570 -0.3695  1.6410
  120OSM   C18S12673   3.825   1.872   7.945 -0.4760 -0.2560  0.4679
  120OSM   H18S12674   3.787   1.827   8.039 -0.4876 -2.4805 -0.5290
  120OSM   H18T12675   3.749   1.870   7.864 -0.8045  0.0978  0.7673
  120OSM   H18U12676   3.843   1.979   7.970  2.2861 -0.7817  1.0792
  120OSM    C1F12677   4.177   2.309   6.711 -0.2170 -0.6888 -0.4035
  120OSM     OF12678   4.116   2.229   6.647 -0.0537 -0.0774  0.5229
  120OSM    C2F12679   4.126   2.369   6.834 -0.2137  0.3696 -0.3967
  120OSM    H2F12680   4.089   2.469   6.803  1.9862  1.2661 -0.2956
  120OSM    H2G12681   4.207   2.385   6.909 -0.2650 -0.1149 -0.2365
  120OSM    C3F12682   4.013   2.288   6.891  0.3539  0.1643 -0.1260
  120OSM    H3F12683   4.023   2.177   6.896  1.8261  0.2578 -0.7818
  120OSM    H3G12684   3.925   2.301   6.824  1.6748 -0.4139 -2.0329
  120OSM    C4F12685   3.961   2.336   7.034  0.6169 -0.2117 -0.0870
  120OSM    H4F12686   3.989   2.440   7.059 -0.5960 -0.2604  1.7217
  120OSM    H4G12687   4.019   2.278   7.109  0.9704  0.0326 -0.1738
  120OSM    C5F12688   3.811   2.311   7.055 -0.1052  0.7648 -0.0320
  120OSM    H5F12689   3.782   2.211   7.016  1.8897 -0.0527  0.4771
  120OSM    H5G12690   3.760   2.386   6.990 -1.8775  0.9185  1.4544
  120OSM    C6F12691   3.780   2.337   7.203  0.4945  0.1738 -0.8059
  120OSM    H6F12692   3.676   2.376   7.199  1.2399  2.4405  0.0635
  120OSM    H6G12693   3.844   2.419   7.242  0.8289  0.2965 -1.6029
  120OSM    C7F12694   3.809   2.216   7.298 -0.1346  0.8590 -0.2259
  120OSM    H7F12695   3.920   2.210   7.306 -0.3397 -2.0985  2.1055
  120OSM    H7G12696   3.782   2.117   7.256  1.0155  0.1478  0.6142
  120OSM    C8F12697   3.755   2.230   7.439 -0.0571  0.7283 -0.6267
  120OSM    H8F12698   3.799   2.316   7.494 -2.8892  1.2954  0.9554
  120OSM    H8G12699   3.785   2.139   7.496 -0.7776 -0.6834 -2.3985
  120OSM    C9F12700   3.607   2.241   7.437  0.1870 -0.5082 -0.5478
  120OSM    H9F12701   3.559   2.223   7.339 -2.0137  0.5312  0.2773
  120OSM   C10F12702   3.529   2.250   7.544 -0.7641 -0.2676  0.0321
  120OSM   H10F12703   3.422   2.263   7.523 -0.5571  1.9882  0.1089
  120OSM   C11F12704   3.558   2.263   7.691 -0.2181  0.0693 -0.2876
  120OSM   H11F12705   3.500   2.341   7.746  0.2323  1.5723 -1.8722
  120OSM   H11G12706   3.662   2.299   7.703 -0.0765 -0.6647  0.9681
  120OSM   C12F12707   3.533   2.126   7.757 -0.4049 -0.2192 -0.1702
  120OSM   H12F12708   3.605   2.048   7.727 -0.8045 -0.8399  0.4364
  120OSM   H12G12709   3.429   2.102   7.727 -0.8696  1.4745 -0.0754
  120OSM   C13F12710   3.525   2.133   7.912 -0.2482  0.1870  0.0930
  120OSM   H13F12711   3.463   2.224   7.923 -3.0737 -1.6441  0.5642
  120OSM   H13G12712   3.629   2.140   7.952 -0.1283 -0.0875 -0.1619
  120OSM   C14F12713   3.441   2.014   7.975  0.7869 -0.2053 -0.5673
  120OSM   H14F12714   3.491   1.924   7.933  0.8203 -1.0364  1.1674
  120OSM   H14G12715   3.340   2.027   7.931  1.3214 -0.3204 -1.8597
  120OSM   C15F12716   3.444   2.009   8.126 -0.2159 -0.0293 -0.4329
  120OSM   H15F12717   3.436   2.112   8.168  1.4338 -1.2738  3.4048
  120OSM   H15G12718   3.549   1.978   8.146  0.4236 -1.0103 -4.4542
  120OSM   C16F12719   3.333   1.924   8.184 -0.0976 -0.0170 -0.3017
  120OSM   H16F12720   3.334   1.830   8.125 -0.8660  1.0354 -2.0584
  120OSM   H16G12721   3.235   1.972   8.165  0.1230  0.2870 -0.6875
  120OSM   C17F12722   3.346   1.892   8.338  0.1303  0.2837  0.1858
  120OSM   H17F12723   3.352   1.988   8.395 -0.3250  0.1556  0.4536
  120OSM   H17G12724   3.444   1.842   8.351 -0.0730 -0.1961 -0.1162
  120OSM   C18F12725   3.229   1.805   8.396 -0.5488 -0.7208 -0.0363
  120OSM   H18F12726   3.222   1.707   8.345  2.9819 -1.9511  1.4881
  120OSM   H18G12727   3.137   1.868   8.399  1.1796  1.9791  0.0306
  120OSM   H18H12728   3.237   1.785   8.505  5.1981 -0.3202 -0.1024
  121OSM      N12729   6.559   4.372   5.675  0.5631  0.1453  0.4046
  121OSM    C1512730   6.464   4.362   5.559 -0.0326 -1.3316  0.2871
  121OSM   H15A12731   6.444   4.457   5.511 -0.4817 -1.1326  0.8472
  121OSM   H15B12732   6.372   4.312   5.586  0.0698 -1.1542  1.0076
  121OSM   H15C12733   6.495   4.301   5.476 -1.5282  0.2795 -1.5545
  121OSM    C1412734   6.593   4.229   5.720 -0.3835 -0.2487  0.1422
  121OSM   H14A12735   6.668   4.240   5.797 -0.6117 -1.3687  0.5289
  121OSM   H14B12736   6.622   4.178   5.629 -2.3319  0.2373 -0.7946
  121OSM   H14C12737   6.502   4.185   5.757  0.5137 -1.8560  0.5269
  121OSM    C1312738   6.694   4.439   5.633  0.3287 -0.2394 -0.1778
  121OSM   H13A12739   6.767   4.434   5.712 -0.1981  0.6736  0.3834
  121OSM   H13B12740   6.682   4.545   5.617 -0.3244  0.2367  2.9151
  121OSM   H13C12741   6.728   4.406   5.536  2.1226 -0.0216  0.3444
  121OSM    C1212742   6.488   4.450   5.782 -0.2178  0.3950 -0.8767
  121OSM   H12A12743   6.394   4.399   5.800  0.4400 -0.5762 -0.1276
  121OSM   H12B12744   6.476   4.550   5.741  4.5396  1.8855  0.7505
  121OSM    C1112745   6.537   4.471   5.927 -0.2710 -0.0766 -0.0483
  121OSM   H11A12746   6.518   4.378   5.986  0.0303  1.7318  3.1609
  121OSM   H11B12747   6.473   4.546   5.979  1.2592 -0.5867  2.8183
  121OSM      P12748   6.790   4.432   5.979 -0.4219  0.2973 -0.0863
  121OSM    O1312749   6.781   4.286   5.959  0.0136  0.1959 -0.7207
  121OSM    O1412750   6.925   4.482   5.942  0.3068  0.4272 -0.2239
  121OSM    O1112751   6.762   4.446   6.137  0.2225  0.3729  0.1009
  121OSM    O1212752   6.675   4.516   5.917 -0.7651  0.1283 -0.4316
  121OSM    C1S12753   6.750   4.579   6.195 -0.4774  0.2165  0.5596
  121OSM    H1S12754   6.668   4.637   6.148  0.9147  2.2508  0.5456
  121OSM    H1T12755   6.841   4.640   6.174  1.1211 -1.5411  1.9396
  121OSM     NF12756   6.682   4.698   6.406 -0.1414  0.4841 -0.3581
  121OSM    HNF12757   6.750   4.750   6.457 -0.7388  4.0149 -2.7834
  121OSM    C2S12758   6.728   4.569   6.349 -0.6049 -0.2433 -0.1636
  121OSM    H2S12759   6.644   4.499   6.366  0.1260 -0.5253  2.8878
  121OSM    C3S12760   6.864   4.510   6.416  0.5074 -0.0775  0.5051
  121OSM    H3S12761   6.936   4.588   6.384 -0.6446  0.0814 -1.8801
  121OSM     O312762   6.893   4.386   6.356 -0.9324  0.0237  0.6171
  121OSM    HO312763   6.858   4.401   6.268  3.0816  1.7067 -0.9655
  121OSM    C4S12764   6.859   4.505   6.567 -0.8217  0.2678 -0.1402
  121OSM    H4S12765   6.887   4.589   6.632 -3.7696 -0.4696  2.3147
  121OSM    C5S12766   6.816   4.398   6.627 -0.4387  0.1896  0.5706
  121OSM    H5S12767   6.780   4.311   6.569 -0.1377 -0.7509  1.7539
  121OSM    C6S12768   6.800   4.386   6.777  0.3205  0.2840  0.1533
  121OSM    H6S12769   6.694   4.355   6.791  0.1114 -0.2921 -2.2360
  121OSM    H6T12770   6.823   4.484   6.822  0.5086  1.1415 -1.6921
  121OSM    C7S12771   6.899   4.279   6.838 -0.2076  0.2861  0.8635
  121OSM    H7S12772   7.003   4.309   6.813 -0.8942  1.5006 -0.7467
  121OSM    H7T12773   6.874   4.183   6.789  0.9467  0.9205 -1.1128
  121OSM    C8S12774   6.878   4.251   6.990  0.6885  0.2344  0.4414
  121OSM    H8S12775   6.962   4.204   7.046 -0.3956  0.2819  2.1556
  121OSM    H8T12776   6.787   4.190   7.007  1.2142 -1.4979 -2.3346
  121OSM    C9S12777   6.864   4.380   7.071  0.3593  0.0693 -0.4411
  121OSM    H9S12778   6.773   4.433   7.036 -0.2095 -0.0168  0.8552
  121OSM    H9T12779   6.947   4.453   7.058 -0.1946  1.4976  2.9634
  121OSM   C10S12780   6.849   4.363   7.224  0.1452  0.4156 -0.4880
  121OSM   H10S12781   6.806   4.461   7.253  1.5205  1.4456 -1.7361
  121OSM   H10T12782   6.950   4.365   7.270  0.5604 -1.7551 -1.1735
  121OSM   C11S12783   6.766   4.240   7.268  0.4835  0.1701  0.3584
  121OSM   H11S12784   6.804   4.139   7.241 -0.6855 -0.5878  1.4233
  121OSM   H11T12785   6.664   4.247   7.224  1.0725 -4.0285 -2.1452
  121OSM   C12S12786   6.751   4.252   7.419 -0.1805 -0.7908  0.3978
  121OSM   H12S12787   6.739   4.354   7.461 -1.1800  0.5697 -2.8604
  121OSM   H12T12788   6.850   4.222   7.460 -1.2860 -3.1778  1.4654
  121OSM   C13S12789   6.648   4.157   7.481 -0.6207  0.0087  0.1034
  121OSM   H13S12790   6.656   4.152   7.592  2.1920  2.3702  0.1250
  121OSM   H13T12791   6.667   4.059   7.433 -1.6926 -1.0744  1.7957
  121OSM   C14S12792   6.508   4.211   7.451 -0.3358  0.5097  0.0363
  121OSM   H14S12793   6.439   4.139   7.500  0.4728 -0.7413 -0.6178
  121OSM   H14T12794   6.496   4.208   7.341  0.3196  0.4275 -0.0384
  121OSM   C15S12795   6.479   4.357   7.500 -0.9902  0.8033 -0.0760
  121OSM   H15S12796   6.376   4.384   7.471 -0.9014  0.8705 -0.3320
  121OSM   H15T12797   6.548   4.432   7.455  1.4996 -0.9977  0.4985
  121OSM   C16S12798   6.488   4.370   7.653 -0.1256 -0.0372 -0.9877
  121OSM   H16S12799   6.457   4.470   7.690  1.7748  0.3186 -0.2241
  121OSM   H16T12800   6.588   4.349   7.698 -1.3255 -1.4320  1.2368
  121OSM   C17S12801   6.389   4.277   7.726 -0.5371  0.0515 -0.0634
  121OSM   H17S12802   6.390   4.172   7.689  0.2980  0.4800 -1.3256
  121OSM   H17T12803   6.285   4.310   7.704 -0.5089  0.8426  0.9575
  121OSM   C18S12804   6.414   4.275   7.884  0.4997 -0.3198  0.3869
  121OSM   H18S12805   6.374   4.366   7.933  0.8590  0.9882 -1.5911
  121OSM   H18T12806   6.523   4.287   7.904  0.5185  2.8834 -0.9319
  121OSM   H18U12807   6.366   4.183   7.924  0.3649 -0.9200 -1.0581
  121OSM    C1F12808   6.564   4.757   6.384 -0.1339 -0.4630  0.2981
  121OSM     OF12809   6.470   4.694   6.335 -0.0358  0.1537  0.4044
  121OSM    C2F12810   6.564   4.899   6.420  0.3544 -0.3551 -0.0829
  121OSM    H2F12811   6.529   4.957   6.331  1.5129  0.3025 -0.1306
  121OSM    H2G12812   6.671   4.927   6.436  0.1605  2.9771 -3.2196
  121OSM    C3F12813   6.466   4.935   6.536  0.1146  0.4253 -0.5424
  121OSM    H3F12814   6.367   4.890   6.511  0.8231 -0.8464 -1.1590
  121OSM    H3G12815   6.448   5.043   6.550 -0.9116  0.1331  0.5335
  121OSM    C4F12816   6.484   4.879   6.679 -0.4881 -0.6346 -0.1940
  121OSM    H4F12817   6.413   4.939   6.739  1.5483  1.5170  0.2073
  121OSM    H4G12818   6.586   4.909   6.712 -0.0931 -2.0641 -0.0295
  121OSM    C5F12819   6.478   4.724   6.699  0.7124 -0.0506  0.4351
  121OSM    H5F12820   6.582   4.695   6.671  0.9898  1.1232  0.2153
  121OSM    H5G12821   6.396   4.680   6.638  1.3434 -0.2938 -0.2631
  121OSM    C6F12822   6.456   4.683   6.848 -0.2210 -0.7797 -0.3439
  121OSM    H6F12823   6.380   4.752   6.892  2.8978  3.1391 -0.4911
  121OSM    H6G12824   6.538   4.721   6.912 -3.3450  0.3013  3.4326
  121OSM    C7F12825   6.416   4.547   6.880 -0.2322  1.0016  0.3610
  121OSM    H7F12826   6.502   4.477   6.873 -0.0036  1.3126  0.0486
  121OSM    H7G12827   6.341   4.511   6.806 -1.3231 -1.4280  2.4855
  121OSM    C8F12828   6.362   4.534   7.019 -0.5763  0.4234 -0.6173
  121OSM    H8F12829   6.341   4.425   7.025 -0.1185  0.2583 -1.7808
  121OSM    H8G12830   6.266   4.586   7.041 -1.4080 -1.0547 -0.6419
  121OSM    C9F12831   6.470   4.562   7.121 -0.2921  0.0710 -0.5531
  121OSM    H9F12832   6.546   4.483   7.124 -2.1685 -1.8804 -1.6215
  121OSM   C10F12833   6.474   4.655   7.220 -0.5724 -0.5739  0.3451
  121OSM   H10F12834   6.556   4.652   7.293 -2.2098  4.5168  2.8730
  121OSM   C11F12835   6.378   4.762   7.255 -0.1068  0.3029 -1.2660
  121OSM   H11F12836   6.296   4.767   7.180  0.7928 -0.1202 -2.3008
  121OSM   H11G12837   6.440   4.854   7.252  0.2733  0.4079  3.1734
  121OSM   C12F12838   6.327   4.752   7.399  0.3429  0.0596 -0.6991
  121OSM   H12F12839   6.272   4.656   7.402  1.2710 -0.4723  0.1453
  121OSM   H12G12840   6.253   4.834   7.411  1.2092  0.8808 -0.7643
  121OSM   C13F12841   6.427   4.753   7.509  0.0632 -0.5465 -0.8878
  121OSM   H13F12842   6.519   4.812   7.488 -1.7463  1.6343 -3.4443
  121OSM   H13G12843   6.473   4.652   7.513  0.5029 -0.3056  0.5487
  121OSM   C14F12844   6.371   4.798   7.654 -0.0978  0.1713  0.0758
  121OSM   H14F12845   6.285   4.731   7.676  0.7168 -0.3155  1.9571
  121OSM   H14G12846   6.342   4.905   7.648  0.6825  0.3895  0.2065
  121OSM   C15F12847   6.475   4.804   7.765 -0.4298 -0.1883  0.1721
  121OSM   H15F12848   6.569   4.851   7.730 -0.6620 -1.0532 -1.7707
  121OSM   H15G12849   6.503   4.706   7.808  0.6278 -0.2836 -0.7009
  121OSM   C16F12850   6.434   4.882   7.888 -0.4987  0.7516  0.0224
  121OSM   H16F12851   6.333   4.847   7.920 -1.0839  1.4059 -1.0611
  121OSM   H16G12852   6.414   4.987   7.860  1.2845  1.5948  1.7254
  121OSM   C17F12853   6.533   4.858   7.997 -0.2161 -0.1337 -0.5884
  121OSM   H17F12854   6.618   4.915   7.954 -0.2132 -0.1196 -0.5639
  121OSM   H17G12855   6.577   4.757   8.013 -1.5692 -0.6252  0.1630
  121OSM   C18F12856   6.500   4.914   8.130  0.4759 -0.1861  0.4816
  121OSM   H18F12857   6.589   4.934   8.194 -1.9293  2.0731  3.4295
  121OSM   H18G12858   6.429   4.845   8.182  2.5629 -2.1245  0.9088
  121OSM   H18H12859   6.446   5.011   8.120  0.7713 -0.1275 -0.5581
  122OSM      N12860   0.889   1.122   5.947  0.3644  0.3390  0.0042
  122OSM    C1512861   0.934   1.109   6.084 -0.2293 -0.0977 -0.3016
  122OSM   H15A12862   0.881   1.180   6.147  0.1767 -0.5248  0.5351
  122OSM   H15B12863   1.041   1.120   6.095 -0.2863  0.8804 -0.6360
  122OSM   H15C12864   0.915   1.009   6.121  0.8535  0.0873  0.8201
  122OSM    C1412865   0.750   1.079   5.938 -0.0598 -0.7946 -0.9544
  122OSM   H14A12866   0.728   0.974   5.936  1.8728 -1.3235  1.0989
  122OSM   H14B12867   0.716   1.116   5.843 -1.3374  0.2091 -0.1486
  122OSM   H14C12868   0.690   1.125   6.016  1.9394 -0.7865  0.6734
  122OSM    C1312869   0.904   1.262   5.895 -0.2720 -0.3665 -0.4152
  122OSM   H13A12870   1.009   1.287   5.896 -0.9790  3.2473 -0.5374
  122OSM   H13B12871   0.857   1.327   5.968 -0.2211  0.6193 -1.2292
  122OSM   H13C12872   0.862   1.274   5.796 -1.6617  0.4451  0.2372
  122OSM    C1212873   0.981   1.034   5.862  0.0303  0.7819 -0.1946
  122OSM   H12A12874   1.083   1.068   5.852  0.8646 -0.8679  1.9900
  122OSM   H12B12875   0.944   1.042   5.761  0.1255  0.3986 -0.2592
  122OSM    C1112876   0.998   0.882   5.896 -0.3089  0.2247 -0.7320
  122OSM   H11A12877   1.008   0.872   6.006  0.5301  0.4441 -0.7815
  122OSM   H11B12878   1.092   0.836   5.856  1.0720 -1.6021  3.9319
  122OSM      P12879   0.881   0.657   5.891  0.2033  0.2651 -0.0701
  122OSM    O1312880   0.745   0.612   5.854 -0.0885  0.9955  0.1173
  122OSM    O1412881   0.993   0.585   5.831 -0.4246  0.0875 -0.5695
  122OSM    O1112882   0.894   0.663   6.046  0.7520 -0.5556 -0.3426
  122OSM    O1212883   0.885   0.805   5.845  0.0526 -0.0114 -0.5339
  122OSM    C1S12884   0.791   0.735   6.121 -0.4447 -0.5668  0.2271
  122OSM    H1S12885   0.692   0.701   6.084  0.2535 -1.2145 -1.1042
  122OSM    H1T12886   0.791   0.844   6.099 -2.4540 -1.0536 -2.6268
  122OSM     NF12887   0.675   0.775   6.331  0.5297  0.1167  0.1989
  122OSM    HNF12888   0.688   0.867   6.366  1.0823 -0.3519  1.2839
  122OSM    C2S12889   0.794   0.708   6.274  0.3613 -0.3794  0.1971
  122OSM    H2S12890   0.795   0.598   6.287 -0.4993 -0.5352 -0.9247
  122OSM    C3S12891   0.936   0.758   6.322 -0.1723 -0.7831  0.4677
  122OSM    H3S12892   0.946   0.862   6.284  1.7547 -1.3014 -0.5451
  122OSM     O312893   1.047   0.691   6.260 -0.0072  0.2832 -0.4603
  122OSM    HO312894   1.005   0.664   6.178  1.0920 -0.2961 -0.8451
  122OSM    C4S12895   0.948   0.754   6.467  0.0992 -0.1507 -0.4999
  122OSM    H4S12896   0.943   0.851   6.518 -2.7209 -0.4826  0.0527
  122OSM    C5S12897   0.957   0.641   6.539  0.7055  0.7470 -0.1069
  122OSM    H5S12898   0.971   0.541   6.496  0.0127  0.4126  0.4233
  122OSM    C6S12899   0.982   0.647   6.688 -0.1440 -0.4861 -0.0756
  122OSM    H6S12900   1.026   0.549   6.717  2.2478  0.1698 -1.2242
  122OSM    H6T12901   0.889   0.655   6.749  0.4245  0.4015  0.7115
  122OSM    C7S12902   1.083   0.760   6.733  0.7482 -0.5662  0.1653
  122OSM    H7S12903   1.058   0.865   6.705 -0.5171 -1.0146 -0.4500
  122OSM    H7T12904   1.184   0.748   6.687  0.1811 -0.5786 -1.1180
  122OSM    C8S12905   1.094   0.744   6.885  0.6235 -0.7921 -0.0316
  122OSM    H8S12906   1.109   0.635   6.900  0.9284 -0.5657  1.5456
  122OSM    H8T12907   0.998   0.781   6.926  0.5145 -2.7886  1.6955
  122OSM    C9S12908   1.205   0.815   6.956 -0.0212 -0.0282 -1.1650
  122OSM    H9S12909   1.188   0.923   6.936  1.8247  0.7171  0.8207
  122OSM    H9T12910   1.304   0.793   6.910  0.5965  2.5140 -1.2280
  122OSM   C10S12911   1.196   0.782   7.106  0.3576  0.8029 -0.3664
  122OSM   H10S12912   1.214   0.673   7.116 -0.6232  0.4292 -2.1198
  122OSM   H10T12913   1.089   0.789   7.134 -0.0969 -1.9913 -1.0550
  122OSM   C11S12914   1.279   0.874   7.195 -0.8489  0.2684 -0.2031
  122OSM   H11S12915   1.278   0.972   7.141 -2.1282  0.7137  0.5808
  122OSM   H11T12916   1.383   0.836   7.193 -1.3247 -1.1296  0.5338
  122OSM   C12S12917   1.235   0.891   7.342  1.3588 -0.1011 -0.5071
  122OSM   H12S12918   1.303   0.972   7.376  1.7065 -0.0309 -1.3570
  122OSM   H12T12919   1.239   0.793   7.396 -1.5747 -0.3011 -0.5130
  122OSM   C13S12920   1.089   0.943   7.353 -0.8766 -0.5146 -0.3309
  122OSM   H13S12921   1.018   0.863   7.326  0.7362 -1.2376 -2.7699
  122OSM   H13T12922   1.076   1.033   7.288  1.3122  0.3618  0.3298
  122OSM   C14S12923   1.040   0.990   7.497 -0.2885  0.2570 -0.0218
  122OSM   H14S12924   1.017   0.900   7.558  0.3146 -0.9022 -1.4713
  122OSM   H14T12925   0.947   1.045   7.471  0.5541  0.8616 -1.9543
  122OSM   C15S12926   1.127   1.098   7.558 -0.5814 -0.4063  0.5614
  122OSM   H15S12927   1.154   1.175   7.483 -0.8323 -1.3623 -0.5511
  122OSM   H15T12928   1.217   1.042   7.592 -0.8652 -1.1401  0.1426
  122OSM   C16S12929   1.061   1.171   7.669  0.5695 -0.3112 -0.5118
  122OSM   H16S12930   0.983   1.240   7.631  0.8586 -1.1067 -2.7102
  122OSM   H16T12931   1.125   1.239   7.729 -0.2687 -0.2767  0.3617
  122OSM   C17S12932   0.989   1.087   7.779  0.7499  0.2696  0.9503
  122OSM   H17S12933   0.907   1.027   7.734  0.1530  2.1713 -0.6527
  122OSM   H17T12934   0.929   1.160   7.836 -0.6637 -0.2309  0.1363
  122OSM   C18S12935   1.085   1.022   7.879  0.3287 -0.5447  0.2820
  122OSM   H18S12936   1.044   0.927   7.919  0.4820 -0.3666  0.8721
  122OSM   H18T12937   1.103   1.091   7.965 -1.8753 -0.5490  0.8074
  122OSM   H18U12938   1.178   1.001   7.822  0.9158  2.9278 -0.2671
  122OSM    C1F12939   0.556   0.715   6.324  0.3669  0.6000 -0.6766
  122OSM     OF12940   0.536   0.602   6.273 -0.2002 -0.4245 -0.0039
  122OSM    C2F12941   0.441   0.799   6.379 -0.2316  0.3935 -0.2989
  122OSM    H2F12942   0.407   0.877   6.308 -2.3984 -0.3227 -0.1461
  122OSM    H2G12943   0.466   0.847   6.476  1.1857  1.5754 -1.2129
  122OSM    C3F12944   0.319   0.708   6.391 -0.4857  0.5090 -0.5807
  122OSM    H3F12945   0.332   0.605   6.432 -1.7566  0.5939  0.0671
  122OSM    H3G12946   0.294   0.690   6.284  2.4883  0.0436 -1.2997
  122OSM    C4F12947   0.200   0.777   6.460 -0.7535 -0.5462 -0.0490
  122OSM    H4F12948   0.103   0.726   6.440 -1.8609  1.0672  0.8643
  122OSM    H4G12949   0.198   0.875   6.407 -1.8193 -0.2403  0.4985
  122OSM    C5F12950   0.217   0.797   6.613  0.7336  0.1101  0.8792
  122OSM    H5F12951   0.195   0.901   6.646  0.7223  0.7994 -1.1545
  122OSM    H5G12952   0.324   0.789   6.643  1.1127 -1.0923 -0.6807
  122OSM    C6F12953   0.133   0.709   6.695  0.8957  0.7777  0.5654
  122OSM    H6F12954   0.148   0.599   6.685 -2.3589  0.3207 -0.8364
  122OSM    H6G12955   0.032   0.737   6.658 -0.1360  0.0848  2.7041
  122OSM    C7F12956   0.135   0.744   6.841 -0.4760  0.0395 -0.4321
  122OSM    H7F12957   0.085   0.839   6.870 -0.2978  0.2971 -0.9564
  122OSM    H7G12958   0.239   0.756   6.878 -0.2558  0.3542 -1.1379
  122OSM    C8F12959   0.057   0.641   6.928 -0.1620  0.7452 -0.1424
  122OSM    H8F12960  -0.033   0.615   6.869 -0.6872  2.1906 -0.0226
  122OSM    H8G12961   0.017   0.694   7.017  0.4076  0.5322  0.2495
  122OSM    C9F12962   0.139   0.524   6.974 -0.2632  0.6486  0.2096
  122OSM    H9F12963   0.189   0.469   6.893  0.8507 -0.1721  1.4147
  122OSM   C10F12964   0.157   0.491   7.102 -0.6830 -0.2182  1.1570
  122OSM   H10F12965   0.208   0.396   7.126 -0.2646  0.5956  3.8673
  122OSM   C11F12966   0.105   0.555   7.224 -0.0904  0.4351  0.6074
  122OSM   H11F12967   0.024   0.491   7.267 -1.7307  2.0822  0.0838
  122OSM   H11G12968   0.055   0.651   7.201  1.0230  0.7338 -0.7037
  122OSM   C12F12969   0.220   0.584   7.316 -1.1655  0.0758  0.5600
  122OSM   H12F12970   0.269   0.678   7.283  0.5508 -0.2920  1.8807
  122OSM   H12G12971   0.291   0.498   7.313 -1.8179 -0.4441 -0.4296
  122OSM   C13F12972   0.178   0.596   7.458 -0.5586 -0.3217  0.2469
  122OSM   H13F12973   0.141   0.500   7.500 -2.1027  0.7973  1.6045
  122OSM   H13G12974   0.094   0.669   7.467 -0.0180  0.4854 -0.9571
  122OSM   C14F12975   0.288   0.647   7.544 -0.7988  0.3073  0.0131
  122OSM   H14F12976   0.332   0.732   7.487 -2.1151  0.2947 -1.0804
  122OSM   H14G12977   0.358   0.560   7.545 -0.0879  0.7960  3.1855
  122OSM   C15F12978   0.241   0.685   7.690 -0.2362 -0.0487  0.4562
  122OSM   H15F12979   0.325   0.660   7.759 -0.3191 -0.1013  0.5371
  122OSM   H15G12980   0.148   0.637   7.728  0.4008 -2.1490 -0.4953
  122OSM   C16F12981   0.198   0.836   7.701 -0.0395  0.5736 -0.2640
  122OSM   H16F12982   0.099   0.844   7.651  0.8726  1.0533 -2.0836
  122OSM   H16G12983   0.268   0.892   7.635  0.6973  0.1149  0.1190
  122OSM   C17F12984   0.201   0.893   7.843 -0.6815  0.8145 -0.4275
  122OSM   H17F12985   0.188   1.004   7.836 -0.5833  1.1797  3.3697
  122OSM   H17G12986   0.303   0.881   7.884 -0.8723 -0.4474 -0.2770
  122OSM   C18F12987   0.085   0.841   7.927 -0.1032  0.3807 -0.5637
  122OSM   H18F12988   0.118   0.747   7.976 -0.4415  0.7679  0.4482
  122OSM   H18G12989  -0.008   0.829   7.868 -1.3507 -0.7998  1.5137
  122OSM   H18H12990   0.053   0.916   8.003 -2.2861 -1.4596  0.4505
  123OSM      N12991   4.178   1.464   6.077 -0.3804  0.3569  0.3703
  123OSM    C1512992   4.273   1.531   5.978 -0.4438 -0.6781 -0.4337
  123OSM   H15A12993   4.322   1.619   6.017 -0.6523 -0.8822  0.3051
  123OSM   H15B12994   4.217   1.555   5.889 -0.6024 -1.0171 -0.4288
  123OSM   H15C12995   4.334   1.452   5.937  0.7399 -0.2848  0.5374
  123OSM    C1412996   4.051   1.543   6.081 -0.6429 -0.0444 -0.1485
  123OSM   H14A12997   3.996   1.543   5.988 -3.3525 -0.8526  1.3414
  123OSM   H14B12998   4.060   1.648   6.106 -1.2112  0.4291 -1.8068
  123OSM   H14C12999   3.995   1.506   6.165  1.6550  0.3120  1.6589
  123OSM    C1313000   4.145   1.327   6.030 -0.7165 -0.0852 -0.2126
  123OSM   H13A13001   4.232   1.263   6.039  0.5790  1.8853  2.7507
  123OSM   H13B13002   4.118   1.326   5.925  0.0438  2.4576 -0.5097
  123OSM   H13C13003   4.067   1.289   6.094 -2.4303  1.5831 -1.2151
  123OSM    C1213004   4.245   1.457   6.217 -0.3959 -0.4122 -0.3435
  123OSM   H12A13005   4.264   1.560   6.244 -2.0840 -0.4656  1.3031
  123OSM   H12B13006   4.346   1.419   6.215  0.3547  1.5325 -1.6451
  123OSM    C1113007   4.170   1.400   6.340  0.1323 -0.5080  0.3185
  123OSM   H11A13008   4.236   1.396   6.430 -1.1015 -1.8638  1.2029
  123OSM   H11B13009   4.139   1.294   6.327  1.0839 -0.7397 -0.1284
  123OSM      P13010   4.066   1.618   6.433 -0.0879 -0.2125  0.0438
  123OSM    O1313011   4.187   1.697   6.389 -0.1769  0.4012 -0.2943
  123OSM    O1413012   3.933   1.681   6.422  0.0841 -0.5936 -0.4295
  123OSM    O1113013   4.090   1.573   6.585  0.2537 -0.2360 -0.9095
  123OSM    O1213014   4.054   1.472   6.368  0.4269  0.3348  0.0237
  123OSM    C1S13015   4.001   1.470   6.634  0.2466 -0.7497 -0.4394
  123OSM    H1S13016   4.037   1.369   6.604 -0.8908 -1.4286  0.3763
  123OSM    H1T13017   3.897   1.486   6.599  0.3373  1.2859  0.1098
  123OSM     NF13018   3.912   1.356   6.837 -0.7029 -0.6685  0.0145
  123OSM    HNF13019   3.814   1.369   6.848 -0.4111  0.7109  1.3861
  123OSM    C2S13020   3.993   1.475   6.793  0.4310  0.3012  0.1290
  123OSM    H2S13021   4.094   1.472   6.839  1.3108 -0.7478 -1.7624
  123OSM    C3S13022   3.935   1.607   6.849 -0.2850 -0.1290  0.0474
  123OSM    H3S13023   3.832   1.605   6.809  0.5639  2.2340 -2.5379
  123OSM     O313024   3.995   1.730   6.802  0.2800  0.0422 -0.3784
  123OSM    HO313025   4.028   1.713   6.713  1.6330  1.6961 -0.2581
  123OSM    C4S13026   3.928   1.602   6.998 -0.0037  0.0735 -0.0816
  123OSM    H4S13027   3.853   1.535   7.043 -0.7108  1.4074  0.7966
  123OSM    C5S13028   4.006   1.673   7.083 -0.0333 -0.4026 -0.3884
  123OSM    H5S13029   4.086   1.738   7.045 -0.4169  0.5004  0.2938
  123OSM    C6S13030   4.007   1.683   7.234 -0.4893  0.2008  0.9129
  123OSM    H6S13031   3.941   1.768   7.261 -0.9295  0.3167 -0.4802
  123OSM    H6T13032   4.110   1.707   7.270  0.0918  0.8241 -1.0705
  123OSM    C7S13033   3.952   1.559   7.311 -0.1105  0.1041 -0.4405
  123OSM    H7S13034   3.989   1.461   7.274  0.3412 -0.2631  0.9291
  123OSM    H7T13035   3.843   1.577   7.303  0.0348  1.6322  0.5404
  123OSM    C8S13036   3.985   1.558   7.461 -0.1625 -0.8329 -0.5902
  123OSM    H8S13037   3.947   1.642   7.522  3.8393  1.3367 -0.7310
  123OSM    H8T13038   4.092   1.553   7.494 -0.3133 -0.3858 -0.0082
  123OSM    C9S13039   3.905   1.441   7.526  0.1435 -0.2970 -0.2010
  123OSM    H9S13040   3.930   1.343   7.479  0.4915 -0.3071 -0.0014
  123OSM    H9T13041   3.796   1.456   7.513  0.3694  2.1187  0.3571
  123OSM   C10S13042   3.946   1.427   7.672  0.3984  0.1043  0.1210
  123OSM   H10S13043   3.928   1.523   7.725 -0.2409 -0.3575  0.7554
  123OSM   H10T13044   4.054   1.408   7.685  0.0023 -1.9395  0.7161
  123OSM   C11S13045   3.870   1.311   7.744 -0.4743  0.1512  0.6200
  123OSM   H11S13046   3.883   1.227   7.672  0.6338  0.7891  0.0502
  123OSM   H11T13047   3.765   1.346   7.754 -1.2496 -1.9909  0.5446
  123OSM   C12S13048   3.905   1.278   7.890 -0.4410  0.3390 -0.4283
  123OSM   H12S13049   3.867   1.365   7.948  2.0914 -0.1279  2.2035
  123OSM   H12T13050   4.015   1.285   7.909 -0.3185 -0.2676 -0.9048
  123OSM   C13S13051   3.849   1.146   7.944 -0.6204 -0.2669 -0.0906
  123OSM   H13S13052   3.865   1.056   7.881 -3.0402 -1.3239  0.7066
  123OSM   H13T13053   3.738   1.152   7.944 -0.6890 -1.3665 -0.2401
  123OSM   C14S13054   3.884   1.121   8.084 -0.0473 -0.4128  0.0083
  123OSM   H14S13055   3.848   1.204   8.148 -0.8969 -1.0262  0.3423
  123OSM   H14T13056   3.995   1.122   8.094  0.1452  0.8942 -1.7297
  123OSM   C15S13057   3.803   1.002   8.144  1.2579 -0.8392  0.4569
  123OSM   H15S13058   3.816   0.907   8.086  1.1326 -0.7119  0.2175
  123OSM   H15T13059   3.693   1.014   8.130  1.5584 -0.4420 -2.1191
  123OSM   C16S13060   3.845   0.956   8.289 -0.3538  0.2868 -0.1004
  123OSM   H16S13061   3.956   0.944   8.288 -0.5299 -1.5571 -0.4152
  123OSM   H16T13062   3.815   0.851   8.307  1.9687 -0.7160 -1.5637
  123OSM   C17S13063   3.796   1.061   8.393  0.0764 -0.2849  0.0559
  123OSM   H17S13064   3.687   1.075   8.378  0.0905  0.6711  0.7649
  123OSM   H17T13065   3.844   1.157   8.365 -0.5855 -0.4359 -1.7839
  123OSM   C18S13066   3.831   1.020   8.533  0.1466 -0.6742 -0.1393
  123OSM   H18S13067   3.804   1.101   8.605 -0.7397 -0.0600 -1.1501
  123OSM   H18T13068   3.942   1.005   8.532 -0.1444 -3.3599 -0.3169
  123OSM   H18U13069   3.791   0.918   8.551 -1.0702 -0.5236 -1.7965
  123OSM    C1F13070   3.953   1.234   6.839 -0.2559  0.2120  0.1356
  123OSM     OF13071   4.066   1.213   6.808  0.4337 -0.0033  0.4605
  123OSM    C2F13072   3.855   1.125   6.867 -0.5553 -0.7309  0.5466
  123OSM    H2F13073   3.795   1.101   6.777 -0.4569 -1.0337  0.5605
  123OSM    H2G13074   3.778   1.167   6.935 -1.2233 -0.0090 -0.6294
  123OSM    C3F13075   3.926   1.012   6.920  0.0018 -0.2004 -0.6533
  123OSM    H3F13076   3.968   1.050   7.016  1.5216 -0.4121 -1.2146
  123OSM    H3G13077   4.011   0.973   6.860  1.6483  2.0366  0.0838
  123OSM    C4F13078   3.820   0.904   6.953 -0.7035 -0.3870 -0.1445
  123OSM    H4F13079   3.778   0.865   6.858 -1.1608  1.1023 -0.5768
  123OSM    H4G13080   3.749   0.958   7.018  0.8719  1.9077 -0.1798
  123OSM    C5F13081   3.861   0.778   7.035  0.1300 -0.2885  0.1242
  123OSM    H5F13082   3.917   0.820   7.121 -0.2070  2.5057 -0.9073
  123OSM    H5G13083   3.930   0.719   6.971 -0.9658 -0.3353 -1.0804
  123OSM    C6F13084   3.742   0.695   7.079  0.1768  0.3356 -0.0413
  123OSM    H6F13085   3.694   0.670   6.982  3.0844 -0.4573 -1.3856
  123OSM    H6G13086   3.673   0.753   7.144 -0.1238  0.2510 -0.2839
  123OSM    C7F13087   3.772   0.568   7.155  0.1449  0.1060 -0.4101
  123OSM    H7F13088   3.835   0.588   7.244  1.3625 -0.9281 -1.0040
  123OSM    H7G13089   3.823   0.495   7.087 -0.2096 -0.3543 -0.1870
  123OSM    C8F13090   3.638   0.500   7.193 -0.6240 -0.0966  0.1030
  123OSM    H8F13091   3.556   0.518   7.120 -1.6436  0.5891  1.3726
  123OSM    H8G13092   3.604   0.549   7.287  0.1484 -0.5114  0.6047
  123OSM    C9F13093   3.661   0.352   7.215  0.7140 -0.0824  0.3712
  123OSM    H9F13094   3.650   0.287   7.127  2.2791 -0.6783  0.5874
  123OSM   C10F13095   3.712   0.295   7.332  0.7707 -0.5858 -0.1502
  123OSM   H10F13096   3.719   0.187   7.348 -0.1676 -0.6240  0.0424
  123OSM   C11F13097   3.761   0.378   7.451 -0.2964 -0.1900  0.8424
  123OSM   H11F13098   3.688   0.459   7.473 -1.3399 -1.4895  2.4169
  123OSM   H11G13099   3.865   0.411   7.431 -0.2294 -0.4410  0.7753
  123OSM   C12F13100   3.757   0.280   7.566 -0.2479 -0.6913  0.1351
  123OSM   H12F13101   3.819   0.319   7.650  0.4626  0.5474 -0.9444
  123OSM   H12G13102   3.807   0.182   7.547  0.6393  0.1437 -2.2339
  123OSM   C13F13103   3.622   0.249   7.621 -0.0325 -0.4557 -1.0239
  123OSM   H13F13104   3.569   0.162   7.577 -1.9751 -0.1631  0.6284
  123OSM   H13G13105   3.559   0.339   7.606 -0.0061 -0.0133  1.2249
  123OSM   C14F13106   3.617   0.214   7.775 -0.1240  0.5422  0.5649
  123OSM   H14F13107   3.511   0.179   7.773 -0.4380  1.4953 -0.2231
  123OSM   H14G13108   3.627   0.301   7.843 -1.4906  0.0196  1.4946
  123OSM   C15F13109   3.721   0.110   7.828  0.4018 -0.3918 -0.8605
  123OSM   H15F13110   3.820   0.161   7.834  0.2792 -0.2650  0.1458
  123OSM   H15G13111   3.726   0.034   7.747 -0.3314 -3.1601  1.5723
  123OSM   C16F13112   3.682   0.040   7.965  0.1445  0.0340  0.4768
  123OSM   H16F13113   3.759  -0.037   7.988  1.0270  0.8589  0.3740
  123OSM   H16G13114   3.595  -0.028   7.953  1.0981 -1.4599  1.5428
  123OSM   C17F13115   3.673   0.131   8.090  0.1146 -0.1228  0.7313
  123OSM   H17F13116   3.579   0.191   8.089  0.0334 -0.2377  1.2307
  123OSM   H17G13117   3.749   0.210   8.076  1.2181 -1.3585 -0.5321
  123OSM   C18F13118   3.683   0.049   8.216 -0.4770  0.1880  0.7448
  123OSM   H18F13119   3.603  -0.028   8.203  0.3334 -0.0897 -4.7916
  123OSM   H18G13120   3.676   0.110   8.309  0.6095  1.1941  0.1831
  123OSM   H18H13121   3.783   0.002   8.220 -1.2631 -1.6606  0.0396
  124OSM      N13122   5.153   4.725   6.094  0.1092  0.1852 -0.5609
  124OSM    C1513123   5.302   4.721   6.089 -0.5720 -0.2093 -0.3862
  124OSM   H15A13124   5.346   4.726   5.990  1.5605  1.6957  0.5740
  124OSM   H15B13125   5.338   4.625   6.125  0.1635 -0.1690 -0.9959
  124OSM   H15C13126   5.347   4.799   6.149  1.8027 -1.5206 -0.3003
  124OSM    C1413127   5.109   4.672   6.225 -0.2989  0.4492  0.2923
  124OSM   H14A13128   5.001   4.674   6.232 -0.2080  1.2436  2.0078
  124OSM   H14B13129   5.149   4.730   6.307  0.0276  0.8702 -0.1585
  124OSM   H14C13130   5.149   4.572   6.236  0.6384  0.8198  0.3660
  124OSM    C1313131   5.114   4.869   6.092  0.0510  0.0164  0.4822
  124OSM   H13A13132   5.008   4.887   6.107  0.2163  1.4298  0.0657
  124OSM   H13B13133   5.137   4.918   5.999  1.0935 -0.2275  0.6005
  124OSM   H13C13134   5.173   4.917   6.168  1.4496  1.8625 -1.6751
  124OSM    C1213135   5.090   4.655   5.978  0.2632  0.5943 -0.1781
  124OSM   H12A13136   5.140   4.566   5.941  2.7007  1.4611  0.7709
  124OSM   H12B13137   5.130   4.723   5.904  0.0790  1.3508  0.3949
  124OSM    C1113138   4.940   4.637   5.967  0.0963  0.3566  0.7296
  124OSM   H11A13139   4.895   4.562   6.037 -1.4798 -0.3160 -0.9271
  124OSM   H11B13140   4.916   4.600   5.865  0.6767 -0.9536  1.0495
  124OSM      P13141   4.718   4.756   6.034 -0.1478 -0.1033 -0.0555
  124OSM    O1313142   4.665   4.896   6.039 -0.6917 -0.4517 -0.0449
  124OSM    O1413143   4.642   4.652   5.956 -0.2309  0.4237  0.0491
  124OSM    O1113144   4.734   4.703   6.177 -0.2175  0.4264 -0.6855
  124OSM    O1213145   4.869   4.762   5.982 -0.3248  0.0266 -0.8371
  124OSM    C1S13146   4.760   4.786   6.291  0.9066 -0.2363  0.0420
  124OSM    H1S13147   4.684   4.868   6.296 -2.4474 -3.0751 -0.5161
  124OSM    H1T13148   4.858   4.838   6.289  0.5158  0.5973  1.1226
  124OSM     NF13149   4.792   4.798   6.526 -0.6203 -0.4337 -0.1208
  124OSM    HNF13150   4.879   4.774   6.568  0.0297  1.6036 -0.1727
  124OSM    C2S13151   4.750   4.711   6.423  0.7056  0.3384 -0.2868
  124OSM    H2S13152   4.644   4.686   6.443  1.2182 -1.1220  0.8071
  124OSM    C3S13153   4.826   4.579   6.422 -0.1731  0.5658  0.7366
  124OSM    H3S13154   4.931   4.602   6.393  0.1181 -0.9599  0.4915
  124OSM     O313155   4.779   4.490   6.325 -0.1313  0.3027 -0.0615
  124OSM    HO313156   4.725   4.541   6.264  0.0307 -0.2974 -0.7305
  124OSM    C4S13157   4.821   4.516   6.563  1.2158 -0.0381  0.1644
  124OSM    H4S13158   4.914   4.530   6.621  0.6927 -2.7475  1.8462
  124OSM    C5S13159   4.719   4.446   6.627 -0.3039 -0.8565 -0.0416
  124OSM    H5S13160   4.631   4.424   6.566  1.3434 -0.5288 -2.7236
  124OSM    C6S13161   4.728   4.400   6.767  0.3449 -0.1614 -1.0242
  124OSM    H6S13162   4.679   4.300   6.766  0.4624 -0.2437  0.4057
  124OSM    H6T13163   4.661   4.464   6.828 -1.0179 -1.2446 -1.3123
  124OSM    C7S13164   4.864   4.399   6.838  0.6242 -0.1005 -0.1621
  124OSM    H7S13165   4.898   4.505   6.850  0.4583  0.2526 -2.3451
  124OSM    H7T13166   4.948   4.355   6.780  1.4132  1.5022 -0.3161
  124OSM    C8S13167   4.849   4.326   6.967  0.7946  0.1170 -0.0573
  124OSM    H8S13168   4.784   4.237   6.951 -0.6516  1.1061  0.1648
  124OSM    H8T13169   4.809   4.392   7.047  2.1664  1.8094 -0.6977
  124OSM    C9S13170   4.976   4.260   7.019 -0.2709  0.5418 -0.5105
  124OSM    H9S13171   5.058   4.334   7.007  1.9059 -1.7423 -0.8682
  124OSM    H9T13172   5.003   4.173   6.955  1.7193 -0.7678  1.9232
  124OSM   C10S13173   4.975   4.194   7.155  0.5698 -0.3055  0.5572
  124OSM   H10S13174   4.892   4.120   7.148 -1.7934  2.1647  0.8529
  124OSM   H10T13175   4.945   4.278   7.221 -0.6723 -0.3179  0.0453
  124OSM   C11S13176   5.103   4.126   7.194 -0.4447 -0.2449  0.3109
  124OSM   H11S13177   5.187   4.195   7.221 -0.2061 -0.1127 -0.7219
  124OSM   H11T13178   5.133   4.070   7.103  1.2842  1.8154 -0.4690
  124OSM   C12S13179   5.080   4.017   7.304  0.5909  0.0311  0.2955
  124OSM   H12S13180   5.170   3.953   7.319  1.1491  0.2726 -1.7538
  124OSM   H12T13181   5.003   3.956   7.252  1.4948  0.0851 -1.1625
  124OSM   C13S13182   5.019   4.076   7.437  0.1563 -0.4973  0.0128
  124OSM   H13S13183   4.920   4.120   7.411  0.9682  0.8347 -0.9472
  124OSM   H13T13184   5.083   4.161   7.468 -0.5299  0.4177 -0.9671
  124OSM   C14S13185   5.005   3.979   7.556  0.0039 -0.3057  0.8875
  124OSM   H14S13186   4.982   4.028   7.653  0.0864 -0.5323  1.0228
  124OSM   H14T13187   5.094   3.913   7.565  0.8672  0.6420 -0.2170
  124OSM   C15S13188   4.896   3.873   7.539  0.0567 -0.3680 -0.6837
  124OSM   H15S13189   4.941   3.797   7.471  0.0283 -0.0429 -1.0711
  124OSM   H15T13190   4.803   3.918   7.499  0.1297  0.6210  0.2124
  124OSM   C16S13191   4.858   3.801   7.666 -0.6043  0.2291  0.1569
  124OSM   H16S13192   4.780   3.724   7.645  0.9913 -2.4266  2.9924
  124OSM   H16T13193   4.818   3.872   7.741 -1.9215 -0.1644 -0.1408
  124OSM   C17S13194   4.970   3.726   7.741 -0.2466  0.5303 -0.2501
  124OSM   H17S13195   5.060   3.786   7.764  0.2605 -0.7997  1.5509
  124OSM   H17T13196   5.012   3.642   7.681 -2.8944 -0.9497 -0.1848
  124OSM   C18S13197   4.921   3.654   7.870  0.5517  0.0585  0.9749
  124OSM   H18S13198   4.861   3.731   7.923 -0.4207  0.3888 -0.5364
  124OSM   H18T13199   5.005   3.624   7.936  2.9919  2.0737 -1.0093
  124OSM   H18U13200   4.867   3.561   7.844  0.9011 -0.2486  1.3280
  124OSM    C1F13201   4.728   4.912   6.565 -1.2697  0.2138  0.0754
  124OSM     OF13202   4.623   4.951   6.520  0.4881  0.2043  1.2416
  124OSM    C2F13203   4.810   4.985   6.659  1.3600 -0.5138 -1.0537
  124OSM    H2F13204   4.791   5.092   6.636 -0.7952 -0.5289  0.3264
  124OSM    H2G13205   4.919   4.968   6.646  1.5114  1.1501 -2.1800
  124OSM    C3F13206   4.761   4.955   6.806 -0.9059 -0.0306 -0.3448
  124OSM    H3F13207   4.650   4.959   6.803 -1.0874 -2.6481  0.2205
  124OSM    H3G13208   4.803   5.032   6.874  0.5824 -1.7830  0.8240
  124OSM    C4F13209   4.801   4.827   6.869 -0.0890  0.0504 -0.0650
  124OSM    H4F13210   4.911   4.814   6.883  0.2366 -0.0085 -2.2523
  124OSM    H4G13211   4.762   4.740   6.813  2.3807 -1.0971 -0.1193
  124OSM    C5F13212   4.740   4.821   7.016 -0.5971 -0.4306 -0.1751
  124OSM    H5F13213   4.634   4.854   7.014  0.2763  2.6616 -0.9218
  124OSM    H5G13214   4.794   4.890   7.085 -0.2742 -0.7164 -0.1344
  124OSM    C6F13215   4.751   4.683   7.086  0.0558 -0.5234  0.8407
  124OSM    H6F13216   4.856   4.645   7.083  0.8920  1.6275  1.2155
  124OSM    H6G13217   4.691   4.609   7.028  2.7432 -2.6993  0.6034
  124OSM    C7F13218   4.717   4.695   7.228  0.8549 -0.1555 -0.1189
  124OSM    H7F13219   4.606   4.697   7.238  1.0001  0.0006  1.6274
  124OSM    H7G13220   4.760   4.788   7.271  1.7192  0.4490 -2.1503
  124OSM    C8F13221   4.776   4.569   7.307 -0.1980  0.8160  0.2234
  124OSM    H8F13222   4.886   4.576   7.319 -0.0693 -0.9603  0.3108
  124OSM    H8G13223   4.770   4.472   7.254  1.8595  0.7903 -0.0600
  124OSM    C9F13224   4.712   4.569   7.442  0.0425 -0.2424 -0.0783
  124OSM    H9F13225   4.615   4.621   7.442 -0.9479 -1.8833  2.2068
  124OSM   C10F13226   4.759   4.533   7.561 -0.3020  0.3708 -0.0981
  124OSM   H10F13227   4.689   4.539   7.646  0.7063 -1.1717  0.8826
  124OSM   C11F13228   4.895   4.483   7.595 -0.1707 -0.3474  0.3393
  124OSM   H11F13229   4.967   4.556   7.639  1.0576 -0.9079 -0.6671
  124OSM   H11G13230   4.932   4.446   7.497 -1.9217 -0.6271 -0.2413
  124OSM   C12F13231   4.888   4.356   7.688  0.4712  0.2809 -0.9826
  124OSM   H12F13232   4.986   4.303   7.680  0.6576  0.7292 -1.7586
  124OSM   H12G13233   4.819   4.277   7.651  3.5342 -2.8661 -0.5832
  124OSM   C13F13234   4.867   4.400   7.832 -0.2848 -0.0832 -0.0695
  124OSM   H13F13235   4.771   4.455   7.842  0.4244  1.0369  0.8584
  124OSM   H13G13236   4.951   4.469   7.853 -1.1322  0.8596  0.2528
  124OSM   C14F13237   4.868   4.279   7.933 -0.2146  0.2067  0.2904
  124OSM   H14F13238   4.965   4.225   7.922 -0.3591 -0.5881  2.5118
  124OSM   H14G13239   4.781   4.214   7.909 -1.0527  1.0028  1.0657
  124OSM   C15F13240   4.860   4.325   8.079  0.5112 -1.0156 -0.1762
  124OSM   H15F13241   4.755   4.354   8.103 -0.0533 -2.9979 -0.0605
  124OSM   H15G13242   4.929   4.411   8.084 -0.9313  0.1553  0.3738
  124OSM   C16F13243   4.908   4.220   8.176 -0.1799 -0.4006 -0.6917
  124OSM   H16F13244   5.016   4.208   8.152  0.1652  0.7118  0.2539
  124OSM   H16G13245   4.851   4.127   8.155  1.0933 -1.2309 -0.5938
  124OSM   C17F13246   4.889   4.244   8.328 -0.2273  0.5933  0.3995
  124OSM   H17F13247   4.784   4.261   8.361 -0.1555  2.4538 -0.1867
  124OSM   H17G13248   4.943   4.338   8.355  1.7671 -0.6660  1.0142
  124OSM   C18F13249   4.945   4.127   8.403 -0.2884  0.2472 -0.3763
  124OSM   H18F13250   4.924   4.127   8.512 -0.5620  0.3343 -0.4274
  124OSM   H18G13251   5.055   4.121   8.389 -0.1185 -3.2057  1.3706
  124OSM   H18H13252   4.901   4.031   8.368 -3.0378  1.1793  0.2749
  125OSM      N13253   0.593   4.674   5.888 -0.1438 -0.1293 -0.8108
  125OSM    C1513254   0.505   4.777   5.824  0.1756  0.8462 -0.2926
  125OSM   H15A13255   0.408   4.731   5.825 -0.1734  1.4639  2.8393
  125OSM   H15B13256   0.528   4.808   5.722 -0.9206 -0.0993 -0.8479
  125OSM   H15C13257   0.504   4.864   5.888  2.1243  0.1997  0.6943
  125OSM    C1413258   0.562   4.537   5.833  0.5485  0.4511 -0.3607
  125OSM   H14A13259   0.632   4.465   5.874 -1.4020 -1.9281 -0.9879
  125OSM   H14B13260   0.583   4.537   5.727  0.2930 -1.5608 -0.4438
  125OSM   H14C13261   0.461   4.501   5.842  0.7674 -0.4868 -1.4093
  125OSM    C1313262   0.739   4.715   5.871  0.5442  0.4229  1.1091
  125OSM   H13A13263   0.804   4.631   5.892  0.5123 -0.0935 -0.6355
  125OSM   H13B13264   0.755   4.799   5.937 -1.3595  0.8801  1.0223
  125OSM   H13C13265   0.755   4.749   5.769 -0.3525  0.6025  1.0196
  125OSM    C1213266   0.562   4.668   6.034 -0.2640 -0.2444 -0.9633
  125OSM   H12A13267   0.602   4.578   6.079  1.3767  1.3498  0.9528
  125OSM   H12B13268   0.458   4.649   6.053  0.3680 -0.3179  3.3001
  125OSM    C1113269   0.605   4.790   6.126 -0.1526  0.2066 -0.0430
  125OSM   H11A13270   0.714   4.802   6.109  0.1655 -0.3487  1.4105
  125OSM   H11B13271   0.589   4.755   6.231 -0.2530 -1.1573 -0.4916
  125OSM      P13272   0.590   5.052   6.133 -0.2461  0.0451 -0.0886
  125OSM    O1313273   0.732   5.042   6.181 -0.3118  0.3547  0.0046
  125OSM    O1413274   0.561   5.139   6.019 -0.7029  0.1988  0.8128
  125OSM    O1113275   0.499   5.092   6.258 -0.0688  0.0701 -0.4211
  125OSM    O1213276   0.532   4.907   6.100  0.2767  0.0777  0.3762
  125OSM    C1S13277   0.448   5.224   6.284 -0.6599 -0.3293 -0.3632
  125OSM    H1S13278   0.341   5.233   6.256 -0.6636  1.4740  0.1216
  125OSM    H1T13279   0.493   5.304   6.221 -2.3413  1.0248  0.0980
  125OSM     NF13280   0.359   5.378   6.454 -0.0096 -0.2181  0.0420
  125OSM    HNF13281   0.403   5.467   6.465 -1.2478  0.4961 -0.5073
  125OSM    C2S13282   0.439   5.262   6.441 -0.0058  0.6863 -0.0788
  125OSM    H2S13283   0.388   5.186   6.504 -1.2483  0.0002 -1.8113
  125OSM    C3S13284   0.584   5.277   6.492  0.2753  0.4993 -0.3393
  125OSM    H3S13285   0.639   5.355   6.434  1.1052  0.2809  0.1371
  125OSM     O313286   0.671   5.159   6.483  0.2027 -0.0059 -0.0072
  125OSM    HO313287   0.624   5.105   6.419 -1.2824  2.9296 -1.5699
  125OSM    C4S13288   0.579   5.329   6.635 -0.3853 -0.8968  0.4739
  125OSM    H4S13289   0.589   5.438   6.646 -1.1912 -0.4252 -2.6568
  125OSM    C5S13290   0.591   5.254   6.747  0.3513  0.3912  0.6210
  125OSM    H5S13291   0.596   5.144   6.743  0.4212  0.4118 -0.1916
  125OSM    C6S13292   0.606   5.313   6.882  0.4156 -0.5971 -1.1680
  125OSM    H6S13293   0.669   5.248   6.947  1.6569  0.2417 -1.4999
  125OSM    H6T13294   0.505   5.298   6.928  0.7850 -3.1818 -1.0416
  125OSM    C7S13295   0.644   5.460   6.903  0.1583 -0.1822 -0.1792
  125OSM    H7S13296   0.619   5.529   6.820 -2.4847  0.2406  0.8767
  125OSM    H7T13297   0.755   5.459   6.911  0.1110 -0.0275  0.5438
  125OSM    C8S13298   0.597   5.518   7.039  0.7591  0.4888  0.3675
  125OSM    H8S13299   0.487   5.501   7.042  1.0378 -1.4515  0.4797
  125OSM    H8T13300   0.622   5.626   7.026  2.2184  0.2189  0.7610
  125OSM    C9S13301   0.650   5.461   7.167  0.2651  0.3962 -0.0975
  125OSM    H9S13302   0.761   5.455   7.153  0.3515 -0.6651  0.9147
  125OSM    H9T13303   0.618   5.357   7.187 -1.9386  0.8253 -1.0974
  125OSM   C10S13304   0.624   5.550   7.289  0.0353 -0.1457  0.4253
  125OSM   H10S13305   0.516   5.575   7.297  0.1150  0.8984 -1.2016
  125OSM   H10T13306   0.671   5.651   7.281  1.1445 -0.5620  1.4177
  125OSM   C11S13307   0.671   5.486   7.423 -0.4670 -0.6811 -0.1917
  125OSM   H11S13308   0.782   5.477   7.422 -0.2592  0.9880 -2.7506
  125OSM   H11T13309   0.627   5.384   7.426 -2.1252  0.0135  0.1506
  125OSM   C12S13310   0.644   5.567   7.548  0.2520 -0.2323 -0.0782
  125OSM   H12S13311   0.534   5.569   7.566 -0.0237 -2.6542 -1.0653
  125OSM   H12T13312   0.663   5.675   7.530 -0.6141 -0.2688 -1.4407
  125OSM   C13S13313   0.710   5.509   7.675  0.4202 -0.1609 -0.3469
  125OSM   H13S13314   0.821   5.523   7.681  0.2569  0.8715  0.6605
  125OSM   H13T13315   0.678   5.403   7.682 -1.5849  0.3332 -1.5252
  125OSM   C14S13316   0.660   5.576   7.803 -0.3476  0.1607 -0.0034
  125OSM   H14S13317   0.550   5.591   7.800 -0.5395 -1.1505  0.0492
  125OSM   H14T13318   0.712   5.674   7.816  1.0507 -0.3661 -1.3383
  125OSM   C15S13319   0.691   5.516   7.937 -0.2450 -0.2184  0.1437
  125OSM   H15S13320   0.796   5.483   7.948 -0.4882 -0.8347  0.6436
  125OSM   H15T13321   0.628   5.425   7.946 -0.8526 -0.4387 -4.3351
  125OSM   C16S13322   0.661   5.613   8.053  0.4706  0.3421 -0.2931
  125OSM   H16S13323   0.556   5.647   8.055  0.3872  0.1600 -1.2934
  125OSM   H16T13324   0.727   5.702   8.049  2.8483 -1.2434  0.7597
  125OSM   C17S13325   0.690   5.546   8.186 -1.1137  0.4853 -0.1307
  125OSM   H17S13326   0.799   5.525   8.193 -1.0439 -0.5477 -3.0298
  125OSM   H17T13327   0.640   5.448   8.198 -0.8780  0.4994  1.2028
  125OSM   C18S13328   0.662   5.648   8.298 -0.6321  0.0526 -0.0154
  125OSM   H18S13329   0.675   5.592   8.393  3.5979  0.8473  0.0464
  125OSM   H18T13330   0.558   5.687   8.306  0.2915  2.3643  2.0803
  125OSM   H18U13331   0.737   5.730   8.301 -0.8824  0.2779  2.4591
  125OSM    C1F13332   0.226   5.383   6.449 -0.5727 -1.4332  0.8902
  125OSM     OF13333   0.161   5.291   6.403  0.3104 -0.2834 -0.1676
  125OSM    C2F13334   0.170   5.517   6.488  0.3835 -0.5587 -0.2101
  125OSM    H2F13335   0.062   5.492   6.488  0.2704 -0.1763 -1.6033
  125OSM    H2G13336   0.189   5.592   6.408  1.2924 -1.2215 -0.6261
  125OSM    C3F13337   0.204   5.568   6.633 -0.7569  0.3181  0.3707
  125OSM    H3F13338   0.141   5.655   6.661  0.9491  1.2547  1.4397
  125OSM    H3G13339   0.311   5.599   6.629 -1.1282  1.7759 -3.4983
  125OSM    C4F13340   0.168   5.473   6.752 -0.3767 -0.4787  0.0860
  125OSM    H4F13341   0.226   5.378   6.752  0.1295 -0.1701  0.2293
  125OSM    H4G13342   0.062   5.441   6.742 -0.7397  0.8561 -0.4359
  125OSM    C5F13343   0.202   5.537   6.885  0.7064  0.0212 -0.1333
  125OSM    H5F13344   0.135   5.625   6.893  0.7834  0.0105  0.6729
  125OSM    H5G13345   0.307   5.570   6.871  0.7231 -0.5859 -1.6178
  125OSM    C6F13346   0.172   5.440   7.005  0.4899  0.0680  0.0678
  125OSM    H6F13347   0.254   5.366   6.996  2.1459  1.1569  4.0484
  125OSM    H6G13348   0.070   5.399   6.987  0.8277 -0.4492 -0.7524
  125OSM    C7F13349   0.187   5.505   7.142 -0.4963  0.0094 -1.1041
  125OSM    H7F13350   0.086   5.542   7.170 -0.0438  0.3180  0.1919
  125OSM    H7G13351   0.261   5.588   7.136  0.3391 -0.4933  1.3683
  125OSM    C8F13352   0.237   5.417   7.267  0.0414  0.7000 -0.0817
  125OSM    H8F13353   0.259   5.481   7.354 -0.2231 -0.6046  0.9760
  125OSM    H8G13354   0.331   5.366   7.235  0.8914  0.9140  1.9533
  125OSM    C9F13355   0.131   5.313   7.315 -0.0412 -0.4889  0.3063
  125OSM    H9F13356   0.029   5.339   7.284 -1.1938 -3.8558  0.8410
  125OSM   C10F13357   0.145   5.195   7.380  0.1615  0.8133 -0.5314
  125OSM   H10F13358   0.062   5.138   7.425  2.2105 -1.5231  0.4684
  125OSM   C11F13359   0.279   5.134   7.413  0.0269 -0.2592  0.0440
  125OSM   H11F13360   0.359   5.197   7.367  0.0630  0.0572  0.5289
  125OSM   H11G13361   0.280   5.031   7.371 -0.9147 -0.7451  1.1453
  125OSM   C12F13362   0.310   5.136   7.569  0.2624  0.0009 -0.1861
  125OSM   H12F13363   0.393   5.063   7.587  0.1545  0.1322  0.9030
  125OSM   H12G13364   0.217   5.096   7.614 -0.1633  0.4576 -0.6508
  125OSM   C13F13365   0.343   5.279   7.625  0.2117  0.1308  0.4934
  125OSM   H13F13366   0.270   5.358   7.596  0.1825 -0.3194 -0.7019
  125OSM   H13G13367   0.438   5.306   7.572 -0.8895  1.0951 -1.0771
  125OSM   C14F13368   0.365   5.276   7.775 -0.0672 -0.5540 -0.3852
  125OSM   H14F13369   0.264   5.274   7.822  0.6243 -1.3120  1.1272
  125OSM   H14G13370   0.426   5.367   7.796 -0.5632 -0.0600 -1.0081
  125OSM   C15F13371   0.435   5.148   7.830  0.1488 -0.1124 -0.0176
  125OSM   H15F13372   0.537   5.133   7.789  1.0225 -1.7547  2.5013
  125OSM   H15G13373   0.364   5.065   7.810  0.9977 -1.6395  2.6502
  125OSM   C16F13374   0.457   5.162   7.983  0.0250 -0.0623  0.0414
  125OSM   H16F13375   0.358   5.187   8.027  1.0254  1.8346  1.3528
  125OSM   H16G13376   0.523   5.251   7.994  0.0267  0.0858 -1.0681
  125OSM   C17F13377   0.500   5.035   8.056  0.1369 -0.4386  0.0908
  125OSM   H17F13378   0.578   4.985   7.995 -0.8839  0.2785 -1.8908
  125OSM   H17G13379   0.411   4.970   8.067 -0.9192  0.8681 -0.4062
  125OSM   C18F13380   0.545   5.064   8.203  0.1109  0.5592 -0.1033
  125OSM   H18F13381   0.517   4.974   8.262  1.4344  0.6215  0.6500
  125OSM   H18G13382   0.484   5.150   8.239  0.3558  0.7675 -0.1874
  125OSM   H18H13383   0.654   5.084   8.197 -0.1037  2.2584  0.9279
  126OSM      N13384   4.785   0.561   6.434  1.0621 -0.8396 -0.2217
  126OSM    C1513385   4.667   0.623   6.500  0.2995  0.2932 -0.5338
  126OSM   H15A13386   4.702   0.714   6.548  1.3913  0.1697 -1.0666
  126OSM   H15B13387   4.633   0.559   6.580  2.6817 -1.3263 -0.7285
  126OSM   H15C13388   4.588   0.656   6.434 -1.3716  1.2484  1.7846
  126OSM    C1413389   4.738   0.443   6.352  0.1151 -0.7430  0.0023
  126OSM   H14A13390   4.709   0.365   6.422 -0.8479 -1.4562 -1.1469
  126OSM   H14B13391   4.813   0.404   6.285 -0.4322 -2.1117  0.1499
  126OSM   H14C13392   4.652   0.466   6.291 -0.2688  0.2001  0.8751
  126OSM    C1313393   4.839   0.656   6.333  0.4690 -0.1482 -0.1799
  126OSM   H13A13394   4.891   0.741   6.373 -2.1442  1.6300 -0.2889
  126OSM   H13B13395   4.764   0.687   6.261  0.5756  1.8181  0.5086
  126OSM   H13C13396   4.920   0.605   6.284  1.9383  0.3088  1.6928
  126OSM    C1213397   4.881   0.516   6.536  0.2006 -0.2779  0.3071
  126OSM   H12A13398   4.833   0.460   6.615 -0.0126  1.2895  1.3348
  126OSM   H12B13399   4.925   0.601   6.587  0.1745 -1.0889  1.7464
  126OSM    C1113400   5.008   0.450   6.484 -0.0717 -0.1182  0.5707
  126OSM   H11A13401   4.985   0.362   6.420 -2.3468 -0.3243  1.5844
  126OSM   H11B13402   5.061   0.412   6.573  0.3728 -3.6786 -1.0362
  126OSM      P13403   5.155   0.667   6.473 -0.0915  0.1149 -0.0298
  126OSM    O1313404   5.292   0.661   6.420  0.6025 -0.2430 -0.0432
  126OSM    O1413405   5.079   0.791   6.452  0.3516 -0.1593 -0.3082
  126OSM    O1113406   5.155   0.643   6.637  0.0670 -0.5908  0.6262
  126OSM    O1213407   5.085   0.539   6.409  0.0071 -0.2084 -0.3366
  126OSM    C1S13408   5.272   0.593   6.697  0.7141 -0.1230 -0.2255
  126OSM    H1S13409   5.354   0.664   6.672 -0.4155  1.3513  0.1409
  126OSM    H1T13410   5.294   0.494   6.652  0.4065  0.0304 -0.7244
  126OSM     NF13411   5.396   0.536   6.896 -0.4853  0.0960 -0.2753
  126OSM    HNF13412   5.411   0.445   6.936 -2.3417  1.1971  3.3147
  126OSM    C2S13413   5.259   0.562   6.852 -0.6983  0.2361  0.7272
  126OSM    H2S13414   5.230   0.655   6.906  1.8477  1.4399  0.1494
  126OSM    C3S13415   5.160   0.445   6.872  0.5820  0.0050 -0.6695
  126OSM    H3S13416   5.209   0.359   6.822  0.9152 -0.4754  0.4638
  126OSM     O313417   5.032   0.465   6.816  0.1211  0.1947  1.0696
  126OSM    HO313418   5.044   0.538   6.755 -1.4070 -1.4353 -1.3719
  126OSM    C4S13419   5.169   0.422   7.026  0.5218  0.0858  0.0769
  126OSM    H4S13420   5.241   0.342   7.046 -0.2422 -0.4953  0.5598
  126OSM    C5S13421   5.081   0.458   7.124  0.3168  0.2986 -0.3796
  126OSM    H5S13422   4.990   0.500   7.079 -2.2009 -3.5794  0.6005
  126OSM    C6S13423   5.089   0.435   7.270 -0.0824 -0.5624  0.3440
  126OSM    H6S13424   5.019   0.351   7.290 -1.6396  0.9193  1.3546
  126OSM    H6T13425   5.043   0.524   7.317  1.7060  0.5054  0.1543
  126OSM    C7S13426   5.229   0.413   7.337  0.7315 -0.5724  0.7727
  126OSM    H7S13427   5.276   0.512   7.321 -1.1669  0.0953 -1.0728
  126OSM    H7T13428   5.282   0.337   7.277  1.4206  0.7208 -0.2928
  126OSM    C8S13429   5.229   0.373   7.486  0.2291 -0.1326  0.2982
  126OSM    H8S13430   5.330   0.356   7.529  1.1396  1.2782 -1.1357
  126OSM    H8T13431   5.172   0.281   7.510 -1.7025  1.0053  0.2198
  126OSM    C9S13432   5.174   0.477   7.577  0.0215  0.1930 -0.3790
  126OSM    H9S13433   5.071   0.513   7.553  0.2757  0.4430 -1.1365
  126OSM    H9T13434   5.240   0.566   7.568 -0.0857  0.2047 -1.0618
  126OSM   C10S13435   5.154   0.422   7.715  0.0366 -0.2106 -0.3984
  126OSM   H10S13436   5.149   0.311   7.718 -2.1788 -0.1367 -0.2723
  126OSM   H10T13437   5.062   0.444   7.772  0.8781 -3.7088  2.6925
  126OSM   C11S13438   5.292   0.453   7.792 -0.3192  0.4371 -0.3167
  126OSM   H11S13439   5.315   0.562   7.792  1.8466  0.0960  2.1377
  126OSM   H11T13440   5.364   0.399   7.727  0.8270  0.0210  1.2504
  126OSM   C12S13441   5.299   0.411   7.947 -0.3868  0.2222  0.3030
  126OSM   H12S13442   5.228   0.326   7.957  0.5706 -0.5109  1.0809
  126OSM   H12T13443   5.285   0.498   8.015 -0.3544  0.2175  0.3155
  126OSM   C13S13444   5.438   0.350   7.980  0.2745  0.3254  0.7934
  126OSM   H13S13445   5.519   0.416   7.943 -0.6596  1.2906  0.4248
  126OSM   H13T13446   5.457   0.256   7.924  1.8079  1.9505 -1.6015
  126OSM   C14S13447   5.444   0.308   8.125  0.3074 -0.1781  0.4075
  126OSM   H14S13448   5.358   0.250   8.164 -0.6253  1.7717  1.3311
  126OSM   H14T13449   5.452   0.401   8.184  0.2809  1.4039 -1.9581
  126OSM   C15S13450   5.567   0.228   8.167 -0.3486  0.0555 -0.3929
  126OSM   H15S13451   5.659   0.284   8.139  0.4169  0.8895  3.2868
  126OSM   H15T13452   5.576   0.134   8.108  1.2346  0.3166 -0.6123
  126OSM   C16S13453   5.575   0.212   8.321  0.2569  0.2936  0.4568
  126OSM   H16S13454   5.494   0.141   8.350  0.5510 -0.1097  0.2955
  126OSM   H16T13455   5.547   0.310   8.366 -0.0128  0.8355 -0.8377
  126OSM   C17S13456   5.709   0.158   8.375  0.1080 -0.0212  0.1201
  126OSM   H17S13457   5.787   0.225   8.333 -0.8172  0.1069 -1.4581
  126OSM   H17T13458   5.720   0.060   8.326  1.4660  0.4384 -0.5298
  126OSM   C18S13459   5.715   0.160   8.527  0.0923  0.7598 -0.4102
  126OSM   H18S13460   5.638   0.098   8.578  0.5583  2.0121  1.9685
  126OSM   H18T13461   5.706   0.265   8.562  1.7422  0.9490 -0.4680
  126OSM   H18U13462   5.813   0.114   8.555  1.2034  1.2016 -3.2588
  126OSM    C1F13463   5.497   0.612   6.911  0.4874 -0.4509 -0.9366
  126OSM     OF13464   5.490   0.728   6.884 -0.2923 -0.4221 -0.0393
  126OSM    C2F13465   5.618   0.546   6.970  0.2126 -1.0689 -0.0124
  126OSM    H2F13466   5.664   0.470   6.903  1.0941 -1.0372  0.5431
  126OSM    H2G13467   5.595   0.496   7.066  1.3575 -0.6913  0.4751
  126OSM    C3F13468   5.736   0.649   6.981  0.8633 -0.1546 -0.2277
  126OSM    H3F13469   5.696   0.748   7.013  1.1954 -0.5365  1.4438
  126OSM    H3G13470   5.780   0.661   6.880  0.4146 -0.2057 -0.4312
  126OSM    C4F13471   5.853   0.597   7.065 -0.3337 -0.1048 -0.1141
  126OSM    H4F13472   5.949   0.644   7.035 -1.1201  0.3098 -2.0897
  126OSM    H4G13473   5.854   0.489   7.040 -1.1337  0.5308 -3.2574
  126OSM    C5F13474   5.834   0.602   7.218 -0.3582  0.0179 -0.6291
  126OSM    H5F13475   5.865   0.505   7.263 -0.0766 -0.2796 -1.4434
  126OSM    H5G13476   5.726   0.619   7.242 -0.3613  1.5322 -1.5859
  126OSM    C6F13477   5.898   0.728   7.280 -0.4068 -0.2097  0.0365
  126OSM    H6F13478   5.824   0.810   7.293  2.0917  2.4957 -1.7265
  126OSM    H6G13479   5.988   0.753   7.220  0.9237  0.7488  2.2883
  126OSM    C7F13480   5.955   0.698   7.419  0.0037  0.5077 -0.1323
  126OSM    H7F13481   6.040   0.631   7.393 -0.2353 -0.0659  0.5076
  126OSM    H7G13482   5.881   0.640   7.480  0.6804  0.6110  0.8092
  126OSM    C8F13483   6.007   0.814   7.501  0.4844 -0.4158 -0.5212
  126OSM    H8F13484   5.928   0.863   7.561  0.7556 -2.8419  2.0427
  126OSM    H8G13485   6.049   0.888   7.429 -2.8884  0.2082 -2.0352
  126OSM    C9F13486   6.124   0.761   7.577 -0.2373 -0.0807  0.1378
  126OSM    H9F13487   6.195   0.694   7.526 -0.6155  0.8604 -1.7201
  126OSM   C10F13488   6.170   0.808   7.695 -0.6747 -0.3169 -0.1917
  126OSM   H10F13489   6.245   0.743   7.742 -0.3083  0.6054  0.5241
  126OSM   C11F13490   6.115   0.919   7.772  0.5245 -0.2342  0.9707
  126OSM   H11F13491   6.032   0.967   7.714  1.0183 -0.5867 -0.0489
  126OSM   H11G13492   6.183   1.002   7.802 -1.1643  1.6011  0.0091
  126OSM   C12F13493   6.042   0.873   7.902  0.0075  0.6091 -0.0858
  126OSM   H12F13494   5.986   0.782   7.870  0.2626  1.1938 -2.3544
  126OSM   H12G13495   5.978   0.957   7.935  0.4920  0.7266  0.5765
  126OSM   C13F13496   6.140   0.846   8.010  0.1647 -0.0485 -0.1418
  126OSM   H13F13497   6.211   0.930   8.029 -0.6281 -0.0346  3.5324
  126OSM   H13G13498   6.206   0.762   7.980 -0.7968 -1.4312  1.4523
  126OSM   C14F13499   6.082   0.812   8.151  0.6346  0.0264  0.0731
  126OSM   H14F13500   6.016   0.724   8.137 -0.3663  1.1768 -3.4448
  126OSM   H14G13501   6.013   0.895   8.180 -1.2042 -1.4169 -0.0056
  126OSM   C15F13502   6.181   0.783   8.265 -0.0054  0.0813 -0.4586
  126OSM   H15F13503   6.262   0.859   8.275 -0.2175  0.2256  0.2162
  126OSM   H15G13504   6.241   0.695   8.233  0.1977 -1.0283  2.6244
  126OSM   C16F13505   6.116   0.746   8.397  0.1498 -0.1358 -0.2891
  126OSM   H16F13506   6.053   0.834   8.422 -0.0922 -0.7725  1.4936
  126OSM   H16G13507   6.192   0.739   8.477 -0.4230  3.9728  0.8687
  126OSM   C17F13508   6.035   0.615   8.401 -0.0255  0.4502  0.5224
  126OSM   H17F13509   6.087   0.527   8.357 -2.3069 -0.6866 -0.0483
  126OSM   H17G13510   5.945   0.612   8.336  0.1322  1.1196  0.2702
  126OSM   C18F13511   5.987   0.571   8.543 -0.1110  0.1806  0.1583
  126OSM   H18F13512   6.068   0.553   8.616 -1.2800 -0.4853  1.3455
  126OSM   H18G13513   5.939   0.470   8.542  0.6259 -0.1848 -1.2430
  126OSM   H18H13514   5.923   0.647   8.593  1.6105  1.6080  0.2511
  127OSM      N13515   3.132   3.454   6.218 -0.2136 -0.4894  0.3593
  127OSM    C1513516   3.161   3.307   6.174 -0.1203 -0.5660 -0.4292
  127OSM   H15A13517   3.239   3.267   6.237 -0.4247 -0.3207  0.1118
  127OSM   H15B13518   3.202   3.303   6.074  0.7336 -1.8900 -0.0552
  127OSM   H15C13519   3.078   3.239   6.164 -0.8519  0.2652 -0.1630
  127OSM    C1413520   3.264   3.518   6.205 -0.3030 -0.3821  0.5812
  127OSM   H14A13521   3.288   3.521   6.100 -4.1156 -1.4971 -0.4721
  127OSM   H14B13522   3.342   3.476   6.267  0.6199  2.2121  1.3184
  127OSM   H14C13523   3.247   3.622   6.228 -2.4938  0.2665 -3.1762
  127OSM    C1313524   3.038   3.513   6.123  0.1543 -0.0317  0.2105
  127OSM   H13A13525   2.968   3.434   6.099  0.6751 -0.8321  1.2497
  127OSM   H13B13526   3.092   3.538   6.032 -2.6712  0.1278 -1.5484
  127OSM   H13C13527   2.973   3.591   6.158 -0.1640 -0.9607  1.7598
  127OSM    C1213528   3.087   3.452   6.364  0.3242  0.2941 -0.3290
  127OSM   H12A13529   3.158   3.384   6.409  0.5568  0.3642 -0.5844
  127OSM   H12B13530   2.987   3.414   6.376  0.5245 -0.3191 -0.5660
  127OSM    C1113531   3.093   3.586   6.443 -0.0250  0.2754 -0.1520
  127OSM   H11A13532   3.198   3.622   6.451  0.8945 -1.8109 -1.8494
  127OSM   H11B13533   3.052   3.571   6.546 -0.8664 -1.1718 -0.6582
  127OSM      P13534   2.850   3.684   6.408 -0.3374 -0.7476  0.0371
  127OSM    O1313535   2.780   3.780   6.316 -0.1709  0.3245 -0.3307
  127OSM    O1413536   2.794   3.547   6.395 -0.1874  0.0614  0.9770
  127OSM    O1113537   2.840   3.750   6.550 -0.3649 -0.3510 -0.0287
  127OSM    O1213538   3.007   3.688   6.379  0.0384 -0.2050 -0.0967
  127OSM    C1S13539   2.937   3.850   6.591  0.2635  0.3121 -0.2435
  127OSM    H1S13540   2.900   3.950   6.560 -1.6257 -0.4579 -0.6014
  127OSM    H1T13541   3.043   3.831   6.561  0.3736  1.9712 -1.0212
  127OSM     NF13542   3.010   3.980   6.791  0.0938 -0.3816 -0.4129
  127OSM    HNF13543   3.090   3.978   6.851 -0.7073  0.7963  0.7613
  127OSM    C2S13544   2.947   3.857   6.748  0.3315 -0.6031 -0.2841
  127OSM    H2S13545   2.844   3.867   6.788  0.7935 -0.3325  0.8767
  127OSM    C3S13546   3.021   3.719   6.796  0.0887  0.0610  0.2360
  127OSM    H3S13547   3.123   3.712   6.753  0.2276 -2.3318  0.8005
  127OSM     O313548   2.954   3.595   6.773 -0.2009 -0.1902  0.0851
  127OSM    HO313549   2.868   3.623   6.742  0.1523 -0.3673 -1.1102
  127OSM    C4S13550   3.038   3.729   6.942 -0.3723  0.2459  0.4366
  127OSM    H4S13551   2.942   3.748   6.993 -1.2568 -0.8091 -0.7475
  127OSM    C5S13552   3.151   3.712   7.019 -0.0884  0.0511 -0.1693
  127OSM    H5S13553   3.252   3.705   6.977  0.4385 -0.7557  1.1622
  127OSM    C6S13554   3.157   3.715   7.172 -0.2859  0.4993  0.1726
  127OSM    H6S13555   3.201   3.616   7.195 -0.2102  0.6050  0.4879
  127OSM    H6T13556   3.058   3.715   7.223 -1.3490 -3.5301 -1.4891
  127OSM    C7S13557   3.248   3.825   7.240 -0.1359  1.3063  0.3082
  127OSM    H7S13558   3.189   3.918   7.228  0.9055  1.8288 -1.0197
  127OSM    H7T13559   3.341   3.836   7.180  1.2976  1.0933  2.3657
  127OSM    C8S13560   3.273   3.794   7.391  1.2648 -0.5886  0.8830
  127OSM    H8S13561   3.313   3.690   7.393 -0.0670 -1.1776 -0.7997
  127OSM    H8T13562   3.170   3.798   7.434  0.9729 -1.2217  0.2598
  127OSM    C9S13563   3.363   3.890   7.464 -0.0930  0.7212  0.5757
  127OSM    H9S13564   3.368   3.987   7.409 -0.0981  0.4728  0.1293
  127OSM    H9T13565   3.466   3.847   7.465  0.2700  1.5747  0.5804
  127OSM   C10S13566   3.306   3.916   7.609  0.2883  0.5543 -0.5121
  127OSM   H10S13567   3.249   3.824   7.632  1.8060 -0.8619 -2.0659
  127OSM   H10T13568   3.252   4.013   7.605 -0.2946  0.2015 -1.5494
  127OSM   C11S13569   3.435   3.915   7.704 -0.7617  0.4492  0.0707
  127OSM   H11S13570   3.477   4.016   7.683  2.9575 -0.8220  0.4957
  127OSM   H11T13571   3.502   3.835   7.665  0.1195  0.2566  1.8808
  127OSM   C12S13572   3.413   3.889   7.846 -0.5631  0.1199  0.0127
  127OSM   H12S13573   3.513   3.895   7.894 -0.1459 -0.7974 -0.7029
  127OSM   H12T13574   3.386   3.782   7.835 -0.8587  0.2936 -1.0335
  127OSM   C13S13575   3.309   3.969   7.928  0.3597  0.6838 -0.0223
  127OSM   H13S13576   3.305   3.921   8.028 -0.9980  0.5955 -0.0979
  127OSM   H13T13577   3.206   3.947   7.892 -0.5355  2.1335  1.5144
  127OSM   C14S13578   3.343   4.122   7.936 -0.9272  0.1182 -0.2343
  127OSM   H14S13579   3.392   4.173   7.850  2.0603  1.4988  2.1184
  127OSM   H14T13580   3.428   4.127   8.007 -0.0270 -0.7033 -1.2184
  127OSM   C15S13581   3.216   4.197   7.976 -0.6561  0.0969 -0.5032
  127OSM   H15S13582   3.240   4.300   8.008  0.2343 -0.3969  0.5090
  127OSM   H15T13583   3.168   4.151   8.065  0.0999  0.5582  0.1575
  127OSM   C16S13584   3.108   4.208   7.867 -0.2596 -0.4678  0.2739
  127OSM   H16S13585   3.009   4.234   7.909 -0.1988 -1.1760  0.8850
  127OSM   H16T13586   3.092   4.110   7.817 -1.4242  0.6153 -1.5934
  127OSM   C17S13587   3.130   4.313   7.762 -0.6362  0.5694 -0.5959
  127OSM   H17S13588   3.230   4.301   7.716 -0.9207 -1.3277 -0.7745
  127OSM   H17T13589   3.134   4.413   7.812  1.2467 -0.2787  1.0577
  127OSM   C18S13590   3.018   4.316   7.653 -0.0055 -0.0526  0.1870
  127OSM   H18S13591   2.923   4.287   7.703 -0.5123  1.1814 -0.0366
  127OSM   H18T13592   3.048   4.234   7.584  2.3297 -1.6144  2.8492
  127OSM   H18U13593   3.005   4.416   7.607 -0.7258  1.6989  3.7997
  127OSM    C1F13594   2.947   4.097   6.783  0.1819  0.1098 -0.1303
  127OSM     OF13595   2.830   4.101   6.740  0.2139 -0.1575 -0.1866
  127OSM    C2F13596   3.011   4.225   6.834 -1.2997 -0.0130 -0.3385
  127OSM    H2F13597   3.117   4.232   6.800 -0.7511  0.9631  1.4136
  127OSM    H2G13598   3.027   4.218   6.944  3.2776 -0.1096 -0.8261
  127OSM    C3F13599   2.934   4.350   6.800 -0.2731 -0.6411  0.1796
  127OSM    H3F13600   2.831   4.357   6.840 -0.8412 -0.3226 -1.3035
  127OSM    H3G13601   2.930   4.377   6.692  2.4889 -2.4549 -0.4950
  127OSM    C4F13602   2.994   4.480   6.858  0.3381 -0.2767 -0.1755
  127OSM    H4F13603   2.947   4.564   6.801 -0.3997  0.1962  1.0710
  127OSM    H4G13604   3.104   4.468   6.851  0.1259 -1.6017 -1.5941
  127OSM    C5F13605   2.950   4.504   6.999  0.8144 -0.2195  0.3874
  127OSM    H5F13606   2.988   4.420   7.061  0.0633 -0.3070  0.7430
  127OSM    H5G13607   2.841   4.492   7.016  1.1136 -1.8649  1.3727
  127OSM    C6F13608   2.995   4.635   7.068 -0.3557 -0.0042 -0.5001
  127OSM    H6F13609   2.934   4.721   7.033  0.0554 -0.4116 -2.3381
  127OSM    H6G13610   3.103   4.650   7.048 -0.2210 -0.6971 -0.3314
  127OSM    C7F13611   2.975   4.642   7.216  0.6345  0.0682 -0.5466
  127OSM    H7F13612   3.047   4.571   7.261 -0.1293 -1.2416 -1.3338
  127OSM    H7G13613   2.870   4.609   7.230  0.8012 -0.2582 -0.0346
  127OSM    C8F13614   2.982   4.783   7.276  0.4442 -0.2984  0.8001
  127OSM    H8F13615   2.958   4.865   7.204  0.6607 -0.4223  0.5841
  127OSM    H8G13616   3.091   4.784   7.301  0.8146 -0.0208 -0.7286
  127OSM    C9F13617   2.900   4.812   7.395 -0.2364 -0.0746  0.1073
  127OSM    H9F13618   2.795   4.810   7.365  0.0545 -2.3322 -0.9255
  127OSM   C10F13619   2.936   4.844   7.517  0.0285  0.7225 -0.5545
  127OSM   H10F13620   2.854   4.864   7.588 -0.9461 -1.5554 -0.9557
  127OSM   C11F13621   3.074   4.844   7.568 -0.3504  0.0403  0.3512
  127OSM   H11F13622   3.080   4.879   7.673  0.9783 -2.6714  1.2702
  127OSM   H11G13623   3.139   4.911   7.509 -1.7638  0.9218 -0.2607
  127OSM   C12F13624   3.146   4.706   7.566  0.1927  1.2415  0.4208
  127OSM   H12F13625   3.125   4.654   7.470  1.3564 -0.6502  1.1380
  127OSM   H12G13626   3.089   4.649   7.642 -1.2847  0.7486 -0.9966
  127OSM   C13F13627   3.298   4.719   7.575 -0.3047  0.7261 -0.3612
  127OSM   H13F13628   3.325   4.757   7.675 -1.0337 -0.7620  0.4336
  127OSM   H13G13629   3.336   4.773   7.486  2.2013  0.6278  0.5743
  127OSM   C14F13630   3.377   4.583   7.579 -0.6447 -0.4098 -0.5325
  127OSM   H14F13631   3.362   4.529   7.482 -2.7095 -1.3896  0.2730
  127OSM   H14G13632   3.312   4.519   7.643 -2.4474  1.0786 -0.7994
  127OSM   C15F13633   3.520   4.576   7.642  0.3456 -0.2137  0.3893
  127OSM   H15F13634   3.530   4.609   7.748  0.5286 -1.1095  0.6572
  127OSM   H15G13635   3.588   4.637   7.579  1.1039 -0.5830  0.8331
  127OSM   C16F13636   3.572   4.439   7.653 -0.3114  0.0832  0.0973
  127OSM   H16F13637   3.510   4.371   7.715 -0.4324 -0.1790 -0.3101
  127OSM   H16G13638   3.671   4.444   7.703 -0.8122 -2.5549  1.5040
  127OSM   C17F13639   3.585   4.371   7.517 -0.0477 -0.0453 -0.0336
  127OSM   H17F13640   3.638   4.446   7.456 -1.0297  2.8523  2.4446
  127OSM   H17G13641   3.486   4.345   7.474  0.6913 -0.2867 -1.6497
  127OSM   C18F13642   3.662   4.244   7.518 -0.4341  0.9616  0.5899
  127OSM   H18F13643   3.641   4.175   7.603  1.1747 -1.0856 -0.5883
  127OSM   H18G13644   3.770   4.264   7.535  0.1279 -1.3584  0.1203
  127OSM   H18H13645   3.657   4.186   7.424 -1.5586  0.8161  0.7258
  128OSM      N13646   3.183   1.003   6.061 -0.0895  0.4148  0.0894
  128OSM    C1513647   3.222   0.907   5.944 -0.5890 -0.7532  0.1969
  128OSM   H15A13648   3.195   0.805   5.967 -2.8467 -0.9377 -2.7596
  128OSM   H15B13649   3.328   0.911   5.925 -0.4554  0.4605  1.0566
  128OSM   H15C13650   3.170   0.923   5.851  2.9046 -1.5628 -2.0943
  128OSM    C1413651   3.304   1.016   6.151 -0.6217 -0.0236  0.1790
  128OSM   H14A13652   3.285   1.080   6.236 -0.0824 -0.4685  0.6462
  128OSM   H14B13653   3.391   1.043   6.093 -0.3287 -0.4154  0.4277
  128OSM   H14C13654   3.324   0.916   6.187 -0.9081 -1.0216 -2.2744
  128OSM    C1313655   3.155   1.137   6.005 -0.6651  0.6918  0.2806
  128OSM   H13A13656   3.248   1.178   5.969 -0.8032  0.6497 -0.1336
  128OSM   H13B13657   3.136   1.207   6.085 -1.4476  0.6354  0.1564
  128OSM   H13C13658   3.077   1.130   5.930 -0.2365  0.3501 -0.1414
  128OSM    C1213659   3.063   0.953   6.137 -0.8063  0.2812  0.2743
  128OSM   H12A13660   2.974   0.969   6.078 -1.2039 -0.2720  0.7218
  128OSM   H12B13661   3.063   1.022   6.221  1.3338  1.1905 -0.4034
  128OSM    C1113662   3.064   0.816   6.208 -0.2420 -0.3285  0.0440
  128OSM   H11A13663   3.018   0.739   6.143 -0.0909  0.0766 -0.5503
  128OSM   H11B13664   3.004   0.839   6.299  0.2949  0.1763  0.2718
  128OSM      P13665   3.264   0.640   6.220  0.0750  0.2820 -0.1351
  128OSM    O1313666   3.189   0.566   6.118 -0.8409 -0.6446 -0.2094
  128OSM    O1413667   3.409   0.657   6.206  0.0153 -0.9278  0.5680
  128OSM    O1113668   3.247   0.553   6.352  0.0674  0.2762  0.2702
  128OSM    O1213669   3.192   0.781   6.256  0.3433 -0.2777 -0.2044
  128OSM    C1S13670   3.307   0.615   6.468 -0.6493 -0.0434  0.7783
  128OSM    H1S13671   3.302   0.726   6.470  0.3391  0.0411 -0.0611
  128OSM    H1T13672   3.414   0.585   6.470 -0.9294 -1.7685 -2.6435
  128OSM     NF13673   3.312   0.632   6.710  0.6157 -0.4044  0.1327
  128OSM    HNF13674   3.359   0.565   6.766 -0.1905 -0.8921  0.2448
  128OSM    C2S13675   3.234   0.579   6.597 -0.7685 -0.6930  0.0753
  128OSM    H2S13676   3.130   0.617   6.591  0.3461  2.5352 -0.4660
  128OSM    C3S13677   3.208   0.423   6.611  0.0177 -0.1996  0.4066
  128OSM    H3S13678   3.309   0.381   6.634 -0.1359 -1.0940 -0.5102
  128OSM     O313679   3.159   0.342   6.503  0.3532  0.3389  0.3888
  128OSM    HO313680   3.179   0.393   6.424 -1.2310 -1.5294 -1.3252
  128OSM    C4S13681   3.123   0.396   6.736  0.0057 -0.6589 -0.0555
  128OSM    H4S13682   3.194   0.380   6.818  2.1540 -0.6807 -1.8094
  128OSM    C5S13683   2.988   0.395   6.744 -0.1150  0.0797  0.3102
  128OSM    H5S13684   2.935   0.398   6.647 -0.7475  2.2776  0.6669
  128OSM    C6S13685   2.905   0.361   6.871 -0.0709 -0.4629 -0.0536
  128OSM    H6S13686   2.904   0.254   6.901 -1.3593 -0.0983  1.3137
  128OSM    H6T13687   2.800   0.389   6.850 -0.2355  0.0972  1.3778
  128OSM    C7S13688   2.946   0.447   6.993 -0.9343  0.5726  0.4581
  128OSM    H7S13689   2.943   0.555   6.965  0.3494  0.3136 -0.8266
  128OSM    H7T13690   3.055   0.436   7.015 -0.4961  2.7763 -0.3492
  128OSM    C8S13691   2.861   0.429   7.119 -0.5212 -0.4446 -0.3137
  128OSM    H8S13692   2.846   0.321   7.141  1.8548 -0.5487  1.1645
  128OSM    H8T13693   2.765   0.481   7.103 -0.3046  0.8980  2.2454
  128OSM    C9S13694   2.927   0.494   7.244 -0.3103 -0.2634  0.3412
  128OSM    H9S13695   2.991   0.574   7.202  0.8314 -2.2726 -1.9654
  128OSM    H9T13696   2.991   0.419   7.295 -1.1467 -0.4103  1.2002
  128OSM   C10S13697   2.830   0.549   7.341  1.3694  0.6581 -0.1568
  128OSM   H10S13698   2.771   0.465   7.385 -0.9377  2.1442 -0.2492
  128OSM   H10T13699   2.753   0.620   7.303  0.3175 -0.2455  0.2232
  128OSM   C11S13700   2.902   0.612   7.462  0.0286 -0.3874  0.3721
  128OSM   H11S13701   2.953   0.700   7.419 -1.4538  0.5074  0.3598
  128OSM   H11T13702   2.977   0.547   7.512  1.0829 -0.1405 -0.8505
  128OSM   C12S13703   2.800   0.665   7.558 -0.3533  0.5813 -0.0854
  128OSM   H12S13704   2.761   0.575   7.610  0.2888 -0.9014 -2.0434
  128OSM   H12T13705   2.714   0.714   7.509 -2.3569 -2.1105  0.5360
  128OSM   C13S13706   2.860   0.766   7.659  0.1052 -0.2891 -0.2710
  128OSM   H13S13707   2.886   0.865   7.615 -1.1605  0.5496  0.7771
  128OSM   H13T13708   2.956   0.729   7.700  0.8334 -0.2290 -1.8439
  128OSM   C14S13709   2.774   0.781   7.788 -0.5064  0.1863 -0.1183
  128OSM   H14S13710   2.819   0.844   7.867 -1.4994  0.5928  0.1333
  128OSM   H14T13711   2.738   0.689   7.838  2.0211 -0.5439  0.5103
  128OSM   C15S13712   2.650   0.863   7.760  0.5194 -0.1670  0.5145
  128OSM   H15S13713   2.587   0.811   7.684  0.5319 -1.4125  1.3196
  128OSM   H15T13714   2.680   0.957   7.709 -1.8621  0.0134 -0.6912
  128OSM   C16S13715   2.573   0.905   7.882 -0.2732  0.5386  0.2079
  128OSM   H16S13716   2.525   1.002   7.861 -2.2560 -1.0702 -3.8289
  128OSM   H16T13717   2.646   0.907   7.966  1.3836  0.1973 -1.1669
  128OSM   C17S13718   2.460   0.807   7.921  0.8732  0.1835 -0.5958
  128OSM   H17S13719   2.488   0.701   7.938 -2.8238 -0.4422  2.9927
  128OSM   H17T13720   2.388   0.798   7.837 -1.8146  2.9103  1.2327
  128OSM   C18S13721   2.371   0.855   8.038 -0.5478  0.5488 -0.5837
  128OSM   H18S13722   2.277   0.797   8.048 -1.4258  2.1355  0.9750
  128OSM   H18T13723   2.347   0.962   8.022 -1.0435  0.4589 -0.4452
  128OSM   H18U13724   2.411   0.851   8.142  0.1237 -0.4052 -0.8678
  128OSM    C1F13725   3.325   0.759   6.729 -0.1841 -0.9870 -0.9015
  128OSM     OF13726   3.254   0.840   6.671 -0.3199  0.1353 -0.0627
  128OSM    C2F13727   3.444   0.805   6.813 -0.6019 -0.2573  0.3801
  128OSM    H2F13728   3.503   0.860   6.735 -2.2420  1.6290  0.3943
  128OSM    H2G13729   3.491   0.717   6.861 -0.2211 -1.3430 -1.8514
  128OSM    C3F13730   3.411   0.926   6.911 -0.0898  0.9504 -0.4879
  128OSM    H3F13731   3.369   1.010   6.851 -1.3359 -1.0824 -2.6559
  128OSM    H3G13732   3.506   0.952   6.963 -0.2446 -0.1588  0.3778
  128OSM    C4F13733   3.308   0.894   7.021 -0.4251 -0.5310  0.2641
  128OSM    H4F13734   3.201   0.913   6.998 -0.4663 -0.8234  0.2126
  128OSM    H4G13735   3.337   0.972   7.095  1.6449 -0.4281 -0.5964
  128OSM    C5F13736   3.326   0.760   7.092 -0.7065  0.1121 -0.2781
  128OSM    H5F13737   3.434   0.743   7.109 -0.7565  0.3516  0.2992
  128OSM    H5G13738   3.309   0.681   7.015 -0.9696 -2.1583  1.9734
  128OSM    C6F13739   3.220   0.735   7.202 -0.8460  0.3747  0.3830
  128OSM    H6F13740   3.199   0.628   7.223  1.2683 -0.3434 -0.9067
  128OSM    H6G13741   3.125   0.782   7.168 -2.0427 -2.5479 -0.5920
  128OSM    C7F13742   3.255   0.784   7.340 -0.3579 -0.0052  0.3189
  128OSM    H7F13743   3.164   0.765   7.401  0.8646 -1.9288  1.6677
  128OSM    H7G13744   3.269   0.894   7.333  1.3247 -0.2676 -1.1921
  128OSM    C8F13745   3.374   0.715   7.414  0.0285 -0.2591  0.2059
  128OSM    H8F13746   3.367   0.767   7.512 -2.2545 -0.2965  0.1119
  128OSM    H8G13747   3.463   0.752   7.359 -2.2507  0.4642 -3.3139
  128OSM    C9F13748   3.374   0.567   7.419  0.3677  0.0531 -0.3227
  128OSM    H9F13749   3.377   0.509   7.325  0.9343 -2.5936  1.2218
  128OSM   C10F13750   3.370   0.491   7.532 -0.2674  0.2230  0.4695
  128OSM   H10F13751   3.361   0.382   7.523  2.1193 -0.0674  0.8652
  128OSM   C11F13752   3.367   0.530   7.677 -0.2812 -0.1917  0.3720
  128OSM   H11F13753   3.424   0.622   7.701 -2.6442  0.8136  2.5245
  128OSM   H11G13754   3.410   0.447   7.737 -0.0047 -0.8379 -0.6920
  128OSM   C12F13755   3.218   0.548   7.718  0.4354  0.0489  0.6566
  128OSM   H12F13756   3.164   0.457   7.683  1.7923 -1.7391  2.8713
  128OSM   H12G13757   3.175   0.639   7.672 -2.0105 -0.4616  1.7656
  128OSM   C13F13758   3.208   0.560   7.874  0.7010 -0.3775  0.1333
  128OSM   H13F13759   3.215   0.670   7.890  0.9105 -0.4070  0.2436
  128OSM   H13G13760   3.289   0.504   7.925  1.4905  2.2428  1.9391
  128OSM   C14F13761   3.080   0.518   7.936 -1.1179  0.1050 -0.7043
  128OSM   H14F13762   3.079   0.410   7.910 -2.2891 -0.5756  1.8326
  128OSM   H14G13763   2.990   0.570   7.896 -1.1896 -0.7703 -1.7297
  128OSM   C15F13764   3.071   0.525   8.092 -0.5880 -0.3108 -0.0136
  128OSM   H15F13765   2.964   0.511   8.121 -1.1763  2.8022 -0.2782
  128OSM   H15G13766   3.099   0.626   8.131 -1.5670  0.0060 -0.0911
  128OSM   C16F13767   3.164   0.430   8.168 -0.2968  0.5388 -0.1228
  128OSM   H16F13768   3.266   0.471   8.155  0.5674 -1.7711 -1.2902
  128OSM   H16G13769   3.159   0.329   8.121 -2.9920  0.3770  0.3488
  128OSM   C17F13770   3.131   0.423   8.315  0.2296  0.1056  0.2472
  128OSM   H17F13771   3.022   0.438   8.334 -0.1475 -2.2640  0.2436
  128OSM   H17G13772   3.176   0.513   8.361  1.1546  1.1165 -2.4302
  128OSM   C18F13773   3.182   0.302   8.391 -0.3733  0.6418 -0.4091
  128OSM   H18F13774   3.288   0.284   8.363 -0.5380 -0.4373 -0.3806
  128OSM   H18G13775   3.121   0.210   8.381  2.5763 -1.6515  0.9580
  128OSM   H18H13776   3.202   0.306   8.501  0.9989 -0.7447 -0.5761
  129OSM      N13777   1.146   3.460   5.936 -0.5743  0.5767  0.4847
  129OSM    C1513778   1.083   3.331   5.898 -0.1631 -0.9290 -0.1264
  129OSM   H15A13779   0.975   3.335   5.902 -0.1424 -1.3991  2.3629
  129OSM   H15B13780   1.100   3.253   5.971 -1.6800 -1.0062  0.1802
  129OSM   H15C13781   1.120   3.293   5.804 -2.1786 -2.7589 -0.2563
  129OSM    C1413782   1.075   3.505   6.055 -0.8939 -0.9340  0.2024
  129OSM   H14A13783   1.109   3.606   6.070 -0.3887 -0.7266 -1.9644
  129OSM   H14B13784   1.102   3.444   6.140  1.8233 -0.0969  0.0306
  129OSM   H14C13785   0.967   3.510   6.050 -0.8077  1.7029 -0.0974
  129OSM    C1313786   1.291   3.430   5.978  0.3295 -1.0619  0.2945
  129OSM   H13A13787   1.303   3.372   6.068  1.5165  0.2068  0.9890
  129OSM   H13B13788   1.342   3.523   5.998  1.9167 -2.2641  2.2034
  129OSM   H13C13789   1.338   3.381   5.894  0.3704  2.1424 -1.7235
  129OSM    C1213790   1.145   3.563   5.824 -0.0804 -0.3700 -0.9271
  129OSM   H12A13791   1.039   3.572   5.807  0.2819  0.9433 -2.9361
  129OSM   H12B13792   1.192   3.524   5.735 -2.1246  1.0857 -2.7631
  129OSM    C1113793   1.210   3.699   5.867 -0.2479 -0.0677  1.1498
  129OSM   H11A13794   1.211   3.762   5.776  1.0769  0.4278  1.4943
  129OSM   H11B13795   1.313   3.684   5.904  1.0163 -0.7967 -2.3188
  129OSM      P13796   1.185   3.888   6.031  0.0290 -0.8709 -0.1121
  129OSM    O1313797   1.227   3.990   5.929  0.5327 -0.4664  0.6316
  129OSM    O1413798   1.099   3.945   6.141  1.0304  0.5077  0.1923
  129OSM    O1113799   1.316   3.822   6.090 -0.2179  0.0090 -0.2570
  129OSM    O1213800   1.123   3.768   5.957  0.2711  0.0025  0.0333
  129OSM    C1S13801   1.411   3.907   6.161  0.4678  0.6392  0.1109
  129OSM    H1S13802   1.368   4.008   6.182 -0.8499  0.0854  0.1872
  129OSM    H1T13803   1.505   3.915   6.103 -0.1431 -2.4239 -1.5038
  129OSM     NF13804   1.536   3.934   6.375 -0.0226  0.4420  0.0414
  129OSM    HNF13805   1.632   3.908   6.379 -0.3748 -0.9472 -0.1068
  129OSM    C2S13806   1.434   3.851   6.300 -0.1618  0.0945 -0.7554
  129OSM    H2S13807   1.339   3.857   6.358  1.9419  0.5258  3.0107
  129OSM    C3S13808   1.469   3.703   6.287  0.1331  0.2936  0.8621
  129OSM    H3S13809   1.559   3.703   6.223 -1.2247  2.4981 -1.2080
  129OSM     O313810   1.370   3.614   6.230  0.2996 -0.2656 -0.1053
  129OSM    HO313811   1.338   3.674   6.163 -2.0765 -1.7095 -0.3737
  129OSM    C4S13812   1.515   3.643   6.419  0.4750 -0.7872 -0.6148
  129OSM    H4S13813   1.623   3.622   6.415  0.8227  0.7056  0.4207
  129OSM    C5S13814   1.435   3.612   6.529  0.1127  0.2339  0.0278
  129OSM    H5S13815   1.330   3.646   6.530  0.1397  0.3925 -1.2688
  129OSM    C6S13816   1.492   3.539   6.645  0.0399  0.1578 -0.3739
  129OSM    H6S13817   1.602   3.557   6.646  0.1452 -0.2398  2.1823
  129OSM    H6T13818   1.470   3.430   6.639 -0.4114  0.2275 -0.0355
  129OSM    C7S13819   1.430   3.596   6.768  0.4744  0.6056  0.1138
  129OSM    H7S13820   1.320   3.577   6.764  0.6968 -0.8109  0.1877
  129OSM    H7T13821   1.443   3.707   6.771  0.0129  0.6666  2.9044
  129OSM    C8S13822   1.491   3.550   6.898 -0.8620  0.7003  0.0513
  129OSM    H8S13823   1.601   3.547   6.888 -0.9965 -0.7430 -1.4987
  129OSM    H8T13824   1.459   3.444   6.906 -0.5722  0.6026 -0.0742
  129OSM    C9S13825   1.454   3.644   7.013 -0.0355 -0.0115 -0.5797
  129OSM    H9S13826   1.343   3.640   7.018  0.0058  0.0932  1.1265
  129OSM    H9T13827   1.495   3.747   7.005  0.6205  0.0597  2.4751
  129OSM   C10S13828   1.511   3.600   7.150 -0.2638 -0.1680 -0.3425
  129OSM   H10S13829   1.618   3.630   7.153 -0.6707  1.2834  2.0282
  129OSM   H10T13830   1.505   3.489   7.158 -1.3818 -0.0335  1.0497
  129OSM   C11S13831   1.457   3.665   7.272  0.1234 -0.0845 -0.1658
  129OSM   H11S13832   1.352   3.632   7.289  1.1566 -2.8064  1.4986
  129OSM   H11T13833   1.454   3.776   7.268 -0.4797 -0.0017  1.7353
  129OSM   C12S13834   1.532   3.628   7.397 -0.4392  0.1728  0.0527
  129OSM   H12S13835   1.639   3.653   7.383 -0.6531  0.3359 -1.4900
  129OSM   H12T13836   1.529   3.518   7.413  0.3525  0.1533  0.1126
  129OSM   C13S13837   1.471   3.669   7.536  0.5258 -0.3320 -0.1656
  129OSM   H13S13838   1.379   3.608   7.544  0.6534 -0.3164  1.7380
  129OSM   H13T13839   1.432   3.773   7.531 -1.6316 -1.1079 -0.5113
  129OSM   C14S13840   1.556   3.654   7.657  0.2001  0.4427 -0.0386
  129OSM   H14S13841   1.644   3.721   7.652  0.1142  0.6351  0.8757
  129OSM   H14T13842   1.579   3.546   7.645 -2.5091 -0.0103 -2.2082
  129OSM   C15S13843   1.496   3.680   7.788  0.3047  0.0692  0.9505
  129OSM   H15S13844   1.397   3.631   7.783  1.9079 -3.5148  1.5788
  129OSM   H15T13845   1.481   3.788   7.814  3.3015  0.6610  0.5305
  129OSM   C16S13846   1.571   3.605   7.900  0.5714 -0.0410  0.3451
  129OSM   H16S13847   1.670   3.654   7.899  2.1242 -2.9914  0.3040
  129OSM   H16T13848   1.589   3.500   7.870  1.3933 -0.1401  1.1525
  129OSM   C17S13849   1.499   3.628   8.034 -1.0322 -0.1672  0.2873
  129OSM   H17S13850   1.538   3.554   8.108 -0.3287  0.0849  0.1746
  129OSM   H17T13851   1.392   3.601   8.029 -1.4254  1.5012 -1.1806
  129OSM   C18S13852   1.515   3.770   8.094 -0.1294 -0.3183  0.2556
  129OSM   H18S13853   1.488   3.851   8.023  0.3577 -1.1317 -0.8885
  129OSM   H18T13854   1.618   3.779   8.135 -0.3245 -3.5928  1.7858
  129OSM   H18U13855   1.451   3.769   8.185 -2.2675 -1.2199 -1.1890
  129OSM    C1F13856   1.501   4.056   6.415 -0.1869 -0.1224 -0.4970
  129OSM     OF13857   1.388   4.106   6.394 -0.1088 -0.1475  0.4835
  129OSM    C2F13858   1.604   4.136   6.485  0.3174 -0.6097  0.2295
  129OSM    H2F13859   1.571   4.242   6.479 -0.5880 -0.9643 -1.6106
  129OSM    H2G13860   1.707   4.112   6.451  0.7439  2.4885 -1.0004
  129OSM    C3F13861   1.606   4.109   6.637  0.1923  0.6610 -0.1954
  129OSM    H3F13862   1.501   4.122   6.674 -0.1327  0.6664 -1.1026
  129OSM    H3G13863   1.665   4.182   6.696 -0.1979  1.2093 -0.4681
  129OSM    C4F13864   1.645   3.965   6.678 -0.5095  0.9348  0.2971
  129OSM    H4F13865   1.720   3.934   6.602  0.2083  1.5022  0.7680
  129OSM    H4G13866   1.560   3.894   6.669  1.2674 -1.2140 -0.3774
  129OSM    C5F13867   1.707   3.960   6.819 -0.4865  1.3482  0.4775
  129OSM    H5F13868   1.629   3.962   6.899 -1.3967  2.9539 -0.4016
  129OSM    H5G13869   1.776   4.045   6.841  2.5912 -0.8297 -0.1188
  129OSM    C6F13870   1.782   3.827   6.846 -0.1126 -0.3112  0.1502
  129OSM    H6F13871   1.854   3.808   6.764 -0.2647 -0.4639  0.0516
  129OSM    H6G13872   1.706   3.746   6.841  0.6590 -1.3677  3.1532
  129OSM    C7F13873   1.855   3.821   6.985  0.5607 -0.5208 -0.3903
  129OSM    H7F13874   1.791   3.826   7.076 -1.1812 -0.8664 -1.5419
  129OSM    H7G13875   1.922   3.909   6.986 -0.6226  0.4094 -0.4349
  129OSM    C8F13876   1.955   3.698   6.993 -0.1950  1.1954  0.7767
  129OSM    H8F13877   2.022   3.707   6.904 -2.4796 -0.0730 -1.2079
  129OSM    H8G13878   1.906   3.601   6.969  0.4716  1.4081 -1.7626
  129OSM    C9F13879   2.042   3.684   7.110  0.1507  0.0169  0.7658
  129OSM    H9F13880   2.102   3.776   7.113 -0.3613  0.5019 -1.5342
  129OSM   C10F13881   2.066   3.578   7.183 -0.5475  0.6432 -0.8808
  129OSM   H10F13882   2.131   3.587   7.272 -1.4370  1.9464 -0.3345
  129OSM   C11F13883   2.008   3.441   7.163 -0.2378  0.0022 -0.3313
  129OSM   H11F13884   2.087   3.362   7.170 -1.6530 -1.4728 -0.5876
  129OSM   H11G13885   1.949   3.433   7.070 -1.2882 -0.3833  0.3545
  129OSM   C12F13886   1.906   3.425   7.278  0.5212 -0.1370 -0.4492
  129OSM   H12F13887   1.863   3.327   7.249 -0.8038  0.3348 -0.1926
  129OSM   H12G13888   1.818   3.494   7.269  1.2981  0.6414 -2.7797
  129OSM   C13F13889   1.968   3.400   7.414 -0.2253  0.4256 -0.5392
  129OSM   H13F13890   2.030   3.485   7.449  1.5490 -0.5412 -1.2256
  129OSM   H13G13891   2.035   3.311   7.405  0.0947  0.6082 -0.0102
  129OSM   C14F13892   1.856   3.372   7.520  0.0902  0.0598  0.3457
  129OSM   H14F13893   1.782   3.303   7.474  1.1358 -1.9962  1.5796
  129OSM   H14G13894   1.811   3.474   7.524  1.6776  0.7620  1.3003
  129OSM   C15F13895   1.912   3.314   7.651  1.7411  0.1620 -0.3872
  129OSM   H15F13896   1.996   3.377   7.688  0.8745 -0.4369  2.8694
  129OSM   H15G13897   1.941   3.208   7.637 -2.4039 -1.2043  0.0787
  129OSM   C16F13898   1.802   3.307   7.758  0.5446 -0.8015 -0.1487
  129OSM   H16F13899   1.699   3.287   7.722 -0.6571  1.2421  1.8427
  129OSM   H16G13900   1.791   3.412   7.795 -0.9530  0.3409 -3.4899
  129OSM   C17F13901   1.831   3.210   7.867  0.3013  0.1575 -0.8225
  129OSM   H17F13902   1.862   3.112   7.825  0.2963  0.2965 -1.1477
  129OSM   H17G13903   1.744   3.186   7.932  1.0426 -0.3611  0.0202
  129OSM   C18F13904   1.945   3.265   7.963 -0.2648  0.1467  0.0964
  129OSM   H18F13905   1.920   3.367   7.999  0.2710  0.2356  0.2334
  129OSM   H18G13906   2.038   3.265   7.901 -2.0282  1.0844 -2.7309
  129OSM   H18H13907   1.940   3.201   8.054 -2.7061  0.0972 -0.0044
  130OSM      N13908   1.006   5.092   5.892  0.5160 -0.0748  0.0692
  130OSM    C1513909   1.131   5.156   5.833  0.2360  0.0293 -0.2021
  130OSM   H15A13910   1.146   5.133   5.729  0.0305 -1.9361  0.1660
  130OSM   H15B13911   1.217   5.121   5.889 -1.3528  1.0924  3.2257
  130OSM   H15C13912   1.131   5.264   5.843  0.4015 -0.0385  0.6699
  130OSM    C1413913   0.884   5.140   5.819 -0.0356  0.2542  0.0620
  130OSM   H14A13914   0.899   5.125   5.713 -0.1444 -1.0589  0.2181
  130OSM   H14B13915   0.871   5.245   5.838 -2.4322 -0.2195  1.3791
  130OSM   H14C13916   0.799   5.080   5.849  0.4278  0.6921  2.3536
  130OSM    C1313917   1.019   4.946   5.876 -0.3583  0.3483  0.5745
  130OSM   H13A13918   0.932   4.889   5.904  1.0279 -3.0666 -1.4901
  130OSM   H13B13919   1.111   4.908   5.916 -0.5696 -1.8779 -0.8609
  130OSM   H13C13920   1.030   4.920   5.771  0.0354  2.7922 -0.0699
  130OSM    C1213921   0.991   5.123   6.042 -0.0796  0.6671  0.1996
  130OSM   H12A13922   1.077   5.092   6.100 -0.0515 -0.2954 -0.3521
  130OSM   H12B13923   0.909   5.059   6.072  1.1606 -0.7368  0.7138
  130OSM    C1113924   0.952   5.272   6.078 -0.2219  0.4922  0.4173
  130OSM   H11A13925   0.936   5.273   6.187 -2.7242  0.3682  0.1063
  130OSM   H11B13926   0.848   5.296   6.048 -0.6113 -1.4494  0.0902
  130OSM      P13927   1.188   5.386   6.123  0.2487 -0.3743  0.1186
  130OSM    O1313928   1.215   5.258   6.188 -0.5191 -0.0154 -0.3354
  130OSM    O1413929   1.293   5.449   6.038  0.4934  0.5259  0.2566
  130OSM    O1113930   1.152   5.485   6.237 -0.4553  0.2790  0.6328
  130OSM    O1213931   1.057   5.371   6.044  1.0348 -0.0849 -0.5403
  130OSM    C1S13932   1.115   5.614   6.217 -0.2081 -0.1405 -0.6066
  130OSM    H1S13933   1.004   5.619   6.217 -0.2653 -0.8614  0.9537
  130OSM    H1T13934   1.150   5.671   6.128  2.2786 -0.4324  0.1159
  130OSM     NF13935   1.137   5.833   6.334  0.0733 -0.7921  0.2180
  130OSM    HNF13936   1.200   5.908   6.314 -2.1928  1.4128  0.8266
  130OSM    C2S13937   1.162   5.698   6.341 -1.0114 -0.3645  0.3445
  130OSM    H2S13938   1.104   5.658   6.426 -0.0290  1.8971  2.1962
  130OSM    C3S13939   1.316   5.666   6.372 -0.1576  0.4586  0.0250
  130OSM    H3S13940   1.371   5.709   6.286 -2.1893  0.8806 -1.1376
  130OSM     O313941   1.351   5.527   6.390 -0.7196  0.1876  0.0481
  130OSM    HO313942   1.270   5.484   6.361 -1.3284  1.2933  0.0553
  130OSM    C4S13943   1.356   5.741   6.496  0.3250  0.0149 -0.0090
  130OSM    H4S13944   1.279   5.727   6.574 -0.6562  2.9844 -0.2991
  130OSM    C5S13945   1.465   5.820   6.519 -0.2949 -0.9072  0.3991
  130OSM    H5S13946   1.541   5.811   6.440 -0.4310  1.6378 -0.1037
  130OSM    C6S13947   1.517   5.885   6.646 -0.5037 -0.0830  0.2278
  130OSM    H6S13948   1.515   5.996   6.654  0.0781 -0.1960  4.5026
  130OSM    H6T13949   1.619   5.853   6.674  0.3838  0.9711 -1.6334
  130OSM    C7S13950   1.441   5.851   6.774 -0.0019  1.1824 -0.2467
  130OSM    H7S13951   1.434   5.743   6.796  0.8218  1.3844  1.1893
  130OSM    H7T13952   1.332   5.872   6.766 -0.7272 -1.9870  0.0440
  130OSM    C8S13953   1.510   5.908   6.894  0.1904  0.1750  0.4926
  130OSM    H8S13954   1.529   6.016   6.881  1.3433 -0.0218  0.4490
  130OSM    H8T13955   1.611   5.861   6.899  0.1011  0.0585  1.3658
  130OSM    C9S13956   1.442   5.892   7.034 -0.3285 -0.0443  0.5392
  130OSM    H9S13957   1.458   5.788   7.071  0.0852 -0.7694 -1.5297
  130OSM    H9T13958   1.337   5.921   7.009  0.8015  2.3777 -1.8615
  130OSM   C10S13959   1.491   5.990   7.144  0.1660  0.3007  0.2532
  130OSM   H10S13960   1.486   6.095   7.108  0.9924 -0.1701 -1.3602
  130OSM   H10T13961   1.597   5.959   7.161  0.4561  0.4042 -1.1917
  130OSM   C11S13962   1.414   5.959   7.274 -0.4619 -0.5634 -0.1412
  130OSM   H11S13963   1.458   5.870   7.323  0.4774 -0.0168  0.0337
  130OSM   H11T13964   1.305   5.938   7.262  0.1428 -2.6845 -3.0108
  130OSM   C12S13965   1.430   6.067   7.381 -0.0134 -0.7634 -0.0512
  130OSM   H12S13966   1.361   6.040   7.464  1.3923  0.2799  1.5444
  130OSM   H12T13967   1.391   6.166   7.351  0.4874 -1.1274 -2.0397
  130OSM   C13S13968   1.567   6.076   7.454 -0.3034  0.0691 -0.7934
  130OSM   H13S13969   1.567   6.147   7.539  0.6642 -1.1414  0.2428
  130OSM   H13T13970   1.633   6.120   7.375 -0.1092  2.1259  0.4406
  130OSM   C14S13971   1.621   5.941   7.499 -0.0477 -0.0877 -0.0457
  130OSM   H14S13972   1.711   5.977   7.553 -0.9886  0.7769  1.0204
  130OSM   H14T13973   1.645   5.877   7.412  1.6043  0.8898 -0.3689
  130OSM   C15S13974   1.553   5.860   7.611  0.2828 -0.0413 -0.2449
  130OSM   H15S13975   1.621   5.773   7.623  0.9354 -0.0534 -3.2427
  130OSM   H15T13976   1.457   5.814   7.580  0.7925 -1.3452  0.0084
  130OSM   C16S13977   1.517   5.934   7.745 -0.5576  0.6011  0.2567
  130OSM   H16S13978   1.438   6.008   7.718 -0.2670  0.6541 -0.4893
  130OSM   H16T13979   1.607   5.986   7.784  0.7586 -1.9509  0.7740
  130OSM   C17S13980   1.447   5.853   7.842  0.4279 -0.0782  0.2781
  130OSM   H17S13981   1.531   5.782   7.862  0.8938 -0.0789 -1.5517
  130OSM   H17T13982   1.357   5.797   7.812  0.4575  0.2242 -0.3830
  130OSM   C18S13983   1.417   5.936   7.961  0.4518  0.0565  0.1414
  130OSM   H18S13984   1.353   6.024   7.940 -1.2877 -1.0148  0.6947
  130OSM   H18T13985   1.512   5.980   7.998 -0.9969  0.4188  3.8245
  130OSM   H18U13986   1.366   5.868   8.033  0.5774  0.2099  0.3749
  130OSM    C1F13987   1.013   5.888   6.343 -1.3866  0.3862 -0.6157
  130OSM     OF13988   0.919   5.816   6.345  0.8674 -0.7957  0.7193
  130OSM    C2F13989   1.010   6.036   6.347 -0.4497  0.3984  0.3920
  130OSM    H2F13990   0.910   6.072   6.381 -1.0681  0.6544 -1.5618
  130OSM    H2G13991   1.037   6.081   6.250 -3.8857  2.7336  0.3046
  130OSM    C3F13992   1.100   6.089   6.464 -0.3126  0.4540  0.2891
  130OSM    H3F13993   1.076   6.197   6.451  1.1040  0.5637 -1.9376
  130OSM    H3G13994   1.210   6.080   6.447 -0.2742 -0.6340  1.0382
  130OSM    C4F13995   1.060   6.040   6.604  0.8152  0.0412 -0.6912
  130OSM    H4F13996   1.097   5.936   6.617  0.1420 -0.3676 -1.8704
  130OSM    H4G13997   0.950   6.044   6.619  1.0747  0.4518  1.4326
  130OSM    C5F13998   1.140   6.126   6.703  0.1108  0.1364 -0.2290
  130OSM    H5F13999   1.122   6.236   6.696  3.2366  0.9167  2.0620
  130OSM    H5G14000   1.246   6.112   6.675  0.4222 -0.6885  1.2937
  130OSM    C6F14001   1.108   6.076   6.843  0.0149 -0.3676 -0.0567
  130OSM    H6F14002   1.136   5.969   6.834 -2.3919 -0.9279 -1.8449
  130OSM    H6G14003   0.999   6.086   6.861  0.1708  1.6176  0.0122
  130OSM    C7F14004   1.179   6.152   6.959 -0.6363  0.3421 -0.1126
  130OSM    H7F14005   1.170   6.263   6.958  0.3033  0.4800  1.5907
  130OSM    H7G14006   1.285   6.119   6.961 -1.2918 -1.9159  1.5743
  130OSM    C8F14007   1.127   6.105   7.100  0.0395 -1.1048  0.4779
  130OSM    H8F14008   1.201   6.141   7.175 -0.2845  1.1422 -0.2205
  130OSM    H8G14009   1.122   5.994   7.106  0.4793 -1.3483 -2.5295
  130OSM    C9F14010   0.990   6.163   7.134  0.4880  0.4861 -0.2746
  130OSM    H9F14011   0.912   6.156   7.056 -0.0497  1.6015  0.1348
  130OSM   C10F14012   0.959   6.230   7.249  0.0696  0.3371 -0.2825
  130OSM   H10F14013   0.863   6.283   7.248  1.7720  3.6387 -1.3614
  130OSM   C11F14014   1.047   6.268   7.367  0.3718 -0.6249  0.0145
  130OSM   H11F14015   1.006   6.367   7.394  0.4878 -0.7469  0.6486
  130OSM   H11G14016   1.157   6.275   7.349  0.1272 -0.3007 -1.4582
  130OSM   C12F14017   1.021   6.168   7.486 -0.7645 -0.9810  0.2449
  130OSM   H12F14018   1.058   6.066   7.463 -1.2197 -0.3307 -4.2608
  130OSM   H12G14019   0.913   6.168   7.511 -1.2375  2.6103 -1.1889
  130OSM   C13F14020   1.097   6.225   7.606  0.4508 -0.1165  0.4270
  130OSM   H13F14021   1.097   6.335   7.588  2.0890  0.0340  1.2058
  130OSM   H13G14022   1.202   6.191   7.604  0.8245  0.9965 -0.6352
  130OSM   C14F14023   1.039   6.196   7.741 -0.0580 -0.0913  0.3602
  130OSM   H14F14024   0.948   6.258   7.757  0.1715  0.2373  0.4098
  130OSM   H14G14025   1.103   6.253   7.811  1.2030  0.3937 -1.1334
  130OSM   C15F14026   1.039   6.054   7.791  0.4310  0.0733 -0.0262
  130OSM   H15F14027   1.131   6.003   7.756  0.4963  2.0105 -3.0253
  130OSM   H15G14028   0.955   5.995   7.749  2.0559 -2.1509 -0.3107
  130OSM   C16F14029   1.031   6.054   7.943 -0.1665 -0.1781 -0.0504
  130OSM   H16F14030   0.957   6.128   7.979 -0.5326  0.3032 -1.6685
  130OSM   H16G14031   1.128   6.085   7.988 -1.1655  1.0867  1.3093
  130OSM   C17F14032   0.987   5.920   8.000  0.0853 -0.8212  0.2828
  130OSM   H17F14033   1.071   5.857   7.965 -1.5580 -1.3048 -3.1608
  130OSM   H17G14034   0.890   5.878   7.965  0.2158  0.2704 -1.5017
  130OSM   C18F14035   0.984   5.928   8.156  0.1926 -0.1445  0.0358
  130OSM   H18F14036   0.966   5.825   8.192  2.1005 -0.3951  0.3833
  130OSM   H18G14037   0.902   5.997   8.185  0.2162  0.8511 -2.0545
  130OSM   H18H14038   1.080   5.969   8.193 -0.9229  4.9440 -1.8961
  131OSM      N14039   3.562   2.416   5.777  0.2355  0.1266  0.3477
  131OSM    C1514040   3.596   2.274   5.803  0.4058 -0.0820  0.3623
  131OSM   H15A14041   3.577   2.210   5.718  4.0784  1.3191 -1.7628
  131OSM   H15B14042   3.537   2.234   5.884 -1.3111 -1.5909 -1.5041
  131OSM   H15C14043   3.700   2.256   5.825  0.5344 -1.2766 -1.0190
  131OSM    C1414044   3.610   2.450   5.638  0.4394 -0.0170  0.2038
  131OSM   H14A14045   3.613   2.556   5.617  0.2102  0.0252  0.3779
  131OSM   H14B14046   3.549   2.406   5.560 -0.0431  1.7655 -0.4741
  131OSM   H14C14047   3.709   2.413   5.618 -0.7298 -2.6079 -1.3341
  131OSM    C1314048   3.416   2.430   5.770 -0.0973  0.0813  0.1292
  131OSM   H13A14049   3.372   2.383   5.683 -0.0358 -0.2174  0.2598
  131OSM   H13B14050   3.376   2.529   5.754 -0.6670  0.2820  2.3960
  131OSM   H13C14051   3.367   2.396   5.860 -1.2605 -0.5913 -0.7463
  131OSM    C1214052   3.627   2.512   5.874  0.4897 -0.5919 -0.1374
  131OSM   H12A14053   3.577   2.607   5.862  0.9569 -0.2456  0.6010
  131OSM   H12B14054   3.732   2.522   5.850  0.5130  0.4290  0.3717
  131OSM    C1114055   3.593   2.482   6.025  0.4025 -0.7401 -0.8037
  131OSM   H11A14056   3.662   2.544   6.085 -2.9839  1.4044  1.2323
  131OSM   H11B14057   3.624   2.380   6.056  1.4279 -0.2795 -0.2772
  131OSM      P14058   3.390   2.657   6.087 -0.3912  0.4590  0.1680
  131OSM    O1314059   3.425   2.751   5.980 -0.3814 -0.2876 -0.3325
  131OSM    O1414060   3.244   2.643   6.120 -0.4764  0.1952  0.2241
  131OSM    O1114061   3.465   2.713   6.213 -0.1021  0.7705 -0.2500
  131OSM    O1214062   3.462   2.516   6.055  0.1936  0.1709 -0.0880
  131OSM    C1S14063   3.463   2.624   6.332  0.3457 -0.6271  0.0942
  131OSM    H1S14064   3.551   2.557   6.321  1.1620  0.7401 -2.7658
  131OSM    H1T14065   3.371   2.564   6.344 -1.2380  0.8844 -3.2380
  131OSM     NF14066   3.506   2.623   6.581  0.1704 -1.3241 -0.1371
  131OSM    HNF14067   3.417   2.599   6.619  0.0349 -2.8232 -1.3083
  131OSM    C2S14068   3.486   2.713   6.465 -0.0982 -0.3521  0.3636
  131OSM    H2S14069   3.580   2.770   6.453  0.1998 -0.7308  0.8811
  131OSM    C3S14070   3.370   2.810   6.480  0.0562  0.3355 -0.0287
  131OSM    H3S14071   3.277   2.749   6.486 -0.4055  0.7671 -1.8929
  131OSM     O314072   3.353   2.882   6.361 -0.5756  0.5941  0.0683
  131OSM    HO314073   3.414   2.834   6.305  0.2595 -0.2249  1.6026
  131OSM    C4S14074   3.390   2.900   6.602 -0.2216 -0.1082  0.0144
  131OSM    H4S14075   3.347   2.856   6.692  2.3195  0.6943  1.7325
  131OSM    C5S14076   3.446   3.022   6.610 -0.5229  0.1081 -0.2384
  131OSM    H5S14077   3.493   3.066   6.520  1.8617  1.2033  1.4297
  131OSM    C6S14078   3.456   3.108   6.732  0.2516  0.2634 -0.5320
  131OSM    H6S14079   3.376   3.185   6.722 -0.3870 -0.2918  0.1974
  131OSM    H6T14080   3.556   3.158   6.732 -0.1166  1.0164 -0.2577
  131OSM    C7S14081   3.439   3.033   6.866 -0.1685 -0.1237  0.6496
  131OSM    H7S14082   3.516   2.954   6.879 -1.1978 -1.4395 -0.7989
  131OSM    H7T14083   3.334   2.995   6.872 -1.1603  2.0113 -1.5883
  131OSM    C8S14084   3.463   3.132   6.981 -0.4052  0.3533 -0.7581
  131OSM    H8S14085   3.383   3.208   6.990 -0.2080  0.4270  0.6195
  131OSM    H8T14086   3.561   3.182   6.963  0.0672 -0.5676 -0.8034
  131OSM    C9S14087   3.475   3.064   7.120 -0.3420 -0.0516  0.4496
  131OSM    H9S14088   3.572   3.010   7.128 -1.3899 -2.2654 -0.7127
  131OSM    H9T14089   3.390   2.993   7.130 -0.6658  0.4565  1.4645
  131OSM   C10S14090   3.470   3.166   7.236 -0.6317  0.0675  0.2741
  131OSM   H10S14091   3.386   3.234   7.211  1.5764  1.9477 -2.8399
  131OSM   H10T14092   3.552   3.241   7.239 -1.5710  1.1495  4.1656
  131OSM   C11S14093   3.432   3.114   7.376  0.6257  0.7157  0.2176
  131OSM   H11S14094   3.499   3.034   7.412 -0.7295  0.3249  1.9964
  131OSM   H11T14095   3.338   3.058   7.358 -0.1486  2.6464 -2.3559
  131OSM   C12S14096   3.421   3.227   7.478  0.6307 -0.1137 -0.2402
  131OSM   H12S14097   3.357   3.310   7.439 -0.2957 -0.7259 -0.0634
  131OSM   H12T14098   3.515   3.279   7.507 -0.8200  2.7596 -0.2799
  131OSM   C13S14099   3.370   3.162   7.610  0.0317 -0.8444 -0.5986
  131OSM   H13S14100   3.446   3.090   7.647  1.6743 -0.1153 -2.3598
  131OSM   H13T14101   3.280   3.103   7.584  0.1501 -0.4503 -1.9962
  131OSM   C14S14102   3.317   3.261   7.715 -0.1604  0.1283  0.5803
  131OSM   H14S14103   3.246   3.207   7.781 -2.2545  0.1109 -1.5551
  131OSM   H14T14104   3.249   3.332   7.663 -0.7995 -2.0293 -1.7017
  131OSM   C15S14105   3.416   3.323   7.804  0.1410 -0.1305  0.2997
  131OSM   H15S14106   3.497   3.371   7.747  1.3996 -1.1391  1.1859
  131OSM   H15T14107   3.457   3.243   7.869  0.0863 -0.0328  0.4570
  131OSM   C16S14108   3.343   3.419   7.893  0.8345 -0.3606  0.2048
  131OSM   H16S14109   3.271   3.364   7.957  0.8583  0.5971  1.0845
  131OSM   H16T14110   3.272   3.491   7.848 -0.3669 -0.0059  2.5117
  131OSM   C17S14111   3.438   3.504   7.990  0.7764 -0.2714  0.3601
  131OSM   H17S14112   3.383   3.586   8.042  1.1696  0.7120 -0.7277
  131OSM   H17T14113   3.519   3.551   7.932 -0.5557  0.3477 -1.0572
  131OSM   C18S14114   3.496   3.412   8.101 -0.9435 -0.2557  0.2956
  131OSM   H18S14115   3.423   3.353   8.160 -2.7215  3.4517  2.1335
  131OSM   H18T14116   3.551   3.472   8.176  1.5709  0.2250 -1.7748
  131OSM   H18U14117   3.570   3.345   8.051 -0.0260  2.0889 -1.7404
  131OSM    C1F14118   3.607   2.550   6.611 -0.6963  0.0932  0.7168
  131OSM     OF14119   3.717   2.546   6.553  0.2206  0.4481 -0.8304
  131OSM    C2F14120   3.569   2.454   6.722 -0.2905 -0.4924 -0.2714
  131OSM    H2F14121   3.649   2.377   6.728  1.4293  1.2854  1.0837
  131OSM    H2G14122   3.474   2.399   6.703  0.3825 -1.3419 -1.2854
  131OSM    C3F14123   3.573   2.528   6.864 -0.0156 -0.0051  0.3938
  131OSM    H3F14124   3.673   2.569   6.888  0.1325 -1.2026  1.9467
  131OSM    H3G14125   3.553   2.443   6.933  1.7846 -1.2677 -0.5765
  131OSM    C4F14126   3.453   2.622   6.877  0.3730  1.8501 -0.7077
  131OSM    H4F14127   3.367   2.572   6.827  1.6426  0.4255 -1.5545
  131OSM    H4G14128   3.470   2.721   6.829  1.6476  1.8878 -0.2003
  131OSM    C5F14129   3.418   2.635   7.031 -0.3622  0.6894  0.2782
  131OSM    H5F14130   3.501   2.701   7.064  1.0625  0.1203 -1.9682
  131OSM    H5G14131   3.415   2.537   7.082  2.0150  1.4550  2.0578
  131OSM    C6F14132   3.285   2.716   7.050  0.2644  0.1733 -0.4270
  131OSM    H6F14133   3.201   2.672   6.992 -0.0166  2.6959 -2.0508
  131OSM    H6G14134   3.293   2.817   7.005 -0.3148  0.4892  0.1519
  131OSM    C7F14135   3.246   2.742   7.195 -0.2607 -0.0314 -0.5254
  131OSM    H7F14136   3.178   2.828   7.207 -1.2133 -1.1021  2.7574
  131OSM    H7G14137   3.336   2.771   7.254 -0.2864 -0.3111 -0.3485
  131OSM    C8F14138   3.186   2.618   7.268 -0.2943 -0.1036 -0.3957
  131OSM    H8F14139   3.254   2.531   7.262  0.6396  0.5754  0.0400
  131OSM    H8G14140   3.096   2.588   7.211  0.1705  0.2318 -1.3135
  131OSM    C9F14141   3.139   2.652   7.411 -0.8473  0.1814 -0.2192
  131OSM    H9F14142   3.095   2.752   7.428  0.5479  0.4586  2.2687
  131OSM   C10F14143   3.143   2.575   7.520 -0.5908  0.1539  0.6707
  131OSM   H10F14144   3.108   2.613   7.618  0.7582  1.1497  0.7868
  131OSM   C11F14145   3.210   2.444   7.516 -0.4824  0.2972  0.4361
  131OSM   H11F14146   3.314   2.464   7.550  0.7418 -2.4856 -1.3111
  131OSM   H11G14147   3.214   2.393   7.418  1.0523  1.8946 -0.3787
  131OSM   C12F14148   3.151   2.355   7.629  0.5259  0.0589 -0.2787
  131OSM   H12F14149   3.183   2.253   7.600 -2.3901 -0.9248 -0.3835
  131OSM   H12G14150   3.041   2.338   7.621  0.7696 -2.0656  0.3074
  131OSM   C13F14151   3.196   2.386   7.770 -1.1067 -0.0346 -0.1569
  131OSM   H13F14152   3.151   2.480   7.807 -0.9280 -0.5467  1.4206
  131OSM   H13G14153   3.307   2.386   7.776 -0.8446 -0.2764 -3.3283
  131OSM   C14F14154   3.155   2.264   7.858 -0.2523 -0.9106  0.5841
  131OSM   H14F14155   3.207   2.173   7.821  0.5850 -0.0291 -0.4812
  131OSM   H14G14156   3.046   2.252   7.838 -0.0459  0.0366 -1.3057
  131OSM   C15F14157   3.176   2.299   8.006 -0.1448  0.3366 -0.1493
  131OSM   H15F14158   3.148   2.404   8.031  1.6180  0.9082 -0.4196
  131OSM   H15G14159   3.285   2.291   8.025 -0.3884 -3.0440  0.4093
  131OSM   C16F14160   3.107   2.200   8.109  0.2901 -0.0257 -0.3123
  131OSM   H16F14161   3.107   2.095   8.072 -0.8760 -0.3800  0.6235
  131OSM   H16G14162   2.999   2.224   8.111  0.4705  0.8486 -0.6055
  131OSM   C17F14163   3.154   2.201   8.262  0.1044 -0.0817  0.2087
  131OSM   H17F14164   3.261   2.174   8.259 -0.2131 -1.4159 -2.4262
  131OSM   H17G14165   3.098   2.117   8.308 -1.9673  0.7331 -0.6795
  131OSM   C18F14166   3.126   2.321   8.350  0.3572  0.2509  0.1589
  131OSM   H18F14167   3.195   2.318   8.437 -0.6324  1.2787  1.0195
  131OSM   H18G14168   3.023   2.318   8.390  0.7969  1.2613  1.4517
  131OSM   H18H14169   3.134   2.424   8.308 -1.0106  0.2630 -0.1246
  132OSM      N14170   4.598   0.008   5.925  0.1061  0.1961 -0.0885
  132OSM    C1514171   4.740  -0.031   5.902 -0.0422 -0.6779  0.5891
  132OSM   H15A14172   4.770   0.023   5.813 -1.8008  2.8329  1.9276
  132OSM   H15B14173   4.756  -0.137   5.888 -3.1894 -0.8587 -3.1102
  132OSM   H15C14174   4.800   0.006   5.985 -0.7763  1.3242  0.2915
  132OSM    C1414175   4.583   0.160   5.946  0.1693 -0.3347  0.6755
  132OSM   H14A14176   4.479   0.189   5.933  0.5127  0.3676 -0.8145
  132OSM   H14B14177   4.649   0.208   5.875 -1.0948 -1.1326 -1.1286
  132OSM   H14C14178   4.611   0.182   6.047  1.5205 -0.3512  0.3175
  132OSM    C1314179   4.508  -0.044   5.810 -0.6260 -1.0219 -0.1097
  132OSM   H13A14180   4.412   0.001   5.829 -0.6763 -0.8567 -0.7238
  132OSM   H13B14181   4.500  -0.152   5.815  1.7795 -1.2484  0.1512
  132OSM   H13C14182   4.531  -0.004   5.713 -0.4768 -0.8141  0.0129
  132OSM    C1214183   4.541  -0.076   6.036 -0.0037  0.0745 -0.3587
  132OSM   H12A14184   4.537  -0.180   6.007  1.8936 -0.0039 -0.4084
  132OSM   H12B14185   4.434  -0.058   6.045  0.2499  1.6671 -0.3132
  132OSM    C1114186   4.600  -0.069   6.179 -0.0071  0.0375  0.0100
  132OSM   H11A14187   4.710  -0.086   6.176  0.3072  1.9813 -1.8150
  132OSM   H11B14188   4.542  -0.143   6.238  0.2269  1.0084  1.4999
  132OSM      P14189   4.454   0.104   6.318 -0.0349 -0.4015 -0.3221
  132OSM    O1314190   4.446   0.250   6.348  0.8752  0.7148 -0.8683
  132OSM    O1414191   4.331   0.054   6.253 -0.3789  0.2612  0.1879
  132OSM    O1114192   4.481   0.020   6.445  0.8302 -0.9460 -0.8480
  132OSM    O1214193   4.577   0.065   6.226  0.6109  0.4570  0.5649
  132OSM    C1S14194   4.606  -0.011   6.495  0.3748 -0.2521 -0.8609
  132OSM    H1S14195   4.686   0.049   6.447  1.4926 -1.3953 -0.4782
  132OSM    H1T14196   4.629  -0.118   6.477  1.8836 -0.3808  1.3992
  132OSM     NF14197   4.755  -0.003   6.692  0.0838  0.1182  0.7479
  132OSM    HNF14198   4.799  -0.092   6.706 -0.0625 -0.2549 -0.9619
  132OSM    C2S14199   4.615  -0.005   6.654  0.2833  0.9971 -0.5744
  132OSM    H2S14200   4.573   0.091   6.690 -0.6869  1.1230 -1.9539
  132OSM    C3S14201   4.533  -0.118   6.724  0.4497  0.7297  0.4797
  132OSM    H3S14202   4.568  -0.212   6.677  0.1700  1.1148 -0.5332
  132OSM     O314203   4.395  -0.117   6.680 -0.4395  0.4444 -0.9727
  132OSM    HO314204   4.404  -0.056   6.606  1.3261  0.9927 -0.3504
  132OSM    C4S14205   4.545  -0.131   6.873 -0.2212  0.2676  0.4872
  132OSM    H4S14206   4.627  -0.201   6.898 -1.5776 -0.5891  2.8592
  132OSM    C5S14207   4.482  -0.082   6.975 -1.1392  0.0173 -0.1499
  132OSM    H5S14208   4.391  -0.023   6.957 -1.8009 -1.2433 -1.0609
  132OSM    C6S14209   4.514  -0.102   7.123  0.2185  0.9249  0.7045
  132OSM    H6S14210   4.435  -0.168   7.164  2.1405 -2.3606 -0.5192
  132OSM    H6T14211   4.519  -0.004   7.175 -2.6255  1.6290 -0.2037
  132OSM    C7S14212   4.653  -0.170   7.151 -0.2102 -0.4795  0.2055
  132OSM    H7S14213   4.724  -0.105   7.096  0.8524 -1.4995  0.3185
  132OSM    H7T14214   4.665  -0.271   7.106  0.8127 -1.2266  2.0272
  132OSM    C8S14215   4.692  -0.164   7.298  0.3045  0.2772  1.0083
  132OSM    H8S14216   4.703  -0.061   7.336  2.4759 -0.0013  1.2320
  132OSM    H8T14217   4.792  -0.210   7.314 -1.3195 -3.3961  1.6798
  132OSM    C9S14218   4.585  -0.237   7.388  0.8907  0.0444 -0.9273
  132OSM    H9S14219   4.593  -0.342   7.351  0.9063  0.5268 -2.3748
  132OSM    H9T14220   4.481  -0.201   7.371  0.9782  0.1715 -1.1991
  132OSM   C10S14221   4.637  -0.221   7.537 -0.7663  0.2356 -0.4216
  132OSM   H10S14222   4.617  -0.116   7.566  1.1076  0.9205 -1.4108
  132OSM   H10T14223   4.747  -0.237   7.539 -0.8136 -0.2123 -1.0133
  132OSM   C11S14224   4.562  -0.308   7.635 -0.5920 -0.4438 -0.4789
  132OSM   H11S14225   4.571  -0.416   7.611  2.4078 -0.8549  1.8325
  132OSM   H11T14226   4.454  -0.283   7.633  0.0697  3.4195  1.3570
  132OSM   C12S14227   4.607  -0.284   7.780  0.4272 -0.0342  0.0484
  132OSM   H12S14228   4.629  -0.176   7.791  2.3221 -0.0592 -2.4783
  132OSM   H12T14229   4.694  -0.345   7.810 -0.3236 -0.6434  1.0360
  132OSM   C13S14230   4.495  -0.317   7.878  0.6448 -1.1581 -0.2881
  132OSM   H13S14231   4.470  -0.426   7.878  0.5852 -1.1670  1.3209
  132OSM   H13T14232   4.409  -0.256   7.845 -0.1294 -1.7448  0.6159
  132OSM   C14S14233   4.515  -0.268   8.024  0.0673 -0.2805  0.1368
  132OSM   H14S14234   4.418  -0.268   8.079 -0.2620  0.4288 -0.4211
  132OSM   H14T14235   4.552  -0.163   8.031  0.3786 -0.4248  0.6894
  132OSM   C15S14236   4.624  -0.343   8.101  0.3446  0.2153 -0.2083
  132OSM   H15S14237   4.723  -0.334   8.052 -0.0364 -0.8525 -1.2094
  132OSM   H15T14238   4.601  -0.451   8.101 -0.0119  0.2506 -2.1158
  132OSM   C16S14239   4.626  -0.274   8.240 -0.3369  0.6850 -0.1839
  132OSM   H16S14240   4.530  -0.291   8.292 -0.1449 -2.5838 -0.6513
  132OSM   H16T14241   4.652  -0.168   8.220  1.2603  0.3198 -0.2017
  132OSM   C17S14242   4.746  -0.336   8.317 -0.1016  0.8954 -0.2147
  132OSM   H17S14243   4.759  -0.296   8.420 -1.2512 -0.6603  0.5914
  132OSM   H17T14244   4.830  -0.308   8.251 -1.6430 -0.7050 -3.0170
  132OSM   C18S14245   4.731  -0.484   8.332 -0.0030  0.1039  1.0237
  132OSM   H18S14246   4.752  -0.548   8.243  0.4715 -1.2508  2.0676
  132OSM   H18T14247   4.628  -0.510   8.364  0.7334 -2.3251  1.6777
  132OSM   H18U14248   4.798  -0.524   8.412  0.1653 -2.2577 -0.2008
  132OSM    C1F14249   4.827   0.107   6.682  0.2097 -0.2448  0.0120
  132OSM     OF14250   4.767   0.209   6.644  0.7498 -0.0063  0.8582
  132OSM    C2F14251   4.975   0.100   6.706  0.1751 -0.4818  0.3497
  132OSM    H2F14252   5.029   0.167   6.637 -2.7842  1.5644 -0.1498
  132OSM    H2G14253   4.999  -0.006   6.685  2.3033  0.5620 -3.2466
  132OSM    C3F14254   5.021   0.128   6.853 -0.2815  0.4150  0.4889
  132OSM    H3F14255   4.962   0.217   6.885 -0.4039  0.3047  0.5642
  132OSM    H3G14256   5.130   0.145   6.846  0.1692 -2.6179 -1.5611
  132OSM    C4F14257   5.011   0.018   6.956  0.6233 -0.3765  0.2534
  132OSM    H4F14258   5.046  -0.079   6.915 -0.1326 -0.7478  0.4818
  132OSM    H4G14259   4.909   0.006   6.999  0.6915  0.2558  0.6040
  132OSM    C5F14260   5.084   0.055   7.086 -0.2957 -0.4537 -0.0892
  132OSM    H5F14261   5.045   0.152   7.123  0.7660  0.5292 -1.4316
  132OSM    H5G14262   5.193   0.064   7.064 -0.3783 -2.1645 -1.4533
  132OSM    C6F14263   5.078  -0.054   7.197  0.3319 -0.1424 -0.2646
  132OSM    H6F14264   5.131  -0.139   7.149 -3.4837 -1.6109 -2.3967
  132OSM    H6G14265   4.969  -0.075   7.203 -0.1038  0.7357 -3.1699
  132OSM    C7F14266   5.143  -0.019   7.323 -0.2387 -0.1513 -0.6935
  132OSM    H7F14267   5.099   0.062   7.384  1.1600 -0.8718  1.3696
  132OSM    H7G14268   5.243   0.022   7.299  1.0178 -2.7046 -0.1211
  132OSM    C8F14269   5.157  -0.130   7.429  0.1208 -0.3135  0.8604
  132OSM    H8F14270   5.213  -0.215   7.384 -0.8574 -1.1859  1.2503
  132OSM    H8G14271   5.053  -0.161   7.453  0.1025  0.8164  2.3770
  132OSM    C9F14272   5.232  -0.092   7.555  0.0994  0.5428  0.7891
  132OSM    H9F14273   5.340  -0.112   7.549 -0.0476 -1.2991  2.9525
  132OSM   C10F14274   5.188  -0.068   7.677 -0.0708 -0.7797  0.3805
  132OSM   H10F14275   5.264  -0.042   7.752  1.1996 -1.3580 -0.6569
  132OSM   C11F14276   5.045  -0.064   7.720  1.3410  0.4293 -0.3432
  132OSM   H11F14277   4.984  -0.145   7.674  0.4781 -0.1148  1.6601
  132OSM   H11G14278   4.997   0.033   7.698 -0.2348 -0.1138  0.5490
  132OSM   C12F14279   5.027  -0.077   7.869 -0.4307 -0.2197 -0.4874
  132OSM   H12F14280   5.097  -0.149   7.916  0.7912  0.5724 -1.0561
  132OSM   H12G14281   4.921  -0.101   7.894  0.3628 -1.9111  1.4843
  132OSM   C13F14282   5.038   0.060   7.948 -0.0652  0.2669  0.0055
  132OSM   H13F14283   4.976   0.137   7.897 -1.1123 -0.2028  0.5425
  132OSM   H13G14284   5.145   0.087   7.936 -0.2551  1.6106  0.9815
  132OSM   C14F14285   5.006   0.042   8.099  0.3848 -0.4827  0.1942
  132OSM   H14F14286   5.088  -0.026   8.132  0.0642 -0.6409  0.6846
  132OSM   H14G14287   4.912  -0.017   8.105  0.9373 -1.3472  0.4473
  132OSM   C15F14288   5.018   0.174   8.170 -0.3682  0.4879  0.0759
  132OSM   H15F14289   4.944   0.244   8.127 -2.8122 -1.7377  0.4087
  132OSM   H15G14290   5.121   0.211   8.151 -0.1749 -1.4226 -3.3648
  132OSM   C16F14291   4.997   0.152   8.315 -0.0664  0.1615 -1.0320
  132OSM   H16F14292   5.026   0.055   8.360 -2.9645 -0.3033  0.0533
  132OSM   H16G14293   4.886   0.153   8.322 -0.0477 -0.3083 -0.6413
  132OSM   C17F14294   5.040   0.275   8.395  0.5843  0.3485  0.3585
  132OSM   H17F14295   4.965   0.355   8.379 -0.7276 -0.9300 -0.0558
  132OSM   H17G14296   5.139   0.312   8.361  0.4604  0.3274 -0.0265
  132OSM   C18F14297   5.048   0.239   8.545  0.1981 -0.0125 -0.3663
  132OSM   H18F14298   4.943   0.217   8.574 -0.0216  1.0914 -0.2708
  132OSM   H18G14299   5.083   0.325   8.606 -1.9710 -1.0175  2.5069
  132OSM   H18H14300   5.114   0.150   8.555 -0.1037 -0.3450 -1.3283
  133SAPE     N14301   4.989   2.395  10.786 -0.0994  0.4650 -0.2798
  133SAPE   HN114302   4.970   2.403  10.684 -0.2241  1.9452 -0.1659
  133SAPE   HN214303   4.988   2.297  10.820 -0.7587  0.3846 -0.5173
  133SAPE   HN314304   4.912   2.448  10.833  1.6293 -0.2575  3.7740
  133SAPE   C1214305   5.119   2.443  10.853  0.3250 -0.0320  0.6620
  133SAPE  H12A14306   5.117   2.409  10.959  1.3176 -1.7183  0.1718
  133SAPE  H12B14307   5.120   2.554  10.850  4.3209  0.0693  1.1042
  133SAPE   C1114308   5.244   2.393  10.782  0.7712 -0.1510 -0.2919
  133SAPE  H11A14309   5.335   2.428  10.835 -0.6381  0.2427  2.0012
  133SAPE  H11B14310   5.259   2.452  10.689 -1.7181  2.5796  0.8690
  133SAPE     P14311   5.358   2.170  10.717  0.0939 -0.2478  0.1266
  133SAPE   O1314312   5.482   2.224  10.774 -0.4181 -0.4858  0.6023
  133SAPE   O1414313   5.335   2.027  10.724  0.0768  0.1827  0.1199
  133SAPE   O1214314   5.235   2.248  10.769  0.1027 -0.7337 -0.2755
  133SAPE   O1114315   5.361   2.216  10.562  0.4658 -0.0698  0.7235
  133SAPE    C114316   5.246   2.193  10.477  0.2158  0.0371  0.5099
  133SAPE    HA14317   5.232   2.086  10.452  0.1612  0.5733 -2.0935
  133SAPE    HB14318   5.152   2.239  10.512  0.5941  2.3855 -1.2582
  133SAPE    C214319   5.266   2.260  10.336 -0.5521 -0.0094 -0.3260
  133SAPE    HS14320   5.201   2.212  10.259 -0.6399 -1.5445  0.6711
  133SAPE   O2114321   5.403   2.269  10.288  0.6388 -0.1797 -0.0897
  133SAPE   C2114322   5.468   2.157  10.261 -0.3847  0.3961 -0.2094
  133SAPE   O2214323   5.423   2.045  10.289 -0.0784  0.2578  0.6456
  133SAPE   C2214324   5.597   2.193  10.190 -0.3253 -0.4181 -0.5928
  133SAPE   H2R14325   5.596   2.297  10.149 -1.0127 -1.1050 -2.4532
  133SAPE   H2S14326   5.678   2.190  10.266 -1.2283 -1.1524  0.3642
  133SAPE    C314327   5.223   2.412  10.338 -0.9677 -0.2488 -0.0258
  133SAPE    HX14328   5.275   2.472  10.415 -0.2876 -0.3625 -0.3828
  133SAPE    HY14329   5.115   2.409  10.363 -1.1335  0.4111 -0.6241
  133SAPE   O3114330   5.246   2.475  10.215 -0.3398  0.0110 -0.1561
  133SAPE   C3114331   5.363   2.539  10.190  0.2080 -0.3594 -0.3411
  133SAPE   O3214332   5.445   2.576  10.270 -0.0412 -0.0769  0.7390
  133SAPE   C3214333   5.373   2.531  10.041 -0.8806 -0.2556 -0.5551
  133SAPE   H2X14334   5.313   2.441  10.014 -0.3373 -0.4958 -0.9908
  133SAPE   H2Y14335   5.479   2.501  10.022 -1.4195 -2.0030 -1.0411
  133SAPE   C2314336   5.631   2.091  10.078 -0.4922  0.3201 -0.3266
  133SAPE   H3R14337   5.585   1.992  10.097 -1.4280  0.4179 -1.8925
  133SAPE   H3S14338   5.741   2.074  10.083 -0.8219 -1.9012  0.8463
  133SAPE   C2414339   5.580   2.133   9.940 -0.0238  0.2889 -0.1840
  133SAPE   H4R14340   5.632   2.072   9.863  0.0225 -0.0961  0.1491
  133SAPE   H4S14341   5.609   2.239   9.924  2.4867 -0.2732  0.1883
  133SAPE   C2514342   5.428   2.104   9.922  0.8058  0.1122  0.4452
  133SAPE   H5R14343   5.379   2.099  10.020 -0.0407 -0.0339  0.0250
  133SAPE   C2614344   5.366   2.079   9.805  1.1968  0.0258 -0.3688
  133SAPE   H6R14345   5.258   2.057   9.808  0.8744  1.5627  1.0881
  133SAPE   C2714346   5.429   2.082   9.668 -0.6379 -0.3775  0.2992
  133SAPE   H7R14347   5.516   2.151   9.668 -1.5061  0.7426 -0.4240
  133SAPE   H7S14348   5.353   2.119   9.596 -0.0878 -0.9017 -0.5702
  133SAPE   C2814349   5.495   1.955   9.619  0.0540  0.0616 -0.6393
  133SAPE   H8R14350   5.543   1.891   9.694  2.8206  1.6463 -0.9173
  133SAPE   C2914351   5.498   1.912   9.492 -0.5637 -0.1283 -0.1592
  133SAPE   H9R14352   5.555   1.820   9.474 -2.1809 -0.7489 -2.6963
  133SAPE  C21014353   5.432   1.990   9.378  0.7332  0.2239  0.2066
  133SAPE  H10R14354   5.433   2.100   9.395 -1.9953 -0.0270  2.8102
  133SAPE  H10S14355   5.335   1.939   9.360 -0.0281  0.3351  3.4661
  133SAPE  C21114356   5.507   1.959   9.249 -0.4894 -0.3114 -0.7029
  133SAPE  H11R14357   5.494   1.854   9.220 -2.8020  0.0335 -1.1358
  133SAPE  C21214358   5.593   2.031   9.179  0.2835 -0.0419 -0.2457
  133SAPE  H12R14359   5.637   1.997   9.084  1.5123  1.7962 -0.3818
  133SAPE  C21314360   5.609   2.182   9.205 -0.0977  0.3636 -0.2987
  133SAPE  H13R14361   5.643   2.198   9.309 -1.3320 -0.1476  0.2018
  133SAPE  H13S14362   5.513   2.237   9.200  0.2188  1.0453  0.9156
  133SAPE  C21414363   5.703   2.250   9.105  0.4167  0.2139  0.3549
  133SAPE  H14R14364   5.781   2.310   9.154  1.1571 -1.2052  0.9701
  133SAPE  C21514365   5.696   2.251   8.967  0.4473 -0.6640 -0.7178
  133SAPE  H15R14366   5.775   2.304   8.912  0.4146  0.2478  0.0888
  133SAPE  C21614367   5.598   2.176   8.882  0.0300 -0.5412  0.2426
  133SAPE  H16R14368   5.519   2.130   8.945  0.0649 -1.8437 -0.6227
  133SAPE  H16S14369   5.652   2.098   8.824 -1.7014  0.7461 -3.3938
  133SAPE  C21714370   5.531   2.268   8.775 -0.0143 -0.3048  0.1634
  133SAPE  H17R14371   5.599   2.313   8.700  1.1089 -3.6219 -0.9547
  133SAPE  H17S14372   5.484   2.350   8.834 -1.4380  0.1898 -1.5729
  133SAPE  C21814373   5.429   2.177   8.710 -0.2752 -0.6678 -0.3566
  133SAPE  H18R14374   5.470   2.075   8.698  0.0676 -0.5266 -0.4132
  133SAPE  H18S14375   5.416   2.224   8.610 -0.6804  0.1363  0.0655
  133SAPE  C21914376   5.296   2.171   8.785 -0.1043 -0.2939  0.4508
  133SAPE  H19R14377   5.267   2.264   8.839 -2.2286  0.6282 -2.0668
  133SAPE  H19S14378   5.303   2.093   8.864 -1.3436 -0.2590  0.6072
  133SAPE  C22014379   5.175   2.139   8.697  0.7904 -0.6287 -0.3613
  133SAPE  H20R14380   5.158   2.222   8.625  0.5127 -1.0727 -0.8145
  133SAPE  H20S14381   5.086   2.138   8.763  3.6150  0.9878  3.8598
  133SAPE  H20T14382   5.187   2.049   8.632  1.8856  0.3964 -1.6435
  133SAPE   C3314383   5.326   2.659   9.972 -0.2300  0.1462  0.2772
  133SAPE   H3X14384   5.407   2.733   9.991  0.5030 -0.6135  0.2147
  133SAPE   H3Y14385   5.232   2.693  10.020 -0.8694 -0.6322 -0.3825
  133SAPE   C3414386   5.291   2.631   9.824  0.4252  0.9143 -0.4927
  133SAPE   H4X14387   5.198   2.573   9.809 -0.1437  1.9599 -1.1198
  133SAPE   H4Y14388   5.376   2.575   9.779  2.0221  1.7485  1.3432
  133SAPE   C3514389   5.282   2.767   9.749  0.6163  0.1008 -0.6066
  133SAPE   H5X14390   5.366   2.831   9.785  0.3978  0.6077 -0.9947
  133SAPE   H5Y14391   5.188   2.813   9.785  0.5378 -1.0558  0.7932
  133SAPE   C3614392   5.288   2.747   9.598  0.4110 -0.2277 -0.5943
  133SAPE   H6X14393   5.179   2.737   9.578 -0.2706  1.3525  1.9567
  133SAPE   H6Y14394   5.346   2.657   9.566  0.0327 -1.0776  1.0361
  133SAPE   C3714395   5.344   2.873   9.528 -0.6982  0.2897 -0.4631
  133SAPE   H7X14396   5.332   2.868   9.418  1.4110 -1.7720 -0.6704
  133SAPE   H7Y14397   5.451   2.852   9.548 -0.8678 -0.8526 -0.7311
  133SAPE   C3814398   5.292   3.003   9.579 -0.7437 -1.2391  0.0404
  133SAPE   H8X14399   5.291   3.004   9.690 -0.2156  3.6247  0.2392
  133SAPE   H8Y14400   5.190   3.035   9.547 -0.3698 -0.4407 -0.3878
  133SAPE   C3914401   5.397   3.113   9.542 -0.3176 -0.0507  0.5903
  133SAPE   H9X14402   5.499   3.074   9.560  1.3219  2.2978 -2.7611
  133SAPE   H9Y14403   5.385   3.205   9.603  0.1852 -0.3331  1.1341
  133SAPE  C31014404   5.394   3.138   9.391 -0.2789 -0.3225 -0.4355
  133SAPE  H10X14405   5.294   3.178   9.365  0.6078  1.8966 -0.6787
  133SAPE  H10Y14406   5.416   3.043   9.337  1.6570  0.3821 -0.9788
  133SAPE  C31114407   5.484   3.257   9.348 -0.5612 -0.3579  0.4056
  133SAPE  H11X14408   5.589   3.242   9.379 -0.3648 -0.7719 -0.4248
  133SAPE  H11Y14409   5.445   3.348   9.398  0.8639 -0.8443  2.5325
  133SAPE  C31214410   5.480   3.278   9.195 -0.3235 -1.0272 -0.2511
  133SAPE  H12X14411   5.372   3.274   9.170 -0.9593 -0.2363  2.1482
  133SAPE  H12Y14412   5.523   3.196   9.133  1.7834  0.9574 -1.5502
  133SAPE  C31314413   5.560   3.398   9.137  0.1288 -0.1486 -0.1304
  133SAPE  H13X14414   5.667   3.379   9.162  0.1917 -2.9641 -2.0554
  133SAPE  H13Y14415   5.527   3.494   9.182  0.6864 -0.5711  1.2739
  133SAPE  C31414416   5.566   3.426   8.987  0.4919  0.0008  0.2553
  133SAPE  H14X14417   5.615   3.353   8.919 -0.2423  0.3460 -0.6641
  133SAPE  H14Y14418   5.618   3.523   8.976  0.3695  0.2412  1.6367
  133SAPE  C31514419   5.428   3.442   8.935 -0.2508 -0.0122 -0.0805
  133SAPE  H15X14420   5.381   3.507   9.013  2.9652  1.2925  0.9522
  133SAPE  H15Y14421   5.374   3.345   8.939  0.3522 -0.3716  4.1052
  133SAPE  C31614422   5.410   3.494   8.789  0.3001 -0.5543  0.4533
  133SAPE  H16X14423   5.460   3.422   8.720 -0.3811  1.8077 -2.7421
  133SAPE  H16Y14424   5.457   3.595   8.791  0.0658 -0.4479  0.5878
  133SAPE  C31714425   5.265   3.522   8.753 -0.4694  0.4384  0.3923
  133SAPE  H17X14426   5.218   3.601   8.815  0.6557  1.0050  0.5653
  133SAPE  H17Y14427   5.213   3.425   8.767 -1.5040  0.5304 -2.2434
  133SAPE  C31814428   5.248   3.539   8.602  0.4116 -0.1840  0.0337
  133SAPE  H18X14429   5.311   3.622   8.563  1.1515  0.0077  1.5717
  133SAPE  H18Y14430   5.141   3.568   8.593  0.5401  0.8996  1.6892
  133SAPE  H18Z14431   5.263   3.455   8.531  0.4608  0.0573 -0.2430
  134SAPE     N14432   2.417   4.183  10.752  0.2690  0.2048 -0.7603
  134SAPE   HN114433   2.469   4.175  10.842 -0.8641  2.1507  0.1259
  134SAPE   HN214434   2.464   4.118  10.686  0.2148 -2.7852  1.8736
  134SAPE   HN314435   2.425   4.283  10.724 -0.7027  0.3140 -0.6652
  134SAPE   C1214436   2.272   4.154  10.766 -0.3780 -0.5322 -0.1642
  134SAPE  H12A14437   2.227   4.196  10.859  0.2353  1.6693 -0.8051
  134SAPE  H12B14438   2.263   4.044  10.780  0.7860 -0.4507  1.5127
  134SAPE   C1114439   2.189   4.189  10.645 -0.3751 -0.5057  0.2378
  134SAPE  H11A14440   2.238   4.160  10.550  0.2944  1.7877 -0.1928
  134SAPE  H11B14441   2.188   4.300  10.645  1.0533 -0.4612  1.7247
  134SAPE     P14442   1.933   4.238  10.685 -0.2277  0.0431  0.0487
  134SAPE   O1314443   1.812   4.157  10.705  0.4910 -0.3852 -0.3947
  134SAPE   O1414444   1.981   4.322  10.792 -0.3165 -0.0729 -0.3847
  134SAPE   O1214445   2.059   4.137  10.650  0.5468 -1.0626 -0.3489
  134SAPE   O1114446   1.913   4.314  10.556 -0.0445  0.0576 -0.1463
  134SAPE    C114447   1.920   4.256  10.429 -0.0817 -0.7488 -0.6010
  134SAPE    HA14448   1.928   4.337  10.353 -2.3095 -0.5263 -0.6507
  134SAPE    HB14449   2.011   4.193  10.422  1.6748  1.3463  1.3624
  134SAPE    C214450   1.797   4.173  10.391 -0.2016  0.4572 -0.6654
  134SAPE    HS14451   1.797   4.082  10.454  0.4673 -1.1730 -2.8868
  134SAPE   O2114452   1.799   4.137  10.257  0.5315 -0.2353  0.6522
  134SAPE   C2114453   1.876   4.041  10.224  0.2493  1.1592  0.1075
  134SAPE   O2214454   1.937   3.970  10.311  0.0500  0.3455  0.6581
  134SAPE   C2214455   1.886   4.027  10.075 -0.4165  0.0353 -0.1954
  134SAPE   H2R14456   1.783   4.043  10.036 -1.4119 -0.7679  1.9414
  134SAPE   H2S14457   1.945   4.116  10.046 -1.5245  1.5202  1.8466
  134SAPE    C314458   1.664   4.247  10.421 -0.2794  0.1832  0.2654
  134SAPE    HX14459   1.644   4.333  10.353  0.7908 -0.4832 -0.9272
  134SAPE    HY14460   1.678   4.285  10.524  1.5861 -0.8586  0.4250
  134SAPE   O3114461   1.558   4.141  10.416 -0.1627 -0.2901  0.4143
  134SAPE   C3114462   1.499   4.133  10.296 -0.6703  0.6637  0.7273
  134SAPE   O3214463   1.531   4.185  10.195  0.5618 -0.3465  0.1391
  134SAPE   C3214464   1.377   4.032  10.316 -0.6203 -0.2362 -0.4716
  134SAPE   H2X14465   1.297   4.089  10.368  0.8204  1.1338  0.3342
  134SAPE   H2Y14466   1.413   3.954  10.386  0.6805  1.0046  0.2676
  134SAPE   C2314467   1.960   3.903  10.026 -0.1309  0.1918 -0.2500
  134SAPE   H3R14468   2.042   3.864  10.090  0.3505  2.0532  0.3335
  134SAPE   H3S14469   1.999   3.913   9.923 -0.5613 -0.1397 -0.4440
  134SAPE   C2414470   1.865   3.782  10.002 -0.0211 -0.9063 -0.4503
  134SAPE   H4R14471   1.926   3.712   9.940 -0.5682 -1.0622 -0.8214
  134SAPE   H4S14472   1.781   3.820   9.940  0.5472  2.2872  0.5692
  134SAPE   C2514473   1.806   3.716  10.123  0.1274 -0.1678 -0.2313
  134SAPE   H5R14474   1.774   3.782  10.205  1.7201  0.5984 -0.1965
  134SAPE   C2614475   1.783   3.586  10.144 -0.4827  0.1059  0.4800
  134SAPE   H6R14476   1.755   3.553  10.246  0.8760 -0.9062  0.5558
  134SAPE   C2714477   1.809   3.465  10.051  0.6376  0.6885 -0.0476
  134SAPE   H7R14478   1.811   3.505   9.947 -0.5077  0.6586 -0.0973
  134SAPE   H7S14479   1.722   3.396  10.050 -0.8001  2.4011 -1.5691
  134SAPE   C2814480   1.932   3.395  10.105 -0.9746  0.2421  0.1267
  134SAPE   H8R14481   1.939   3.350  10.206  0.5676 -0.3288 -0.2042
  134SAPE   C2914482   2.048   3.384  10.039  0.2131 -0.0441  0.2687
  134SAPE   H9R14483   2.132   3.332  10.086  0.8599 -0.8215 -1.6358
  134SAPE  C21014484   2.094   3.440   9.906  0.3756 -0.3131  0.3700
  134SAPE  H10R14485   1.999   3.465   9.853  0.8142  3.0228  0.9136
  134SAPE  H10S14486   2.138   3.351   9.857 -0.5885  0.3535 -1.8593
  134SAPE  C21114487   2.181   3.563   9.924  0.4119 -0.7149  0.2408
  134SAPE  H11R14488   2.212   3.586  10.027 -0.0526 -0.2477  0.2786
  134SAPE  C21214489   2.218   3.643   9.821 -0.3887  0.3838  0.0127
  134SAPE  H12R14490   2.280   3.731   9.846 -0.3762  0.1935  0.6913
  134SAPE  C21314491   2.178   3.608   9.681  0.0983  0.0793 -0.2721
  134SAPE  H13R14492   2.094   3.676   9.655 -1.2286 -0.8775  1.2716
  134SAPE  H13S14493   2.144   3.502   9.677  3.2497 -1.0836  0.7817
  134SAPE  C21414494   2.299   3.623   9.594 -0.8170 -0.3412 -0.4033
  134SAPE  H14R14495   2.309   3.716   9.536  3.6775  0.3759  1.1096
  134SAPE  C21514496   2.384   3.523   9.559  0.0154  0.1892 -0.1315
  134SAPE  H15R14497   2.460   3.551   9.485 -0.4793  3.5216  0.4794
  134SAPE  C21614498   2.377   3.377   9.609 -0.4266 -0.5535 -0.2337
  134SAPE  H16R14499   2.302   3.369   9.690 -0.0209 -2.7274  0.0021
  134SAPE  H16S14500   2.472   3.336   9.649 -0.5271  0.1575  0.7621
  134SAPE  C21714501   2.323   3.277   9.497  0.2442 -0.6664 -0.0455
  134SAPE  H17R14502   2.378   3.301   9.404 -0.2995 -1.4842 -0.5826
  134SAPE  H17S14503   2.220   3.315   9.479  1.1368  1.8519 -0.1850
  134SAPE  C21814504   2.316   3.127   9.529  0.0525 -0.3099 -0.4801
  134SAPE  H18R14505   2.253   3.109   9.619  0.1030  1.8575  0.0563
  134SAPE  H18S14506   2.422   3.103   9.552  0.8978  0.8273 -2.8696
  134SAPE  C21914507   2.277   3.041   9.415 -1.0662  0.1708 -0.3508
  134SAPE  H19R14508   2.276   2.936   9.453  3.2026  0.0460 -0.0620
  134SAPE  H19S14509   2.355   3.042   9.335 -0.9852 -1.1969 -0.3236
  134SAPE  C22014510   2.144   3.063   9.353  0.5534  0.7773 -0.1403
  134SAPE  H20R14511   2.140   3.161   9.300 -3.0731  1.5468  1.3101
  134SAPE  H20S14512   2.064   3.068   9.430  1.6798 -0.6371  1.2010
  134SAPE  H20T14513   2.119   2.983   9.281  0.3381  0.8374 -0.1313
  134SAPE   C3314514   1.323   3.974  10.186 -0.3068 -0.1632  0.6164
  134SAPE   H3X14515   1.281   4.051  10.118  0.5567  0.0866  0.3490
  134SAPE   H3Y14516   1.227   3.921  10.208 -1.8452  1.9715 -0.5912
  134SAPE   C3414517   1.433   3.888  10.112  0.4690 -0.4595  0.1481
  134SAPE   H4X14518   1.426   3.788  10.160 -0.2107 -0.2428  0.5185
  134SAPE   H4Y14519   1.533   3.928  10.136  0.9913 -1.0282 -0.9865
  134SAPE   C3514520   1.397   3.875   9.964  0.3279 -0.0679  0.5269
  134SAPE   H5X14521   1.392   3.971   9.908  2.7191 -1.1723 -1.8253
  134SAPE   H5Y14522   1.292   3.839   9.954  0.1253 -0.1016  2.5110
  134SAPE   C3614523   1.481   3.775   9.896  0.4148  0.5020  0.1427
  134SAPE   H6X14524   1.441   3.674   9.919 -1.0524  1.3741  1.5768
  134SAPE   H6Y14525   1.589   3.768   9.924  0.5049  0.2820 -0.2497
  134SAPE   C3714526   1.482   3.792   9.741  0.7368  0.0989  0.3387
  134SAPE   H7X14527   1.499   3.900   9.725 -0.9672  0.2269 -0.8758
  134SAPE   H7Y14528   1.384   3.755   9.704  1.5910 -3.2767  1.0346
  134SAPE   C3814529   1.590   3.716   9.661 -1.0822 -0.9637  0.6949
  134SAPE   H8X14530   1.567   3.607   9.671  2.1449 -1.6617  1.7948
  134SAPE   H8Y14531   1.692   3.724   9.704 -0.8775  1.4809 -0.1090
  134SAPE   C3914532   1.591   3.768   9.521 -0.2674 -0.2996  0.3031
  134SAPE   H9X14533   1.496   3.809   9.480  0.4830 -0.2430 -1.5071
  134SAPE   H9Y14534   1.628   3.685   9.457  1.8528  0.0683  0.9476
  134SAPE  C31014535   1.693   3.880   9.501 -0.1436  0.4511  0.7791
  134SAPE  H10X14536   1.785   3.851   9.557 -0.0198 -1.2003 -0.1866
  134SAPE  H10Y14537   1.660   3.975   9.546 -0.1392 -0.1872  2.1891
  134SAPE  C31114538   1.737   3.903   9.356 -0.4071 -0.0630  1.0128
  134SAPE  H11X14539   1.765   3.809   9.305 -1.1761 -0.1779  0.7896
  134SAPE  H11Y14540   1.827   3.967   9.343  0.8180 -1.9246 -0.0618
  134SAPE  C31214541   1.628   3.970   9.273  0.5621 -0.4833  0.0554
  134SAPE  H12X14542   1.613   4.072   9.312  1.7276  0.1649 -1.1182
  134SAPE  H12Y14543   1.538   3.906   9.286 -0.4940  1.0791  0.7052
  134SAPE  C31314544   1.661   3.992   9.125  0.4211  0.8730  0.2147
  134SAPE  H13X14545   1.573   4.023   9.065 -0.1858 -0.9149  0.1273
  134SAPE  H13Y14546   1.689   3.896   9.077 -0.3972  1.1948 -0.9527
  134SAPE  C31414547   1.775   4.088   9.104 -0.4313 -0.4215 -0.1684
  134SAPE  H14X14548   1.872   4.051   9.143  0.3711  1.8526  0.1637
  134SAPE  H14Y14549   1.758   4.181   9.162 -1.3701  0.1900 -1.3582
  134SAPE  C31514550   1.802   4.137   8.964  0.8890  0.0147  0.4746
  134SAPE  H15X14551   1.862   4.229   8.978  0.2506  0.5876 -0.4365
  134SAPE  H15Y14552   1.707   4.175   8.923 -0.4504 -0.0040  3.3475
  134SAPE  C31614553   1.872   4.024   8.890 -0.3986  0.4978 -0.1348
  134SAPE  H16X14554   1.795   3.945   8.873 -0.0787  0.7666 -3.5443
  134SAPE  H16Y14555   1.956   3.988   8.953 -2.9348  0.5486  3.5777
  134SAPE  C31714556   1.925   4.077   8.757 -0.3268 -0.4987 -0.0419
  134SAPE  H17X14557   2.001   4.156   8.772  0.3264 -1.3566  1.3700
  134SAPE  H17Y14558   1.845   4.122   8.694  0.1075  0.8810  0.3506
  134SAPE  C31814559   1.988   3.965   8.665  0.2386 -0.1246 -0.5455
  134SAPE  H18X14560   1.909   3.893   8.633  1.3971 -0.7997 -1.9657
  134SAPE  H18Y14561   2.076   3.922   8.718  0.5021 -1.1181 -1.7511
  134SAPE  H18Z14562   2.026   4.010   8.571 -0.9412 -1.2234 -1.5917
  135SAPE     N14563   1.060   0.236  10.873  0.2173 -0.0782  0.4594
  135SAPE   HN114564   1.108   0.328  10.876  1.9191 -0.8963  0.0138
  135SAPE   HN214565   1.020   0.220  10.968  0.3817  3.9918  1.3807
  135SAPE   HN314566   1.135   0.167  10.850 -0.9860 -1.3054  0.0538
  135SAPE   C1214567   0.949   0.256  10.779 -0.2106 -0.0986 -0.4108
  135SAPE  H12A14568   0.902   0.354  10.802 -0.6100 -0.1836 -0.8616
  135SAPE  H12B14569   0.871   0.179  10.797 -0.2046 -0.2781 -1.1511
  135SAPE   C1114570   1.003   0.251  10.633 -0.0339  0.0918 -0.7607
  135SAPE  H11A14571   0.922   0.216  10.565 -0.1927 -1.2454  0.0855
  135SAPE  H11B14572   1.089   0.182  10.621  1.7019  2.2457 -1.3932
  135SAPE     P14573   1.153   0.411  10.490  0.3720 -0.0607  0.3902
  135SAPE   O1314574   1.109   0.521  10.403  0.0679 -0.1277  0.2850
  135SAPE   O1414575   1.279   0.435  10.561 -0.5971 -0.4656 -0.6953
  135SAPE   O1214576   1.039   0.382  10.590  0.5061 -0.4330 -0.3061
  135SAPE   O1114577   1.161   0.281  10.400 -0.0377 -0.8204  0.0744
  135SAPE    C114578   1.288   0.222  10.374 -0.4461 -0.7329  0.1603
  135SAPE    HA14579   1.358   0.204  10.458  1.2752  0.9856 -0.8174
  135SAPE    HB14580   1.267   0.121  10.332  0.2801 -0.2523 -1.4147
  135SAPE    C214581   1.376   0.293  10.272 -0.3081 -0.5705 -0.3301
  135SAPE    HS14582   1.384   0.399  10.306  1.4859 -1.1578  1.2222
  135SAPE   O2114583   1.325   0.273  10.138 -0.2115 -0.0439 -0.3565
  135SAPE   C2114584   1.370   0.362  10.040  0.4086 -0.0011 -0.3647
  135SAPE   O2214585   1.435   0.462  10.066 -0.2397  0.5279  0.0626
  135SAPE   C2214586   1.313   0.334   9.900 -0.2726  0.1914  0.7567
  135SAPE   H2R14587   1.288   0.226   9.896 -2.6276  0.6932 -1.8671
  135SAPE   H2S14588   1.222   0.398   9.889  0.9200  2.1384  1.5577
  135SAPE    C314589   1.517   0.237  10.291 -0.1282  0.0610 -0.3673
  135SAPE    HX14590   1.509   0.126  10.290  0.5068 -0.1250  3.2361
  135SAPE    HY14591   1.557   0.265  10.391 -0.8517  0.8072 -0.2727
  135SAPE   O3114592   1.608   0.277  10.184 -0.0030  0.3071  0.0824
  135SAPE   C3114593   1.689   0.381  10.199  0.3989 -0.0862  0.7888
  135SAPE   O3214594   1.693   0.450  10.301  0.2244 -0.2390  1.2569
  135SAPE   C3214595   1.766   0.405  10.069  0.7438  0.8422 -0.1018
  135SAPE   H2X14596   1.836   0.488  10.091  0.7469  0.4138  1.6064
  135SAPE   H2Y14597   1.696   0.432   9.987  0.5161 -1.2905 -0.6862
  135SAPE   C2314598   1.415   0.373   9.789 -0.0501 -0.3331  0.4474
  135SAPE   H3R14599   1.509   0.316   9.806  1.9234  2.6582  0.4044
  135SAPE   H3S14600   1.444   0.479   9.803  1.8960 -0.8053  0.2105
  135SAPE   C2414601   1.356   0.357   9.651 -0.9872  0.0320 -0.1718
  135SAPE   H4R14602   1.264   0.419   9.653  0.3890  2.2046  2.2483
  135SAPE   H4S14603   1.324   0.251   9.643  1.2648 -0.6950 -0.1916
  135SAPE   C2514604   1.445   0.390   9.539  0.1998  0.4291  0.3595
  135SAPE   H5R14605   1.524   0.315   9.525  0.5580  0.2191  3.0461
  135SAPE   C2614606   1.441   0.490   9.452 -0.4651  0.0632 -0.2011
  135SAPE   H6R14607   1.521   0.494   9.376  1.1183 -1.0246  1.3619
  135SAPE   C2714608   1.329   0.595   9.453  0.1757  0.7000  0.4751
  135SAPE   H7R14609   1.332   0.642   9.553 -0.3012  2.1688 -0.1745
  135SAPE   H7S14610   1.229   0.547   9.454  0.4967  0.0262  1.7765
  135SAPE   C2814611   1.353   0.689   9.335 -0.1879  0.0498  0.1907
  135SAPE   H8R14612   1.393   0.788   9.362  0.7333 -0.5431  1.0895
  135SAPE   C2914613   1.329   0.665   9.199 -0.6648 -0.6794 -0.5058
  135SAPE   H9R14614   1.343   0.744   9.124 -1.4428 -0.8194 -0.8020
  135SAPE  C21014615   1.279   0.543   9.142 -0.0417 -0.0788  0.0954
  135SAPE  H10R14616   1.189   0.564   9.080 -0.9115 -2.1315  0.5684
  135SAPE  H10S14617   1.248   0.469   9.219 -0.5810  1.2469  1.1940
  135SAPE  C21114618   1.385   0.484   9.053  0.0170 -0.7057  0.3282
  135SAPE  H11R14619   1.448   0.414   9.109 -0.9076 -1.0818  0.9228
  135SAPE  C21214620   1.403   0.511   8.921  0.7009 -0.0164  0.1179
  135SAPE  H12R14621   1.466   0.452   8.853  2.4180 -0.0960  1.6935
  135SAPE  C21314622   1.300   0.606   8.851  0.2908  0.5843 -0.5715
  135SAPE  H13R14623   1.347   0.678   8.781  2.7623  0.2559  0.6363
  135SAPE  H13S14624   1.252   0.672   8.926 -0.1027  0.7616 -0.9723
  135SAPE  C21414625   1.186   0.534   8.779  0.9554  0.1780  0.4514
  135SAPE  H14R14626   1.168   0.429   8.805 -0.1920 -0.3921 -2.2405
  135SAPE  C21514627   1.116   0.580   8.670  0.5801 -0.8523  0.1487
  135SAPE  H15R14628   1.048   0.513   8.615 -1.2076  0.2037  1.0072
  135SAPE  C21614629   1.137   0.717   8.609  0.4480 -0.1139  0.5833
  135SAPE  H16R14630   1.201   0.783   8.673 -0.0711 -0.1533  1.1532
  135SAPE  H16S14631   1.032   0.749   8.588  0.4205 -0.3474  0.3636
  135SAPE  C21714632   1.196   0.701   8.470 -0.3871 -0.3771  0.7464
  135SAPE  H17R14633   1.170   0.612   8.409  0.0283  0.4969 -0.7856
  135SAPE  H17S14634   1.307   0.698   8.476 -0.4240 -0.9027  1.2075
  135SAPE  C21814635   1.142   0.812   8.377 -0.1178 -0.1361 -0.0665
  135SAPE  H18R14636   1.152   0.903   8.440  1.5050 -0.4156  0.1199
  135SAPE  H18S14637   1.032   0.802   8.363 -0.5589  4.0691 -0.8932
  135SAPE  C21914638   1.204   0.839   8.240 -0.3799  0.0375 -0.3426
  135SAPE  H19R14639   1.302   0.888   8.259  0.3564 -1.5978  0.2566
  135SAPE  H19S14640   1.152   0.917   8.180  0.3636  0.7772 -0.0317
  135SAPE  C22014641   1.230   0.718   8.143 -0.5033 -0.8963 -0.4857
  135SAPE  H20R14642   1.135   0.672   8.107 -1.0339 -2.5975  2.6523
  135SAPE  H20S14643   1.282   0.638   8.201  2.2767  0.1882 -1.3585
  135SAPE  H20T14644   1.289   0.742   8.053 -0.5642  0.2182 -0.2379
  135SAPE   C3314645   1.852   0.288  10.022 -1.5883  0.2971 -0.2479
  135SAPE   H3X14646   1.805   0.188  10.021  2.4424 -1.7895 -0.2611
  135SAPE   H3Y14647   1.927   0.275  10.103  0.3212 -2.0708 -2.2278
  135SAPE   C3414648   1.922   0.322   9.896  0.1820 -0.6070  0.0226
  135SAPE   H4X14649   2.020   0.272   9.899  0.7532  0.4759  0.0265
  135SAPE   H4Y14650   1.950   0.429   9.889 -0.1580 -0.3640  1.8937
  135SAPE   C3514651   1.840   0.273   9.777  0.7498  0.4921  0.2531
  135SAPE   H5X14652   1.737   0.312   9.786  1.3047  1.6147  2.3471
  135SAPE   H5Y14653   1.847   0.162   9.783 -0.3753  0.4031  0.0057
  135SAPE   C3614654   1.898   0.316   9.635  0.1122 -0.0702  0.7843
  135SAPE   H6X14655   1.854   0.259   9.550 -0.7011  0.0968  1.0861
  135SAPE   H6Y14656   2.007   0.296   9.632  0.1998  0.2525  1.6011
  135SAPE   C3714657   1.867   0.466   9.597 -0.0347 -0.2667 -0.3389
  135SAPE   H7X14658   1.908   0.531   9.678  0.1094  0.0417 -0.6580
  135SAPE   H7Y14659   1.756   0.467   9.605  0.0336  1.0374  0.6928
  135SAPE   C3814660   1.909   0.521   9.471 -0.6295 -0.2987  0.3946
  135SAPE   H8X14661   1.990   0.458   9.428  0.8077 -0.4998  3.1790
  135SAPE   H8Y14662   1.943   0.627   9.480  1.2698 -0.5834 -2.2207
  135SAPE   C3914663   1.795   0.527   9.364 -0.0794 -0.8925 -0.1520
  135SAPE   H9X14664   1.737   0.619   9.384  0.4758 -0.1746 -1.7371
  135SAPE   H9Y14665   1.725   0.441   9.370 -1.1411 -0.0363 -0.0034
  135SAPE  C31014666   1.849   0.516   9.218 -0.6898 -0.3630  0.8203
  135SAPE  H10X14667   1.941   0.453   9.212  0.6054  1.1735  3.0175
  135SAPE  H10Y14668   1.871   0.618   9.181 -1.5419 -0.9259 -1.3995
  135SAPE  C31114669   1.761   0.446   9.111  0.3973 -0.0116  0.1819
  135SAPE  H11X14670   1.668   0.501   9.086  0.3334 -1.0315 -1.9569
  135SAPE  H11Y14671   1.710   0.359   9.156 -1.7685  1.5348  0.8833
  135SAPE  C31214672   1.839   0.413   8.979 -0.0714 -0.3875 -0.6390
  135SAPE  H12X14673   1.933   0.358   9.000  0.8700  1.4849  0.3826
  135SAPE  H12Y14674   1.870   0.513   8.941  1.2952 -1.0340 -1.2841
  135SAPE  C31314675   1.757   0.346   8.869 -0.7114  0.3191  0.5183
  135SAPE  H13X14676   1.657   0.391   8.851 -0.7232 -1.1719 -4.6131
  135SAPE  H13Y14677   1.734   0.244   8.905 -1.6146  0.2014 -0.3679
  135SAPE  C31414678   1.830   0.325   8.734 -0.0513  0.5486 -0.7455
  135SAPE  H14X14679   1.914   0.257   8.760 -0.1560  1.3496  1.8903
  135SAPE  H14Y14680   1.870   0.420   8.694  0.5556 -0.5183 -2.8525
  135SAPE  C31514681   1.747   0.251   8.631  0.5270 -0.3168  0.9874
  135SAPE  H15X14682   1.757   0.141   8.641  1.9244 -0.2896  0.1748
  135SAPE  H15Y14683   1.789   0.270   8.530  0.1398  0.5441  0.9794
  135SAPE  C31614684   1.603   0.301   8.618  0.0892 -0.2883  0.2525
  135SAPE  H16X14685   1.615   0.411   8.617 -0.3659 -0.2252  0.7235
  135SAPE  H16Y14686   1.543   0.274   8.708  0.9993 -1.3721  0.5633
  135SAPE  C31714687   1.536   0.245   8.497  0.1150 -0.3520 -0.5482
  135SAPE  H17X14688   1.549   0.136   8.480 -1.9879 -0.6208 -0.6556
  135SAPE  H17Y14689   1.586   0.285   8.406 -0.2194  0.4409 -0.3898
  135SAPE  C31814690   1.388   0.287   8.503 -0.7938  0.0913  0.7879
  135SAPE  H18X14691   1.333   0.258   8.410 -0.7276  1.4902  0.2969
  135SAPE  H18Y14692   1.376   0.395   8.526 -2.8905 -0.1248  0.9270
  135SAPE  H18Z14693   1.347   0.218   8.580  1.7576 -3.6175 -0.8620
  136SAPE     N14694   3.911   2.439  11.033  0.3951 -1.2084 -0.1143
  136SAPE   HN114695   3.820   2.398  11.064 -0.0159 -0.7290 -0.6676
  136SAPE   HN214696   3.965   2.371  10.977  0.8173  1.5321 -3.3983
  136SAPE   HN314697   3.970   2.464  11.115 -1.5472  0.3223  0.9189
  136SAPE   C1214698   3.894   2.559  10.949  0.1466  0.6173 -0.4025
  136SAPE  H12A14699   3.975   2.576  10.874  1.7193  1.9590  1.4879
  136SAPE  H12B14700   3.890   2.639  11.026 -1.3655 -1.0900  1.3854
  136SAPE   C1114701   3.762   2.554  10.876 -0.9771 -0.4555  0.6254
  136SAPE  H11A14702   3.739   2.461  10.820 -0.1584 -2.2704  3.1023
  136SAPE  H11B14703   3.745   2.644  10.813 -1.0674 -0.6401  0.3875
  136SAPE     P14704   3.549   2.670  10.978  0.1591 -0.3627  0.2463
  136SAPE   O1314705   3.445   2.642  11.075 -0.1406 -0.0298 -0.1548
  136SAPE   O1414706   3.624   2.799  11.000 -0.4964 -0.2847 -0.4796
  136SAPE   O1214707   3.655   2.557  10.971 -0.1755  0.2265  0.3601
  136SAPE   O1114708   3.476   2.667  10.840  0.2136  0.1331  0.4160
  136SAPE    C114709   3.473   2.538  10.773 -0.1351 -0.7376 -0.4449
  136SAPE    HA14710   3.558   2.527  10.702  0.6089 -2.2743  0.6237
  136SAPE    HB14711   3.477   2.453  10.845 -0.3922  0.5870  1.1954
  136SAPE    C214712   3.345   2.512  10.685  0.1991 -0.3519 -0.8149
  136SAPE    HS14713   3.333   2.404  10.660  0.6848 -1.0971  1.9076
  136SAPE   O2114714   3.356   2.591  10.565 -0.0928  0.3597 -0.0435
  136SAPE   C2114715   3.435   2.545  10.472  0.3320  0.4632 -0.0816
  136SAPE   O2214716   3.496   2.441  10.473 -0.0670 -0.6167 -0.4441
  136SAPE   C2214717   3.434   2.642  10.353 -0.2924 -0.2204  0.2876
  136SAPE   H2R14718   3.330   2.667  10.323 -0.2316 -3.1774 -3.0087
  136SAPE   H2S14719   3.460   2.735  10.408  1.9265 -0.7439  0.2097
  136SAPE    C314720   3.218   2.550  10.768  0.2246  0.3814 -0.1697
  136SAPE    HX14721   3.208   2.656  10.797 -0.8229  0.2919 -0.1667
  136SAPE    HY14722   3.236   2.496  10.863  2.4466  0.7469 -0.3317
  136SAPE   O3114723   3.095   2.487  10.713 -0.3054  0.4517  0.3290
  136SAPE   C3114724   3.020   2.556  10.631 -0.6949  0.1315  0.1293
  136SAPE   O3214725   3.046   2.672  10.596 -0.1463  0.4872  0.0391
  136SAPE   C3214726   2.914   2.457  10.579 -0.0283  0.3518 -0.2062
  136SAPE   H2X14727   2.814   2.504  10.592 -0.8749 -1.6310  0.8897
  136SAPE   H2Y14728   2.913   2.369  10.647  1.6676  1.1961  0.9886
  136SAPE   C2314729   3.522   2.613  10.224  0.2650 -0.6634  0.3843
  136SAPE   H3R14730   3.497   2.513  10.184  2.5432 -0.7535 -0.9773
  136SAPE   H3S14731   3.624   2.604  10.267  0.5669  0.7567  0.0025
  136SAPE   C2414732   3.497   2.709  10.112  0.3225  0.1926  0.6279
  136SAPE   H4R14733   3.479   2.813  10.147  2.1918  1.6671 -2.2683
  136SAPE   H4S14734   3.403   2.675  10.065 -0.4166  1.4414  1.1583
  136SAPE   C2514735   3.621   2.719  10.022  0.0069 -0.3111  0.0209
  136SAPE   H5R14736   3.707   2.737  10.088 -1.4132  0.3162  1.7608
  136SAPE   C2614737   3.635   2.710   9.886  1.6195 -0.0393 -0.4725
  136SAPE   H6R14738   3.737   2.718   9.845  0.9423  2.9267 -1.8722
  136SAPE   C2714739   3.529   2.684   9.782 -0.5445  0.0982  0.1605
  136SAPE   H7R14740   3.543   2.754   9.697  2.6267 -0.4961  0.0735
  136SAPE   H7S14741   3.429   2.698   9.828 -0.5403 -0.6512  0.4058
  136SAPE   C2814742   3.537   2.541   9.714 -0.5107 -0.7386 -0.4395
  136SAPE   H8R14743   3.541   2.453   9.781 -0.1140 -1.9016 -1.9446
  136SAPE   C2914744   3.533   2.514   9.582  0.0055 -0.5510  0.3009
  136SAPE   H9R14745   3.534   2.411   9.544 -1.5861 -0.2292 -0.7047
  136SAPE  C21014746   3.534   2.610   9.468  1.1255 -0.2200 -1.2362
  136SAPE  H10R14747   3.477   2.701   9.497 -1.2917 -1.1190 -2.9102
  136SAPE  H10S14748   3.461   2.562   9.399 -0.1800 -0.6019  0.3572
  136SAPE  C21114749   3.666   2.638   9.411 -0.2227 -0.5710 -0.3231
  136SAPE  H11R14750   3.756   2.635   9.474  0.8544  2.6314 -1.4929
  136SAPE  C21214751   3.693   2.661   9.280  0.5676  0.4955 -0.3827
  136SAPE  H12R14752   3.796   2.692   9.255  1.5845 -1.2641  1.2857
  136SAPE  C21314753   3.596   2.670   9.170 -0.1912 -0.1132  0.1474
  136SAPE  H13R14754   3.560   2.775   9.163 -1.0355 -0.4733 -1.1350
  136SAPE  H13S14755   3.502   2.615   9.190 -0.3835  0.8012  1.9325
  136SAPE  C21414756   3.650   2.615   9.040 -0.0179  0.1315 -0.1082
  136SAPE  H14R14757   3.626   2.509   9.021  0.1438 -0.1597  1.2210
  136SAPE  C21514758   3.710   2.694   8.951  0.6926  0.6374  0.1228
  136SAPE  H15R14759   3.749   2.654   8.856  0.7798  1.2289 -0.0930
  136SAPE  C21614760   3.744   2.837   8.966 -0.0568  0.0672  0.1833
  136SAPE  H16R14761   3.853   2.840   8.984  0.0585  0.6100 -0.5504
  136SAPE  H16S14762   3.699   2.888   9.054  0.6032  0.0112  0.5517
  136SAPE  C21714763   3.707   2.928   8.844 -0.4210  0.2057  0.2319
  136SAPE  H17R14764   3.736   2.874   8.751 -0.7856  1.8296 -0.8565
  136SAPE  H17S14765   3.764   3.022   8.854 -0.8650  0.3723  1.2512
  136SAPE  C21814766   3.554   2.941   8.825 -0.3807  0.4228 -0.7781
  136SAPE  H18R14767   3.503   2.979   8.916 -0.5851 -2.4617  0.4096
  136SAPE  H18S14768   3.520   2.835   8.820 -0.3641  0.2538  1.8180
  136SAPE  C21914769   3.513   3.006   8.685 -0.4441  0.9015  0.6319
  136SAPE  H19R14770   3.568   2.960   8.599 -0.2934  0.3422  1.0223
  136SAPE  H19S14771   3.543   3.113   8.685 -1.3169  1.1535 -0.0515
  136SAPE  C22014772   3.361   2.989   8.651 -0.0425  0.0142  0.7214
  136SAPE  H20R14773   3.337   3.032   8.551 -1.2895  1.2562  1.5273
  136SAPE  H20S14774   3.311   3.039   8.736  0.3428 -0.2782  1.1258
  136SAPE  H20T14775   3.344   2.879   8.659  0.3672 -0.0365  0.9224
  136SAPE   C3314776   2.922   2.422  10.431 -0.6436 -0.1021  0.0674
  136SAPE   H3X14777   2.913   2.516  10.373  0.1480  2.1286  3.2960
  136SAPE   H3Y14778   2.832   2.362  10.405 -0.6267  0.2141 -0.7521
  136SAPE   C3414779   3.055   2.360  10.394 -0.0664  0.6967 -0.5031
  136SAPE   H4X14780   3.058   2.249  10.390  1.3885  0.3215  4.6983
  136SAPE   H4Y14781   3.124   2.355  10.480 -0.6162  1.5552  0.0008
  136SAPE   C3514782   3.129   2.429  10.276  0.2928 -0.0017  0.2571
  136SAPE   H5X14783   3.225   2.377  10.255  0.0687 -0.5073  0.4752
  136SAPE   H5Y14784   3.156   2.530  10.315  0.8632 -0.6161  1.5279
  136SAPE   C3614785   3.050   2.441  10.150  0.8033 -0.2848 -0.1725
  136SAPE   H6X14786   2.974   2.520  10.165  0.5053 -1.0593  3.0082
  136SAPE   H6Y14787   2.985   2.353  10.129  0.1300 -0.1073  1.0711
  136SAPE   C3714788   3.138   2.466  10.024  0.5829  0.2140  0.2978
  136SAPE   H7X14789   3.225   2.397  10.027  0.7110  0.3970  1.2262
  136SAPE   H7Y14790   3.165   2.572  10.004 -0.3960  0.1324 -1.6675
  136SAPE   C3814791   3.053   2.433   9.893  0.6061 -0.4284  0.0321
  136SAPE   H8X14792   2.949   2.464   9.917 -0.1038 -2.6754  0.1012
  136SAPE   H8Y14793   3.050   2.325   9.869 -2.8586 -0.4880  0.2863
  136SAPE   C3914794   3.099   2.511   9.770  0.3474  0.0332  1.1266
  136SAPE   H9X14795   3.208   2.499   9.748  0.1659 -1.4244  0.9557
  136SAPE   H9Y14796   3.084   2.620   9.789  0.6972  0.7794 -2.2236
  136SAPE  C31014797   3.022   2.475   9.644  0.0391 -0.2567 -0.1389
  136SAPE  H10X14798   2.947   2.554   9.621  0.7834  0.6359  0.4240
  136SAPE  H10Y14799   2.960   2.384   9.656 -0.6145  0.1355 -0.4498
  136SAPE  C31114800   3.109   2.462   9.513  0.0165  0.7079 -0.3258
  136SAPE  H11X14801   3.193   2.391   9.530  0.5383  1.6687  1.2625
  136SAPE  H11Y14802   3.167   2.555   9.497  1.7315 -0.0571  1.0887
  136SAPE  C31214803   3.023   2.408   9.398  0.1688 -0.3746  0.8869
  136SAPE  H12X14804   2.940   2.478   9.379  0.7037 -0.1701 -0.8362
  136SAPE  H12Y14805   2.974   2.315   9.433 -1.3284 -1.4980 -3.6119
  136SAPE  C31314806   3.100   2.372   9.274 -0.2048  0.3621  0.7002
  136SAPE  H13X14807   3.027   2.346   9.194  1.1456  0.9096 -0.7774
  136SAPE  H13Y14808   3.175   2.292   9.292  0.1418  0.2330 -1.1197
  136SAPE  C31414809   3.182   2.487   9.205 -0.7228 -0.1543 -0.3954
  136SAPE  H14X14810   3.243   2.535   9.284 -1.0016  0.5674 -0.6061
  136SAPE  H14Y14811   3.109   2.564   9.170  0.8171  0.6855 -1.9026
  136SAPE  C31514812   3.262   2.439   9.089 -0.2404  0.5322 -0.2838
  136SAPE  H15X14813   3.288   2.331   9.097 -1.8780 -0.0008 -1.3814
  136SAPE  H15Y14814   3.359   2.492   9.095 -0.2292  0.5733 -0.8180
  136SAPE  C31614815   3.197   2.469   8.946 -0.3045  0.4707 -0.2531
  136SAPE  H16X14816   3.162   2.575   8.955  0.7109  0.6564  2.5940
  136SAPE  H16Y14817   3.109   2.401   8.942  1.4986 -1.9719 -0.2539
  136SAPE  C31714818   3.302   2.473   8.834 -0.0764  0.1847  0.4969
  136SAPE  H17X14819   3.368   2.561   8.852 -2.3729  2.3311 -0.9438
  136SAPE  H17Y14820   3.252   2.504   8.739 -0.7633 -0.1332  0.7502
  136SAPE  C31814821   3.386   2.353   8.823 -0.1407  0.2256  0.2543
  136SAPE  H18X14822   3.328   2.263   8.795  0.6136 -0.6272  1.3383
  136SAPE  H18Y14823   3.426   2.319   8.921 -0.2040 -5.3162 -1.2758
  136SAPE  H18Z14824   3.471   2.381   8.758 -0.8273  1.6143 -0.0735
  137SAPE     N14825   4.246   4.976  10.961 -0.2728  0.1644 -0.4268
  137SAPE   HN114826   4.322   4.981  10.890 -0.0872 -1.0401 -0.3369
  137SAPE   HN214827   4.216   5.071  10.991 -0.4611 -0.1124  0.2848
  137SAPE   HN314828   4.277   4.916  11.040 -1.8469  0.4847  0.4845
  137SAPE   C1214829   4.122   4.906  10.899  0.0592 -0.2403 -0.2936
  137SAPE  H12A14830   4.048   4.880  10.977 -0.9030 -0.2946 -1.2037
  137SAPE  H12B14831   4.166   4.814  10.854 -0.0845 -2.1680  3.1871
  137SAPE   C1114832   4.063   4.996  10.788  0.4492  0.1753 -0.1336
  137SAPE  H11A14833   4.003   4.937  10.716 -2.4669  1.2572  1.2658
  137SAPE  H11B14834   4.135   5.049  10.722 -0.6768  1.1502 -0.6065
  137SAPE     P14835   4.003   5.241  10.894  0.2263  0.3078  0.2075
  137SAPE   O1314836   3.879   5.278  10.968  0.1676  0.2380 -0.0101
  137SAPE   O1414837   4.130   5.221  10.970 -0.0675  0.1709 -0.2698
  137SAPE   O1214838   3.963   5.098  10.834  0.1380  0.1126  0.1216
  137SAPE   O1114839   4.024   5.338  10.768 -0.6794 -0.6869 -0.0862
  137SAPE    C114840   3.926   5.358  10.673 -0.0794 -0.1806  0.4682
  137SAPE    HA14841   3.826   5.359  10.720  0.5912  1.4748  1.9720
  137SAPE    HB14842   3.951   5.461  10.640  0.0849  0.1741  1.6501
  137SAPE    C214843   3.926   5.268  10.550 -0.1028  0.5854  0.1938
  137SAPE    HS14844   3.897   5.164  10.578  2.0712  0.1792  1.1345
  137SAPE   O2114845   4.061   5.253  10.503 -0.3386  0.3147  0.0342
  137SAPE   C2114846   4.094   5.154  10.417  0.2081 -1.1863 -0.2985
  137SAPE   O2214847   4.024   5.062  10.374  0.6265 -0.2165 -0.8188
  137SAPE   C2214848   4.249   5.171  10.373 -0.3756 -0.9443  0.1216
  137SAPE   H2R14849   4.278   5.275  10.397  0.0545 -1.1026  0.2987
  137SAPE   H2S14850   4.313   5.099  10.427  2.6858  0.6560 -1.1631
  137SAPE    C314851   3.828   5.327  10.446  0.3409  0.0499  0.2960
  137SAPE    HX14852   3.852   5.433  10.420  2.8569 -0.9265 -1.7094
  137SAPE    HY14853   3.720   5.333  10.474  0.2566  0.1911 -0.0487
  137SAPE   O3114854   3.838   5.273  10.317  0.5031 -0.3064  0.2636
  137SAPE   C3114855   3.755   5.170  10.295 -0.2355  0.4789  0.0569
  137SAPE   O3214856   3.681   5.117  10.376  0.3321  0.5790 -0.4450
  137SAPE   C3214857   3.783   5.122  10.157  0.0569  0.6094 -0.0788
  137SAPE   H2X14858   3.728   5.028  10.133  2.5813 -0.4466 -2.1783
  137SAPE   H2Y14859   3.891   5.111  10.134 -0.0123  2.1653 -1.2995
  137SAPE   C2314860   4.266   5.156  10.220  0.7871  0.1376  0.1231
  137SAPE   H3R14861   4.237   5.055  10.184  3.7150 -0.3611 -1.1629
  137SAPE   H3S14862   4.372   5.169  10.190  1.4649 -1.5408  1.5816
  137SAPE   C2414863   4.177   5.247  10.137 -0.0267  0.0776 -0.0311
  137SAPE   H4R14864   4.068   5.229  10.149 -0.1560  0.9025  0.0983
  137SAPE   H4S14865   4.189   5.230  10.027 -2.0611  1.0521 -0.4509
  137SAPE   C2514866   4.210   5.395  10.153 -0.0605 -1.1000  0.5422
  137SAPE   H5R14867   4.186   5.430  10.254 -3.2813 -0.9656 -0.1734
  137SAPE   C2614868   4.235   5.484  10.052 -1.5826 -0.2930 -0.0770
  137SAPE   H6R14869   4.261   5.584  10.088 -2.0538  0.3510 -1.4564
  137SAPE   C2714870   4.248   5.463   9.900  0.7701 -0.8444  0.0836
  137SAPE   H7R14871   4.233   5.359   9.865  0.6072 -0.2831 -1.6159
  137SAPE   H7S14872   4.348   5.491   9.861 -1.1983  2.3544 -3.2491
  137SAPE   C2814873   4.137   5.551   9.837 -0.4511  0.1064  0.0987
  137SAPE   H8R14874   4.138   5.659   9.856  4.9619  0.6101 -1.4203
  137SAPE   C2914875   4.047   5.511   9.741  0.2195 -0.3359 -0.5892
  137SAPE   H9R14876   3.965   5.579   9.716  0.0689 -0.4485 -0.4114
  137SAPE  C21014877   4.035   5.367   9.696 -0.7621  0.5853  0.2129
  137SAPE  H10R14878   3.930   5.336   9.677  0.1232 -2.3120 -0.4880
  137SAPE  H10S14879   4.071   5.296   9.774  3.0216  1.6393 -0.3568
  137SAPE  C21114880   4.114   5.336   9.570  0.0418 -0.4824 -0.1545
  137SAPE  H11R14881   4.222   5.352   9.583 -0.0803 -1.2700  2.2690
  137SAPE  C21214882   4.062   5.286   9.457  0.4892  0.0805 -0.1009
  137SAPE  H12R14883   4.135   5.272   9.376  0.4393 -0.9014  0.0082
  137SAPE  C21314884   3.919   5.257   9.424 -0.3711  0.5024 -0.3987
  137SAPE  H13R14885   3.863   5.233   9.517  0.2199 -1.2265 -0.4528
  137SAPE  H13S14886   3.922   5.164   9.364 -0.4652  0.0008  0.3641
  137SAPE  C21414887   3.862   5.372   9.351 -0.1607 -0.1648  0.3738
  137SAPE  H14R14888   3.818   5.450   9.416 -2.0021 -0.8854  0.0536
  137SAPE  C21514889   3.852   5.380   9.215  0.5387  0.4650 -0.5569
  137SAPE  H15R14890   3.802   5.465   9.167  0.4351  1.0419  0.5569
  137SAPE  C21614891   3.886   5.267   9.115  0.0442 -0.2966  0.5690
  137SAPE  H16R14892   3.795   5.208   9.092  1.4632 -1.8932 -1.3103
  137SAPE  H16S14893   3.969   5.206   9.158 -0.4398 -2.1158 -0.9294
  137SAPE  C21714894   3.941   5.313   8.980  0.2571  0.3875 -0.0344
  137SAPE  H17R14895   3.868   5.374   8.923  1.0557  1.0708 -0.3488
  137SAPE  H17S14896   3.973   5.226   8.918 -0.3652 -0.3759  0.6830
  137SAPE  C21814897   4.072   5.388   8.999  0.3116 -0.2172  0.2572
  137SAPE  H18R14898   4.139   5.318   9.055 -0.0685  0.1643  1.2071
  137SAPE  H18S14899   4.071   5.488   9.046  0.9052  0.2931 -0.7818
  137SAPE  C21914900   4.147   5.399   8.869 -0.0807  0.4122 -0.7124
  137SAPE  H19R14901   4.098   5.481   8.812 -1.8282 -1.4523 -2.0206
  137SAPE  H19S14902   4.136   5.305   8.810  0.9381 -0.5600  0.5744
  137SAPE  C22014903   4.294   5.426   8.892 -0.2426  0.7024 -0.6627
  137SAPE  H20R14904   4.339   5.331   8.926 -2.6404 -0.7483 -1.2952
  137SAPE  H20S14905   4.305   5.499   8.976 -1.7982  1.3248 -0.9550
  137SAPE  H20T14906   4.349   5.449   8.799  1.5992  0.1282  0.2312
  137SAPE   C3314907   3.735   5.229  10.063 -0.1760 -0.0517  0.1475
  137SAPE   H3X14908   3.787   5.325  10.084  0.4820 -0.3359 -0.1888
  137SAPE   H3Y14909   3.625   5.240  10.075 -0.1520  1.7651 -0.8535
  137SAPE   C3414910   3.750   5.189   9.916  0.7487 -0.2477 -0.1018
  137SAPE   H4X14911   3.857   5.160   9.907  1.0572  1.1646 -1.6230
  137SAPE   H4Y14912   3.734   5.275   9.848  2.5449 -0.6254 -1.0584
  137SAPE   C3514913   3.658   5.078   9.873 -0.7632  0.4094  0.7450
  137SAPE   H5X14914   3.552   5.088   9.903 -1.3854  0.5102 -1.3144
  137SAPE   H5Y14915   3.702   4.988   9.922  1.1626  1.2402  0.6168
  137SAPE   C3614916   3.646   5.069   9.723  0.7357 -0.6083  0.0951
  137SAPE   H6X14917   3.745   5.078   9.675  1.0243 -1.7685  0.4494
  137SAPE   H6Y14918   3.591   5.158   9.685  0.1320 -0.8631  0.3619
  137SAPE   C3714919   3.576   4.939   9.669 -0.5680 -1.3644 -0.7058
  137SAPE   H7X14920   3.475   4.931   9.716 -0.2592 -1.1389  0.0149
  137SAPE   H7Y14921   3.626   4.842   9.687 -0.9035 -1.4077  0.0517
  137SAPE   C3814922   3.580   4.937   9.518  0.6996 -0.3848  0.9044
  137SAPE   H8X14923   3.539   5.031   9.474 -0.7868 -2.0681 -1.5798
  137SAPE   H8Y14924   3.506   4.857   9.493 -0.6764  0.8693  0.8066
  137SAPE   C3914925   3.711   4.898   9.463 -0.6656 -0.2720  0.4690
  137SAPE   H9X14926   3.738   4.801   9.508 -0.0440 -1.4875 -2.3283
  137SAPE   H9Y14927   3.788   4.975   9.486 -0.9545  0.6957 -1.5891
  137SAPE  C31014928   3.706   4.893   9.309 -0.2622 -0.7121 -0.4815
  137SAPE  H10X14929   3.700   5.001   9.283 -0.6027 -0.6441 -0.1370
  137SAPE  H10Y14930   3.611   4.846   9.277 -1.6391  0.7264  1.2663
  137SAPE  C31114931   3.825   4.823   9.248 -0.8659 -0.3388 -0.0193
  137SAPE  H11X14932   3.811   4.718   9.283  1.6753  0.0856  2.7292
  137SAPE  H11Y14933   3.911   4.847   9.314 -2.1435 -0.0187  1.6072
  137SAPE  C31214934   3.850   4.822   9.096  0.0908 -0.3745 -0.2615
  137SAPE  H12X14935   3.926   4.752   9.056  2.6021  1.5792  0.8667
  137SAPE  H12Y14936   3.883   4.925   9.069 -0.5367 -0.2574 -0.6256
  137SAPE  C31314937   3.717   4.825   9.011 -0.6521  0.5303 -0.1827
  137SAPE  H13X14938   3.646   4.893   9.063  0.1344  1.5459 -0.4032
  137SAPE  H13Y14939   3.666   4.727   9.017  1.2693 -0.6942 -2.5291
  137SAPE  C31414940   3.721   4.867   8.862 -0.0232  0.1354 -0.5720
  137SAPE  H14X14941   3.783   4.790   8.812  1.6258 -0.1334  1.7061
  137SAPE  H14Y14942   3.773   4.965   8.848 -2.0935  1.7111  1.8110
  137SAPE  C31514943   3.580   4.875   8.812  0.3678  0.3728 -0.7527
  137SAPE  H15X14944   3.518   4.937   8.880  0.7639  0.1420 -0.1639
  137SAPE  H15Y14945   3.547   4.769   8.820  0.1279  0.5784  1.5638
  137SAPE  C31614946   3.571   4.913   8.660  0.6753 -0.1711 -0.5806
  137SAPE  H16X14947   3.635   4.835   8.615 -1.5660 -2.1883 -0.5117
  137SAPE  H16Y14948   3.606   5.016   8.639  1.5878  0.0355  1.6422
  137SAPE  C31714949   3.428   4.908   8.606 -0.0521 -0.4512 -0.1013
  137SAPE  H17X14950   3.372   4.984   8.665  0.3033  1.5218 -2.1957
  137SAPE  H17Y14951   3.379   4.810   8.624 -0.9747  0.2541  1.4634
  137SAPE  C31814952   3.416   4.943   8.454 -0.1255  0.0201 -0.7555
  137SAPE  H18X14953   3.309   4.942   8.422  0.2911 -0.4280 -2.1961
  137SAPE  H18Y14954   3.480   4.874   8.396 -0.6106 -0.2191 -1.0174
  137SAPE  H18Z14955   3.473   5.035   8.429  1.0772  0.5266  3.1645
  138SAPE     N14956   1.693   5.704  10.608  0.6851 -0.3022  0.4828
  138SAPE   HN114957   1.666   5.607  10.583 -0.7826  0.2921 -0.4578
  138SAPE   HN214958   1.766   5.717  10.680  2.7199  1.3751 -1.7385
  138SAPE   HN314959   1.604   5.743  10.647 -0.3775 -1.5175 -0.6022
  138SAPE   C1214960   1.719   5.795  10.491  0.0769 -0.0411 -0.2559
  138SAPE  H12A14961   1.625   5.824  10.438 -1.2989 -0.8541  1.6324
  138SAPE  H12B14962   1.763   5.723  10.419 -1.8197 -1.8892  0.3252
  138SAPE   C1114963   1.810   5.913  10.535 -0.0852 -0.5080 -0.1971
  138SAPE  H11A14964   1.825   5.986  10.453 -1.9250 -1.9826 -1.9238
  138SAPE  H11B14965   1.908   5.864  10.556  0.7353  0.7666 -0.9510
  138SAPE     P14966   1.800   6.109  10.710 -0.2325  0.0623  0.0955
  138SAPE   O1314967   1.773   6.113  10.858  0.5157  0.3280  0.7435
  138SAPE   O1414968   1.939   6.147  10.673 -0.4223  0.0749 -0.0707
  138SAPE   O1214969   1.757   5.978  10.653 -0.6813  0.2936  0.2740
  138SAPE   O1114970   1.696   6.208  10.649  0.5238  0.1212  0.0815
  138SAPE    C114971   1.551   6.199  10.642 -0.2097 -0.3301  0.2914
  138SAPE    HA14972   1.513   6.151  10.735  2.4832 -2.0298  0.6221
  138SAPE    HB14973   1.509   6.302  10.644 -0.9001 -0.5794 -0.8972
  138SAPE    C214974   1.499   6.124  10.517 -0.6151  0.3296 -0.1115
  138SAPE    HS14975   1.547   6.024  10.522  1.6256  1.3061 -0.7776
  138SAPE   O2114976   1.537   6.204  10.394 -0.3115 -0.3691  0.0800
  138SAPE   C2114977   1.567   6.132  10.296  0.2264  0.1481  0.3770
  138SAPE   O2214978   1.552   6.012  10.278 -0.0024  0.5461  0.4050
  138SAPE   C2214979   1.594   6.229  10.177  0.0479 -0.2160 -0.7984
  138SAPE   H2R14980   1.499   6.283  10.154  1.4052  3.6287  1.5889
  138SAPE   H2S14981   1.649   6.319  10.212  0.5649 -1.6536  2.5120
  138SAPE    C314982   1.343   6.127  10.530  0.0089 -0.4203 -0.6133
  138SAPE    HX14983   1.306   6.232  10.534 -0.3694 -0.5854  0.6535
  138SAPE    HY14984   1.312   6.084  10.628 -0.5295 -0.6110 -0.8662
  138SAPE   O3114985   1.272   6.057  10.421  0.1832 -0.0361 -0.5260
  138SAPE   C3114986   1.278   5.927  10.430 -0.5414  1.4694 -0.2600
  138SAPE   O3214987   1.342   5.865  10.517  0.2774  0.0190  0.3790
  138SAPE   C3214988   1.199   5.864  10.317 -0.0667  0.1072 -0.4862
  138SAPE   H2X14989   1.100   5.912  10.304  0.1025  0.4578 -0.4773
  138SAPE   H2Y14990   1.167   5.762  10.350 -0.2674  0.2524 -0.2278
  138SAPE   C2314991   1.656   6.155  10.063  0.4849  0.8068  0.5286
  138SAPE   H3R14992   1.581   6.102  10.001  2.4943 -1.7459  0.1207
  138SAPE   H3S14993   1.716   6.067  10.093 -1.4145 -1.0680 -0.9495
  138SAPE   C2414994   1.753   6.230   9.984  0.0338 -0.0681  0.8787
  138SAPE   H4R14995   1.824   6.158   9.937 -0.9467 -2.4242  2.7790
  138SAPE   H4S14996   1.816   6.285  10.057 -0.6671  0.7505  0.8767
  138SAPE   C2514997   1.697   6.323   9.879  0.8232  0.0398 -1.2463
  138SAPE   H5R14998   1.615   6.382   9.923  2.4861  2.1207 -0.7548
  138SAPE   C2614999   1.719   6.336   9.747  0.6812  0.0147  0.0520
  138SAPE   H6R15000   1.662   6.414   9.695 -2.5326  1.2399  4.7390
  138SAPE   C2715001   1.800   6.252   9.657  0.1123  0.4329  0.8539
  138SAPE   H7R15002   1.740   6.170   9.611  1.3236 -0.1220  0.2242
  138SAPE   H7S15003   1.883   6.202   9.711  0.8847  1.3508  0.5393
  138SAPE   C2815004   1.858   6.345   9.550 -0.6037 -0.1417  0.0905
  138SAPE   H8R15005   1.918   6.426   9.594  1.5681 -0.2467 -2.4321
  138SAPE   C2915006   1.843   6.343   9.418  0.3548  0.6605  0.2125
  138SAPE   H9R15007   1.905   6.395   9.344  1.3997  0.4367  0.9026
  138SAPE  C21015008   1.746   6.251   9.346 -0.2649 -0.3917 -0.1344
  138SAPE  H10R15009   1.734   6.147   9.385 -2.1307 -1.0677 -2.2972
  138SAPE  H10S15010   1.791   6.228   9.247 -1.9393  0.1763 -1.0764
  138SAPE  C21115011   1.610   6.322   9.335  0.3850 -0.1149  0.8058
  138SAPE  H11R15012   1.549   6.281   9.417 -1.4701  0.0514 -0.4530
  138SAPE  C21215013   1.563   6.419   9.253  0.1817  0.1515 -0.0596
  138SAPE  H12R15014   1.459   6.448   9.273 -0.3590 -0.4239 -1.8555
  138SAPE  C21315015   1.636   6.486   9.137  0.1352 -0.5161 -0.4314
  138SAPE  H13R15016   1.744   6.462   9.136 -0.2232 -2.2847 -0.1608
  138SAPE  H13S15017   1.628   6.597   9.148  0.6763 -0.5930  0.8418
  138SAPE  C21415018   1.580   6.448   9.005  0.1685  0.6677  0.5350
  138SAPE  H14R15019   1.491   6.385   9.014  0.3604  0.7111  5.7077
  138SAPE  C21515020   1.628   6.491   8.886  0.1710 -1.0618  0.3805
  138SAPE  H15R15021   1.575   6.462   8.794  2.2808 -0.6571 -1.0184
  138SAPE  C21615022   1.735   6.590   8.858 -0.4164  0.1423  0.7289
  138SAPE  H16R15023   1.812   6.585   8.938 -0.3461  3.1690  0.9763
  138SAPE  H16S15024   1.697   6.694   8.862  1.0868  0.6756  2.1329
  138SAPE  C21715025   1.807   6.540   8.728 -0.4900  0.4418  0.4218
  138SAPE  H17R15026   1.804   6.433   8.699 -0.8290  1.2215 -2.8100
  138SAPE  H17S15027   1.914   6.568   8.737 -0.3133 -0.0669 -0.0177
  138SAPE  C21815028   1.763   6.623   8.608 -0.0736  0.0191  0.5617
  138SAPE  H18R15029   1.848   6.634   8.538  0.1039  0.9874  0.9183
  138SAPE  H18S15030   1.738   6.729   8.631 -0.2928  0.3707 -1.1584
  138SAPE  C21915031   1.652   6.566   8.523 -0.1144 -0.5192  0.6249
  138SAPE  H19R15032   1.564   6.541   8.585 -2.7136  3.1471 -1.1805
  138SAPE  H19S15033   1.694   6.478   8.470  0.4501 -1.5039  2.6109
  138SAPE  C22015034   1.597   6.668   8.428  0.1348 -0.9058 -0.6301
  138SAPE  H20R15035   1.670   6.693   8.349 -0.4086  1.1549 -0.5438
  138SAPE  H20S15036   1.574   6.765   8.478 -2.0159 -0.9813 -1.3756
  138SAPE  H20T15037   1.512   6.634   8.365 -0.6142 -1.1524  0.4863
  138SAPE   C3315038   1.279   5.868  10.183  0.2655  0.0191 -1.0026
  138SAPE   H3X15039   1.372   5.808  10.187  0.6978  0.6160 -1.9567
  138SAPE   H3Y15040   1.300   5.973  10.155 -0.0065  0.4225  0.2448
  138SAPE   C3415041   1.201   5.799  10.068 -0.0622  0.2303  0.4257
  138SAPE   H4X15042   1.116   5.868  10.048 -0.3097 -0.1742  0.0732
  138SAPE   H4Y15043   1.162   5.703  10.108 -0.2314  0.1377  0.0437
  138SAPE   C3515044   1.282   5.763   9.944  0.0767  0.1664  0.6384
  138SAPE   H5X15045   1.209   5.721   9.872 -0.6909  0.6621  1.1187
  138SAPE   H5Y15046   1.363   5.693   9.973  0.4991  0.6057  0.5446
  138SAPE   C3615047   1.351   5.883   9.878  0.9949  0.1170 -0.6005
  138SAPE   H6X15048   1.417   5.928   9.955  0.2225 -1.2213  0.9046
  138SAPE   H6Y15049   1.280   5.965   9.855  2.1015  0.7157 -2.0287
  138SAPE   C3715050   1.428   5.836   9.757 -0.4392 -0.0628  0.3030
  138SAPE   H7X15051   1.364   5.800   9.674 -0.4949  0.2942  0.1906
  138SAPE   H7Y15052   1.507   5.759   9.767  1.7338  1.3491 -3.8445
  138SAPE   C3815053   1.495   5.963   9.695  0.8221 -0.2362 -0.4626
  138SAPE   H8X15054   1.557   6.016   9.770  1.9183 -0.4914 -1.1561
  138SAPE   H8Y15055   1.415   6.022   9.645  1.1269 -1.3956 -2.4328
  138SAPE   C3915056   1.586   5.922   9.572 -0.2895  0.1940 -0.8243
  138SAPE   H9X15057   1.585   5.811   9.568 -0.8931  0.1564 -0.0122
  138SAPE   H9Y15058   1.689   5.963   9.578 -0.0335  0.1106 -3.4300
  138SAPE  C31015059   1.529   5.970   9.441 -0.5228  0.3838  0.2198
  138SAPE  H10X15060   1.601   5.950   9.358  1.3751 -2.3195  2.3223
  138SAPE  H10Y15061   1.510   6.080   9.445 -0.0972  0.4669  0.0253
  138SAPE  C31115062   1.397   5.907   9.398  0.5998  1.1133 -0.3649
  138SAPE  H11X15063   1.300   5.943   9.438 -0.5375  0.7603 -2.6504
  138SAPE  H11Y15064   1.397   5.797   9.414  1.2974  1.0497 -0.7854
  138SAPE  C31215065   1.369   5.898   9.247  0.2343  1.0468  0.6347
  138SAPE  H12X15066   1.272   5.845   9.235  0.8021  0.1773 -0.3943
  138SAPE  H12Y15067   1.446   5.835   9.196  1.0963 -0.0385  3.1352
  138SAPE  C31315068   1.388   6.033   9.177  0.6311  0.4049  0.2508
  138SAPE  H13X15069   1.492   6.067   9.191  0.7010 -0.3449  1.7209
  138SAPE  H13Y15070   1.309   6.099   9.219  0.0672  0.8201 -1.3919
  138SAPE  C31415071   1.369   6.042   9.018  0.3876 -0.2611 -0.6224
  138SAPE  H14X15072   1.376   6.148   8.983 -0.0280  0.0224  0.1330
  138SAPE  H14Y15073   1.261   6.015   9.013 -0.2463  2.1003 -1.0330
  138SAPE  C31515074   1.455   5.945   8.933 -0.7070  0.0078  0.0467
  138SAPE  H15X15075   1.440   5.992   8.834 -0.5042  1.0803  0.5082
  138SAPE  H15Y15076   1.403   5.847   8.937 -0.7597 -0.0296 -1.3687
  138SAPE  C31615077   1.605   5.937   8.969  0.5773  0.3658 -0.1828
  138SAPE  H16X15078   1.652   5.871   8.893  0.1211  0.8085 -0.8511
  138SAPE  H16Y15079   1.614   5.889   9.069 -0.9331 -0.4270 -0.3848
  138SAPE  C31715080   1.689   6.064   8.974 -0.6934  0.1700 -1.0550
  138SAPE  H17X15081   1.647   6.138   9.046 -0.6071 -0.7407 -0.0383
  138SAPE  H17Y15082   1.685   6.114   8.875 -0.0774  2.6631  0.0967
  138SAPE  C31815083   1.839   6.034   9.009  0.6370 -0.1354  0.1210
  138SAPE  H18X15084   1.858   6.023   9.118  2.3757  1.6118  0.0611
  138SAPE  H18Y15085   1.897   6.123   8.978 -1.4512  0.8637 -1.1992
  138SAPE  H18Z15086   1.872   5.945   8.952 -1.0833 -0.1316 -0.9784
  139SAPE     N15087   6.599   4.351  10.673  0.2433  0.5140  0.3500
  139SAPE   HN115088   6.537   4.383  10.596 -0.4518 -0.3115  0.5546
  139SAPE   HN215089   6.692   4.341  10.626 -0.0614  0.2620 -0.2042
  139SAPE   HN315090   6.558   4.259  10.696 -1.9981  1.1835 -0.7105
  139SAPE   C1215091   6.579   4.432  10.795 -0.5390 -0.0214  0.5519
  139SAPE  H12A15092   6.616   4.381  10.887  0.3439  0.2694  0.3721
  139SAPE  H12B15093   6.472   4.458  10.804 -0.4083  0.7476 -0.0296
  139SAPE   C1115094   6.657   4.568  10.776  0.2428 -0.0323  0.2280
  139SAPE  H11A15095   6.764   4.543  10.764  0.0456 -1.6498  1.4400
  139SAPE  H11B15096   6.647   4.627  10.869 -1.0113  0.7555 -0.3783
  139SAPE     P15097   6.681   4.769  10.613 -0.2099 -0.0376  0.2416
  139SAPE   O1315098   6.582   4.852  10.536  0.0380  0.2424  0.2812
  139SAPE   O1415099   6.746   4.844  10.725 -0.1023  0.7793 -0.3273
  139SAPE   O1215100   6.596   4.647  10.669  0.0428  0.3160 -0.5597
  139SAPE   O1115101   6.791   4.710  10.518  0.7669 -0.2874 -0.0027
  139SAPE    C115102   6.759   4.652  10.391  0.4542  0.3798  0.1288
  139SAPE    HA15103   6.668   4.588  10.398  0.9624 -0.2012  1.8253
  139SAPE    HB15104   6.744   4.725  10.309 -0.9085  0.0341  0.0435
  139SAPE    C215105   6.872   4.550  10.352  0.0094  0.4598 -0.3336
  139SAPE    HS15106   6.913   4.492  10.438 -1.0002  2.4902  1.6341
  139SAPE   O2115107   6.977   4.635  10.296 -0.0742 -0.4773  0.2463
  139SAPE   C2115108   7.095   4.577  10.279  0.3481 -0.2973 -0.2490
  139SAPE   O2215109   7.125   4.472  10.330 -0.3085  0.2538  0.0145
  139SAPE   C2215110   7.176   4.663  10.181 -0.2829  0.4633  0.4566
  139SAPE   H2R15111   7.107   4.676  10.095 -0.4526 -0.7713  0.3842
  139SAPE   H2S15112   7.188   4.762  10.230  0.0952 -0.7517  3.0017
  139SAPE    C315113   6.808   4.453  10.247 -0.8579 -0.4760 -0.3383
  139SAPE    HX15114   6.733   4.393  10.303  0.3639 -2.8850 -1.1188
  139SAPE    HY15115   6.878   4.380  10.201  0.8504  1.2392 -0.5774
  139SAPE   O3115116   6.737   4.528  10.144 -0.6397 -0.3050  0.5614
  139SAPE   C3115117   6.800   4.541  10.029  0.4525 -0.0548  0.5467
  139SAPE   O3215118   6.900   4.479   9.999 -0.5058 -0.0574  0.5813
  139SAPE   C3215119   6.737   4.654   9.950  0.4251  0.5706 -0.2890
  139SAPE   H2X15120   6.783   4.749   9.987  1.1048 -0.2697  1.1161
  139SAPE   H2Y15121   6.628   4.662   9.968  0.7205  1.9234  1.1683
  139SAPE   C2315122   7.308   4.601  10.142  0.1337  0.3922  0.6977
  139SAPE   H3R15123   7.364   4.572  10.234  0.5162 -0.2811  0.2568
  139SAPE   H3S15124   7.371   4.680  10.096 -1.0592  1.2214  0.4427
  139SAPE   C2415125   7.285   4.474  10.057  0.0304  0.1203 -0.4884
  139SAPE   H4R15126   7.193   4.493   9.997 -0.8864  1.5031  1.2706
  139SAPE   H4S15127   7.250   4.395  10.127  1.5316 -1.3257 -1.3033
  139SAPE   C2515128   7.401   4.412   9.982  0.3091 -0.0933  0.3783
  139SAPE   H5R15129   7.500   4.417  10.030  0.1562  0.6451  0.6354
  139SAPE   C2615130   7.410   4.355   9.860 -0.0170 -1.3387 -0.0419
  139SAPE   H6R15131   7.503   4.302   9.833  1.2558  0.5561  0.4379
  139SAPE   C2715132   7.293   4.350   9.759 -0.0593  0.0698  0.0136
  139SAPE   H7R15133   7.200   4.369   9.815 -0.4035  0.4469 -0.6725
  139SAPE   H7S15134   7.284   4.245   9.722 -0.0133  0.7332 -2.0231
  139SAPE   C2815135   7.292   4.450   9.653 -0.0089 -1.1203  0.0539
  139SAPE   H8R15136   7.230   4.540   9.666 -1.2519 -2.2073  2.3726
  139SAPE   C2915137   7.370   4.447   9.549  0.3031  0.6127  0.2259
  139SAPE   H9R15138   7.370   4.529   9.476  1.8631  1.5969  1.2668
  139SAPE  C21015139   7.468   4.336   9.513  0.5135 -0.2871 -0.4599
  139SAPE  H10R15140   7.450   4.282   9.418 -0.8826 -1.4940  0.4433
  139SAPE  H10S15141   7.466   4.262   9.596 -0.2849  1.8611  1.5529
  139SAPE  C21115142   7.603   4.402   9.510  0.1647 -0.1263  0.0853
  139SAPE  H11R15143   7.651   4.425   9.606  0.5889 -2.7247  0.5625
  139SAPE  C21215144   7.681   4.438   9.408  0.2044 -0.6889 -0.2269
  139SAPE  H12R15145   7.775   4.492   9.426  0.4762 -1.3956  0.5221
  139SAPE  C21315146   7.639   4.430   9.265 -0.5119  0.3032  0.0469
  139SAPE  H13R15147   7.577   4.340   9.245  0.6590 -0.5623  0.1567
  139SAPE  H13S15148   7.736   4.417   9.212 -0.2541 -3.2186  1.1049
  139SAPE  C21415149   7.574   4.559   9.223 -0.2137  0.0058 -0.2087
  139SAPE  H14R15150   7.564   4.633   9.303 -0.4630 -0.5718  0.3052
  139SAPE  C21515151   7.509   4.573   9.106  0.4335  0.1173  0.6605
  139SAPE  H15R15152   7.458   4.664   9.074 -0.2685  0.0459  1.5068
  139SAPE  C21615153   7.502   4.478   8.987  0.1072  0.0377 -0.0133
  139SAPE  H16R15154   7.404   4.486   8.937  1.3038 -0.1707 -2.5316
  139SAPE  H16S15155   7.508   4.370   9.010  0.4287 -0.7472 -3.2869
  139SAPE  C21715156   7.614   4.512   8.882 -0.5513 -0.8152  0.1889
  139SAPE  H17R15157   7.709   4.523   8.937  0.9836  2.9340 -2.7650
  139SAPE  H17S15158   7.597   4.613   8.838 -0.6190 -0.9705 -0.1478
  139SAPE  C21815159   7.643   4.400   8.780 -0.0575  0.2840  0.5167
  139SAPE  H18R15160   7.559   4.416   8.709  1.0594  0.6319 -0.7448
  139SAPE  H18S15161   7.624   4.298   8.820 -3.2911  0.3971 -0.4125
  139SAPE  C21915162   7.780   4.401   8.711  0.2215 -0.2304 -0.3281
  139SAPE  H19R15163   7.844   4.384   8.800 -0.6799 -0.5154  0.2773
  139SAPE  H19S15164   7.806   4.494   8.656 -1.1743  0.0740 -0.5094
  139SAPE  C22015165   7.813   4.278   8.620  0.7236 -0.7153 -0.6932
  139SAPE  H20R15166   7.745   4.287   8.533 -1.0790 -1.6685  0.5591
  139SAPE  H20S15167   7.791   4.183   8.673  0.5214 -1.6564 -2.3799
  139SAPE  H20T15168   7.921   4.284   8.592  1.2872 -3.6837  0.4527
  139SAPE   C3315169   6.760   4.629   9.807  0.3159  0.4436  0.8803
  139SAPE   H3X15170   6.712   4.539   9.763  0.7370  1.1858 -1.2012
  139SAPE   H3Y15171   6.867   4.602   9.794  0.6250  1.5544  1.0035
  139SAPE   C3415172   6.725   4.745   9.718  0.3805  0.4500 -0.0520
  139SAPE   H4X15173   6.786   4.824   9.767  2.5940 -1.8878  1.1683
  139SAPE   H4Y15174   6.617   4.770   9.730  0.3531 -0.3192  1.5107
  139SAPE   C3515175   6.763   4.718   9.572  0.7769 -0.4511  0.2021
  139SAPE   H5X15176   6.707   4.633   9.528  3.4353 -1.8460 -0.6699
  139SAPE   H5Y15177   6.867   4.678   9.574  1.0867  0.0388 -2.4708
  139SAPE   C3615178   6.746   4.835   9.477  0.0498 -0.4157  0.4975
  139SAPE   H6X15179   6.813   4.916   9.512  0.7091 -1.3487  1.4617
  139SAPE   H6Y15180   6.640   4.866   9.488 -0.3502 -1.6685  0.3888
  139SAPE   C3715181   6.792   4.799   9.333  0.2525  0.9002  0.3340
  139SAPE   H7X15182   6.716   4.734   9.285  0.1496  2.6953 -2.1570
  139SAPE   H7Y15183   6.892   4.753   9.314 -0.6743 -0.4385 -1.6427
  139SAPE   C3815184   6.784   4.926   9.238 -0.2296  0.2212 -0.1718
  139SAPE   H8X15185   6.834   5.017   9.278 -1.4461  0.3971  1.0108
  139SAPE   H8Y15186   6.676   4.949   9.242 -0.2524  0.3856 -1.3424
  139SAPE   C3915187   6.830   4.883   9.101 -0.0707 -0.6155 -0.3428
  139SAPE   H9X15188   6.783   4.787   9.069 -1.3537 -0.4641  0.9527
  139SAPE   H9Y15189   6.941   4.876   9.097 -0.0864 -1.4454  0.3360
  139SAPE  C31015190   6.791   4.986   8.992 -0.2048 -0.1431 -0.4158
  139SAPE  H10X15191   6.833   5.087   9.010  2.7687 -1.0142 -1.8131
  139SAPE  H10Y15192   6.682   5.004   9.008 -0.1227  1.0919 -1.1708
  139SAPE  C31115193   6.819   4.940   8.849  0.4355  0.3001 -0.4381
  139SAPE  H11X15194   6.763   4.845   8.838  1.2016 -0.1221 -0.8065
  139SAPE  H11Y15195   6.929   4.925   8.839  0.3568 -0.0482 -0.7976
  139SAPE  C31215196   6.771   5.039   8.744 -0.2530  0.2377  0.1327
  139SAPE  H12X15197   6.794   5.142   8.781 -0.0323  0.0925  0.3938
  139SAPE  H12Y15198   6.661   5.034   8.726 -0.3216  1.8616 -0.0527
  139SAPE  C31315199   6.850   5.016   8.617  0.1963  0.2650  0.7775
  139SAPE  H13X15200   6.828   4.912   8.586  0.2025  0.6284 -0.5130
  139SAPE  H13Y15201   6.959   5.017   8.636  0.3001  2.6107  0.4353
  139SAPE  C31415202   6.830   5.115   8.500  0.5750  0.4036 -0.2833
  139SAPE  H14X15203   6.879   5.213   8.517 -1.0702  1.0482  1.0129
  139SAPE  H14Y15204   6.720   5.129   8.489 -0.0152 -3.0464  0.1096
  139SAPE  C31515205   6.886   5.060   8.369  0.0665 -0.6760  0.2855
  139SAPE  H15X15206   6.828   4.973   8.332 -1.7163  0.8711 -0.7331
  139SAPE  H15Y15207   6.988   5.020   8.387  0.5612 -1.9629 -4.1036
  139SAPE  C31615208   6.865   5.163   8.257 -0.3415 -0.6488  0.1023
  139SAPE  H16X15209   6.755   5.155   8.241 -1.0272  1.1987  3.0547
  139SAPE  H16Y15210   6.902   5.264   8.286 -0.8603 -0.5625  0.4825
  139SAPE  C31715211   6.939   5.126   8.133  0.1099  0.0743 -0.2455
  139SAPE  H17X15212   6.928   5.017   8.117 -1.6226  0.2847 -0.6582
  139SAPE  H17Y15213   7.046   5.143   8.159  0.3573 -1.4849 -0.1518
  139SAPE  C31815214   6.918   5.206   8.006 -0.2139 -0.3996  0.3027
  139SAPE  H18X15215   6.987   5.171   7.926 -2.7659  1.8800 -3.1553
  139SAPE  H18Y15216   6.928   5.316   8.014 -2.5542  0.1187 -2.4613
  139SAPE  H18Z15217   6.821   5.186   7.956 -0.6939 -0.9048  1.3901
  140SAPE     N15218   1.803   0.469  10.563  0.2779 -0.3670  0.2254
  140SAPE   HN115219   1.733   0.503  10.633 -0.4631 -0.4779 -0.4436
  140SAPE   HN215220   1.888   0.529  10.564  1.0621 -1.3646 -1.6074
  140SAPE   HN315221   1.756   0.478  10.471  1.2544  0.0909 -0.2454
  140SAPE   C1215222   1.828   0.322  10.585  0.2073  0.5829 -0.1699
  140SAPE  H12A15223   1.883   0.286  10.496  2.0585 -2.0406  1.8559
  140SAPE  H12B15224   1.728   0.276  10.598 -0.2871  1.6686 -0.0242
  140SAPE   C1115225   1.908   0.289  10.715 -0.1256  0.0450  0.2977
  140SAPE  H11A15226   1.930   0.180  10.717 -0.4418 -0.0110  1.8845
  140SAPE  H11B15227   1.837   0.304  10.799 -1.2952 -3.4963  0.1148
  140SAPE     P15228   2.166   0.296  10.789  0.2702  0.3325  0.1305
  140SAPE   O1315229   2.274   0.395  10.803  0.1949  0.3918  0.2019
  140SAPE   O1415230   2.140   0.210  10.906  0.4052  0.7470  0.0935
  140SAPE   O1215231   2.032   0.365  10.732  0.4093 -0.3202 -0.2767
  140SAPE   O1115232   2.195   0.198  10.664 -0.3180 -0.0584  0.5632
  140SAPE    C115233   2.224   0.259  10.536  0.4738  0.4573  0.1710
  140SAPE    HA15234   2.128   0.302  10.499  0.0883  1.0614  1.8172
  140SAPE    HB15235   2.297   0.343  10.543 -0.8697  1.6546  0.2152
  140SAPE    C215236   2.274   0.158  10.432 -0.0429  0.5003  1.1349
  140SAPE    HS15237   2.315   0.212  10.345 -0.9042 -2.0205 -0.9867
  140SAPE   O2115238   2.172   0.057  10.396  0.3637  0.1684 -0.1717
  140SAPE   C2115239   2.136   0.045  10.271 -0.6539 -0.8349  0.3573
  140SAPE   O2215240   2.180   0.112  10.178  0.2166  1.0004  0.1496
  140SAPE   C2215241   2.022  -0.054  10.267  0.1705  0.3443 -0.1770
  140SAPE   H2R15242   1.951  -0.015  10.344 -0.5183  0.4216 -0.8434
  140SAPE   H2S15243   1.965  -0.040  10.173 -0.3374  2.0159  0.3463
  140SAPE    C315244   2.392   0.079  10.487 -0.0799  0.4547 -0.3999
  140SAPE    HX15245   2.369   0.035  10.586  1.0192  2.7043  0.9178
  140SAPE    HY15246   2.484   0.140  10.494  2.6845 -3.4179  0.2335
  140SAPE   O3115247   2.429  -0.028  10.392  0.1046  0.4235 -0.3811
  140SAPE   C3115248   2.465  -0.147  10.440 -0.2627 -1.3234  0.4650
  140SAPE   O3215249   2.465  -0.177  10.559 -0.0491 -0.3222 -0.1271
  140SAPE   C3215250   2.490  -0.242  10.318  0.2735 -0.7535 -0.1194
  140SAPE   H2X15251   2.580  -0.199  10.269  0.3894 -1.6386 -0.7173
  140SAPE   H2Y15252   2.401  -0.230  10.253 -0.2437 -0.7243  0.5822
  140SAPE   C2315253   2.063  -0.199  10.304 -0.7707  0.1557 -0.1327
  140SAPE   H3R15254   1.972  -0.251  10.341 -1.0815  1.8191  1.5935
  140SAPE   H3S15255   2.135  -0.209  10.388 -0.7791  1.9213  0.1098
  140SAPE   C2415256   2.112  -0.275  10.176 -0.1898 -0.6023  0.0165
  140SAPE   H4R15257   2.143  -0.376  10.208  0.9967 -0.3067 -0.1532
  140SAPE   H4S15258   2.206  -0.228  10.141 -0.3112  1.0543  1.7176
  140SAPE   C2515259   2.005  -0.295  10.066  0.2727  0.4349 -0.9337
  140SAPE   H5R15260   1.937  -0.379  10.086  0.9268 -0.6907 -3.1249
  140SAPE   C2615261   1.995  -0.239   9.943 -0.5127  0.0953  0.6741
  140SAPE   H6R15262   1.914  -0.258   9.871  0.5340  0.1998 -0.5684
  140SAPE   C2715263   2.088  -0.129   9.887 -0.4508  0.6702  0.2610
  140SAPE   H7R15264   2.165  -0.114   9.965  1.5291 -0.3697 -1.3996
  140SAPE   H7S15265   2.032  -0.035   9.867  0.3193  1.4521  1.6237
  140SAPE   C2815266   2.164  -0.163   9.760 -0.1353 -0.2213  0.4949
  140SAPE   H8R15267   2.264  -0.202   9.787 -0.1059 -0.1510  0.4878
  140SAPE   C2915268   2.130  -0.156   9.625 -0.7723 -0.4141 -0.7595
  140SAPE   H9R15269   2.199  -0.204   9.553  0.6437  1.3433 -0.6533
  140SAPE  C21015270   1.993  -0.112   9.584  0.9078 -0.2111  0.2810
  140SAPE  H10R15271   1.919  -0.089   9.664 -1.2775 -2.8567 -0.8293
  140SAPE  H10S15272   1.940  -0.196   9.535  1.2774 -0.5655  0.4817
  140SAPE  C21115273   2.024   0.003   9.487  0.2732  0.3458 -0.2577
  140SAPE  H11R15274   2.047   0.098   9.537  1.5088  0.7361 -1.5203
  140SAPE  C21215275   2.014   0.003   9.358  0.4405  0.0842  0.9044
  140SAPE  H12R15276   2.039   0.089   9.294  0.0482 -1.6600 -1.7838
  140SAPE  C21315277   1.980  -0.110   9.269 -0.4870  0.5310  0.1379
  140SAPE  H13R15278   1.927  -0.194   9.319 -0.2201 -1.2104 -2.3397
  140SAPE  H13S15279   2.075  -0.160   9.242 -1.4193 -0.8573 -0.6716
  140SAPE  C21415280   1.903  -0.073   9.149 -0.0951 -0.6599 -0.3899
  140SAPE  H14R15281   1.795  -0.096   9.154  0.1897 -1.8094  1.0217
  140SAPE  C21515282   1.953  -0.035   9.030 -0.5039 -0.1708 -0.4863
  140SAPE  H15R15283   1.892  -0.023   8.939  0.0795  0.5981 -0.7922
  140SAPE  C21615284   2.099  -0.018   8.995  0.8073  0.1639  0.2974
  140SAPE  H16R15285   2.177  -0.057   9.063  0.1240  0.1313  1.0798
  140SAPE  H16S15286   2.117   0.091   9.003  0.0144  0.3481 -0.2580
  140SAPE  C21715287   2.136  -0.075   8.859  0.1337  0.2168  0.4916
  140SAPE  H17R15288   2.091  -0.175   8.840 -0.2174 -0.1730  3.0587
  140SAPE  H17S15289   2.247  -0.081   8.854  0.1049 -0.3396  0.3898
  140SAPE  C21815290   2.103   0.005   8.736  0.1766  0.1144  0.9858
  140SAPE  H18R15291   2.156   0.103   8.745 -1.4958  0.8877  4.3819
  140SAPE  H18S15292   1.994   0.030   8.739  0.2097  0.4106  0.0608
  140SAPE  C21915293   2.127  -0.068   8.608  0.1166 -0.2833 -0.4717
  140SAPE  H19R15294   2.047  -0.144   8.594 -2.0106  1.7467  0.1413
  140SAPE  H19S15295   2.219  -0.130   8.621  0.7055  0.6528 -0.0786
  140SAPE  C22015296   2.144   0.026   8.483 -0.4439 -0.5807  0.4128
  140SAPE  H20R15297   2.224   0.099   8.508  0.7566 -0.4813 -3.1145
  140SAPE  H20S15298   2.045   0.075   8.474 -0.0996  1.0083  3.6972
  140SAPE  H20T15299   2.172  -0.020   8.386 -0.4620  2.0662 -0.9316
  140SAPE   C3315300   2.493  -0.391  10.343 -0.1343  0.2902 -0.5296
  140SAPE   H3X15301   2.393  -0.421  10.383 -0.0035  0.4019 -0.1175
  140SAPE   H3Y15302   2.575  -0.415  10.414  0.3139  0.8809 -0.8448
  140SAPE   C3415303   2.530  -0.474  10.223  0.1592  0.0363 -0.5887
  140SAPE   H4X15304   2.453  -0.474  10.142  0.6461 -1.8760 -1.1074
  140SAPE   H4Y15305   2.533  -0.579  10.259 -0.7948 -0.2424 -1.2534
  140SAPE   C3515306   2.667  -0.446  10.172  0.0004  0.1074  1.1729
  140SAPE   H5X15307   2.731  -0.457  10.262  0.4694  2.4271  1.1844
  140SAPE   H5Y15308   2.686  -0.343  10.134 -0.8373  0.6367  2.1497
  140SAPE   C3615309   2.694  -0.556  10.062 -0.1576 -0.6316  0.0174
  140SAPE   H6X15310   2.651  -0.651  10.102  1.7299 -1.9555 -0.9479
  140SAPE   H6Y15311   2.802  -0.551  10.041 -0.5081  0.1423 -1.8147
  140SAPE   C3715312   2.598  -0.558   9.935  0.8922  0.2878 -0.1543
  140SAPE   H7X15313   2.494  -0.576   9.967  0.2310  0.7821 -1.9145
  140SAPE   H7Y15314   2.627  -0.652   9.883  0.3361  0.3597 -0.5974
  140SAPE   C3815315   2.606  -0.426   9.850  0.3319 -0.4124  0.2287
  140SAPE   H8X15316   2.575  -0.338   9.911 -1.4322 -0.5604 -0.4161
  140SAPE   H8Y15317   2.545  -0.416   9.758  0.0703  1.2775  0.5554
  140SAPE   C3915318   2.754  -0.402   9.805  1.0493  0.9291  0.4257
  140SAPE   H9X15319   2.816  -0.405   9.898  0.2166  1.7647  1.0210
  140SAPE   H9Y15320   2.770  -0.305   9.753 -0.1780  1.3880  0.8740
  140SAPE  C31015321   2.807  -0.515   9.713  0.6384  0.6793  0.8076
  140SAPE  H10X15322   2.798  -0.618   9.754  1.1953  0.6921  0.9697
  140SAPE  H10Y15323   2.917  -0.501   9.699  0.6149 -0.5426 -1.0464
  140SAPE  C31115324   2.750  -0.511   9.571 -0.0889 -0.6777 -0.1455
  140SAPE  H11X15325   2.831  -0.534   9.499  1.0328  0.8863  0.5707
  140SAPE  H11Y15326   2.709  -0.412   9.543 -0.8867 -0.9661 -0.0176
  140SAPE  C31215327   2.646  -0.618   9.544  0.0226  0.0573 -0.7070
  140SAPE  H12X15328   2.558  -0.603   9.610  2.6088  0.9711  2.8079
  140SAPE  H12Y15329   2.681  -0.718   9.579  0.2875  0.7824  1.1983
  140SAPE  C31315330   2.611  -0.630   9.395  0.5951  1.3991 -0.3768
  140SAPE  H13X15331   2.587  -0.527   9.361 -2.6527 -0.2617 -3.7054
  140SAPE  H13Y15332   2.517  -0.688   9.389  0.7539  1.1331 -0.3109
  140SAPE  C31415333   2.694  -0.708   9.296 -0.2812 -0.4791  0.1785
  140SAPE  H14X15334   2.711  -0.812   9.330 -0.1547 -0.0407  1.5109
  140SAPE  H14Y15335   2.793  -0.661   9.276 -0.2358 -0.5405  0.2581
  140SAPE  C31515336   2.616  -0.721   9.160 -0.6076  0.2246  0.0287
  140SAPE  H15X15337   2.586  -0.616   9.136  1.9814  1.2280  0.7929
  140SAPE  H15Y15338   2.520  -0.777   9.170  0.0544 -0.7397  1.3191
  140SAPE  C31615339   2.694  -0.782   9.046  0.2821  0.1758  0.2806
  140SAPE  H16X15340   2.745  -0.875   9.078 -0.8339 -0.1795  1.0673
  140SAPE  H16Y15341   2.775  -0.706   9.037  0.1211  0.4919  1.4260
  140SAPE  C31715342   2.604  -0.804   8.922 -1.2171 -0.1208 -1.2087
  140SAPE  H17X15343   2.584  -0.705   8.875 -1.6581 -0.3363 -1.4776
  140SAPE  H17Y15344   2.511  -0.860   8.946 -1.0842 -0.5725 -1.7476
  140SAPE  C31815345   2.683  -0.895   8.825 -0.4473 -0.0820 -0.1105
  140SAPE  H18X15346   2.781  -0.854   8.793 -0.7340  0.5998 -0.1286
  140SAPE  H18Y15347   2.609  -0.919   8.745  0.0564 -1.1033 -0.2940
  140SAPE  H18Z15348   2.704  -0.991   8.877 -0.1396  0.5155  0.8900
  141SAPE     N15349   1.341   1.765  10.477  0.3420  0.1344 -0.2445
  141SAPE   HN115350   1.412   1.695  10.446 -1.5100 -2.1620  0.4153
  141SAPE   HN215351   1.254   1.718  10.446  1.2743 -1.4361 -0.5679
  141SAPE   HN315352   1.335   1.853  10.422 -0.1835 -0.8995 -1.9041
  141SAPE   C1215353   1.352   1.779  10.621  0.1339 -0.3598  0.5582
  141SAPE  H12A15354   1.438   1.845  10.645  1.5629 -1.5787 -0.9818
  141SAPE  H12B15355   1.372   1.682  10.672  0.8763  0.8901  2.8030
  141SAPE   C1115356   1.221   1.832  10.688  0.2173 -0.5493 -0.0373
  141SAPE  H11A15357   1.249   1.858  10.793 -0.2726  2.1777 -0.5145
  141SAPE  H11B15358   1.148   1.748  10.686 -0.9387  0.3767  1.3285
  141SAPE     P15359   1.015   1.986  10.669  0.1838  0.7751 -0.4217
  141SAPE   O1315360   0.921   1.871  10.623 -0.0201  0.0924 -0.0365
  141SAPE   O1415361   1.007   2.013  10.810  0.2126  0.4063  0.2847
  141SAPE   O1215362   1.166   1.948  10.623 -0.7064 -0.0254 -0.3178
  141SAPE   O1115363   0.989   2.119  10.591  0.2422 -0.1541 -0.5863
  141SAPE    C115364   0.962   2.106  10.450 -0.5594  0.8186 -0.0165
  141SAPE    HA15365   0.878   2.036  10.430  0.0980  0.0783 -0.2177
  141SAPE    HB15366   0.918   2.203  10.419  0.7747  1.2709 -0.5867
  141SAPE    C215367   1.083   2.072  10.362 -0.5660 -0.5531 -0.5283
  141SAPE    HS15368   1.127   1.979  10.403  2.3021  0.0023 -2.0727
  141SAPE   O2115369   1.182   2.173  10.366  0.1701  0.5773 -0.1349
  141SAPE   C2115370   1.310   2.128  10.359  0.6360  0.2194 -0.5359
  141SAPE   O2215371   1.339   2.011  10.353  0.9064 -0.7272  0.2167
  141SAPE   C2215372   1.407   2.244  10.379 -0.8254  0.0659 -0.0726
  141SAPE   H2R15373   1.354   2.341  10.369 -0.6716  0.2350  0.7222
  141SAPE   H2S15374   1.441   2.227  10.483 -0.3084  0.8662 -0.1063
  141SAPE    C315375   1.047   2.049  10.219 -0.2512  1.1416  0.2197
  141SAPE    HX15376   1.018   2.144  10.168 -1.6000  1.1998  1.0455
  141SAPE    HY15377   0.953   1.989  10.210  0.4854 -0.1214  0.7570
  141SAPE   O3115378   1.146   1.987  10.132  0.0608 -0.0143 -0.0256
  141SAPE   C3115379   1.159   1.855  10.159 -0.6334 -0.2514  0.0219
  141SAPE   O3215380   1.101   1.798  10.246 -0.3067 -0.0862 -0.7052
  141SAPE   C3215381   1.265   1.807  10.063 -0.2034 -0.0407 -0.1138
  141SAPE   H2X15382   1.342   1.880  10.031 -0.0682 -0.0676  0.1501
  141SAPE   H2Y15383   1.210   1.778   9.971  1.7248 -1.5272 -0.8544
  141SAPE   C2315384   1.545   2.248  10.302  0.0065  0.0022 -0.0931
  141SAPE   H3R15385   1.592   2.152  10.334 -2.5488 -1.6916 -1.1244
  141SAPE   H3S15386   1.603   2.331  10.349 -0.9862  1.4411 -1.2876
  141SAPE   C2415387   1.547   2.285  10.157 -0.6152 -0.3702  0.3721
  141SAPE   H4R15388   1.649   2.294  10.116  0.0740 -0.5239  1.9729
  141SAPE   H4S15389   1.503   2.386  10.139 -0.4852 -0.1624  1.1865
  141SAPE   C2515390   1.473   2.171  10.083  0.2850 -1.0583 -0.6162
  141SAPE   H5R15391   1.474   2.070  10.126 -0.3766 -1.4149 -1.4176
  141SAPE   C2615392   1.379   2.187   9.990  0.2242  0.2852  0.8547
  141SAPE   H6R15393   1.323   2.100   9.954  0.7906  0.1004  0.4055
  141SAPE   C2715394   1.343   2.320   9.928 -0.0339  0.1325  0.2925
  141SAPE   H7R15395   1.348   2.404  10.001  0.4919  1.4461 -1.1892
  141SAPE   H7S15396   1.241   2.296   9.892  0.4079 -1.4973  0.0660
  141SAPE   C2815397   1.424   2.366   9.816 -0.7751  0.1900  0.5514
  141SAPE   H8R15398   1.491   2.449   9.842 -1.7764  1.4261 -0.6633
  141SAPE   C2915399   1.418   2.338   9.683  0.1481  0.3136  0.3712
  141SAPE   H9R15400   1.482   2.370   9.601 -0.2422 -1.8143 -0.8446
  141SAPE  C21015401   1.307   2.242   9.628  0.2289  0.0257  1.0684
  141SAPE  H10R15402   1.259   2.179   9.706 -1.4859 -2.4988 -1.7805
  141SAPE  H10S15403   1.349   2.164   9.560 -0.4399  0.4318  0.1698
  141SAPE  C21115404   1.211   2.321   9.547  0.2454 -0.4803  0.4797
  141SAPE  H11R15405   1.132   2.374   9.603  0.7134  0.6354  0.1154
  141SAPE  C21215406   1.217   2.338   9.416 -0.1304  0.9221  0.0077
  141SAPE  H12R15407   1.136   2.392   9.364 -1.0026 -1.0798 -0.7969
  141SAPE  C21315408   1.329   2.295   9.324  0.1717 -0.0765  0.2392
  141SAPE  H13R15409   1.302   2.195   9.282  2.6401 -0.7577  0.1181
  141SAPE  H13S15410   1.423   2.297   9.383  0.4116 -2.2939  0.0227
  141SAPE  C21415411   1.337   2.391   9.207  0.2731  0.2990  0.4728
  141SAPE  H14R15412   1.345   2.498   9.231  0.0901  0.6815 -1.0724
  141SAPE  C21515413   1.327   2.352   9.077 -0.1096  0.8565 -0.2060
  141SAPE  H15R15414   1.317   2.430   9.001  1.6456  1.0323 -0.2868
  141SAPE  C21615415   1.296   2.215   9.025  0.0337 -0.2087 -0.5691
  141SAPE  H16R15416   1.196   2.196   9.069  0.5509  0.6721  1.0738
  141SAPE  H16S15417   1.371   2.143   9.064 -1.0394 -0.0177  2.0541
  141SAPE  C21715418   1.295   2.201   8.872 -1.1235  0.1339 -0.6458
  141SAPE  H17R15419   1.228   2.278   8.827 -2.2536  0.5589  1.5964
  141SAPE  H17S15420   1.259   2.097   8.857 -1.0638 -0.3149  1.8347
  141SAPE  C21815421   1.433   2.221   8.819  0.4387  0.4902  0.4258
  141SAPE  H18R15422   1.509   2.159   8.871  2.3699  0.1963 -2.5118
  141SAPE  H18S15423   1.463   2.326   8.843 -2.1654  1.5300 -0.4363
  141SAPE  C21915424   1.451   2.198   8.669 -0.5794  0.4818  0.4962
  141SAPE  H19R15425   1.555   2.219   8.636  0.2026 -1.6933  1.3997
  141SAPE  H19S15426   1.373   2.254   8.613 -1.5944 -1.6598 -0.3259
  141SAPE  C22015427   1.423   2.055   8.625 -0.4385  0.2927  0.2117
  141SAPE  H20R15428   1.314   2.038   8.614 -0.2938 -1.7495  1.4518
  141SAPE  H20S15429   1.460   1.987   8.704 -1.0618 -1.4975 -0.9915
  141SAPE  H20T15430   1.479   2.032   8.532 -0.5065  2.2833 -0.3686
  141SAPE   C3315431   1.329   1.683  10.119  0.4709 -0.0276  0.1389
  141SAPE   H3X15432   1.260   1.602  10.153  1.1044 -0.0782  1.3885
  141SAPE   H3Y15433   1.381   1.709  10.214 -0.3066 -2.9727  1.5097
  141SAPE   C3415434   1.433   1.625  10.028  0.4495  0.0338  0.0069
  141SAPE   H4X15435   1.470   1.535  10.082  1.6427  0.7324  0.3940
  141SAPE   H4Y15436   1.521   1.694  10.028  1.3715 -1.0835  1.0766
  141SAPE   C3515437   1.383   1.587   9.891  0.5978  0.5857  0.0940
  141SAPE   H5X15438   1.359   1.670   9.822 -1.0412  0.8950  1.0029
  141SAPE   H5Y15439   1.287   1.531   9.897 -1.4551  3.4395 -2.9382
  141SAPE   C3615440   1.483   1.482   9.816 -0.5962 -0.4146  0.3884
  141SAPE   H6X15441   1.514   1.406   9.890  0.7740 -0.3189 -0.0561
  141SAPE   H6Y15442   1.567   1.539   9.771 -0.4641 -0.9549 -0.0629
  141SAPE   C3715443   1.417   1.412   9.701  0.0757 -0.1782 -0.7759
  141SAPE   H7X15444   1.322   1.358   9.724  0.6835 -2.1601 -2.5795
  141SAPE   H7Y15445   1.493   1.333   9.681  0.6007  0.0998  0.0715
  141SAPE   C3815446   1.399   1.491   9.572 -0.5716  0.3751 -0.1797
  141SAPE   H8X15447   1.487   1.556   9.550  1.0978 -2.3381 -2.2422
  141SAPE   H8Y15448   1.309   1.555   9.581 -2.6101 -2.4858  1.6556
  141SAPE   C3915449   1.375   1.414   9.443  0.3017  0.5266 -0.5380
  141SAPE   H9X15450   1.350   1.492   9.368  1.4959  0.5415 -0.9405
  141SAPE   H9Y15451   1.290   1.343   9.454 -0.0340  1.0899  0.6591
  141SAPE  C31015452   1.501   1.338   9.400  0.0169 -0.2047  0.5499
  141SAPE  H10X15453   1.489   1.228   9.416  0.9347 -0.5239 -0.7528
  141SAPE  H10Y15454   1.585   1.365   9.466  0.5940 -1.6569  0.4597
  141SAPE  C31115455   1.532   1.358   9.251  0.0028  0.4482  0.4712
  141SAPE  H11X15456   1.627   1.301   9.243  0.4886  1.3376 -0.2383
  141SAPE  H11Y15457   1.538   1.466   9.227 -0.2326 -0.1412 -2.6618
  141SAPE  C31215458   1.435   1.300   9.146  0.0903 -0.3382  0.2372
  141SAPE  H12X15459   1.357   1.375   9.121 -0.4689 -0.1767  2.2470
  141SAPE  H12Y15460   1.395   1.201   9.178  0.2019 -0.8878 -1.2418
  141SAPE  C31315461   1.505   1.273   9.014  0.2345 -0.3736  0.4166
  141SAPE  H13X15462   1.569   1.182   9.017 -0.4081 -1.0595 -2.6882
  141SAPE  H13Y15463   1.574   1.358   9.002  0.8954 -0.4714  2.9460
  141SAPE  C31415464   1.419   1.254   8.891 -0.3112  0.8308 -0.3351
  141SAPE  H14X15465   1.355   1.344   8.882 -0.7452  0.6504  0.8218
  141SAPE  H14Y15466   1.365   1.158   8.904 -1.5220  1.7298  1.8827
  141SAPE  C31515467   1.498   1.255   8.763  0.1826  0.0979  0.4805
  141SAPE  H15X15468   1.595   1.203   8.780  0.8251  1.3417  0.7143
  141SAPE  H15Y15469   1.522   1.359   8.734  2.0325 -0.8990 -1.8679
  141SAPE  C31615470   1.426   1.182   8.643 -0.1588  0.7113  0.6644
  141SAPE  H16X15471   1.328   1.227   8.615 -1.7015 -2.2411  0.8848
  141SAPE  H16Y15472   1.412   1.075   8.668 -1.6442  0.4421 -1.1637
  141SAPE  C31715473   1.527   1.188   8.517  0.1354 -1.3396 -0.1568
  141SAPE  H17X15474   1.622   1.135   8.541  0.5782 -1.0406 -1.1879
  141SAPE  H17Y15475   1.563   1.293   8.513 -1.8974 -0.6136 -0.1825
  141SAPE  C31815476   1.461   1.154   8.390  0.4103  0.2993  0.4554
  141SAPE  H18X15477   1.351   1.173   8.381  0.7985  1.7707 -2.3938
  141SAPE  H18Y15478   1.485   1.054   8.350  2.6989  0.2067  1.9020
  141SAPE  H18Z15479   1.501   1.214   8.306  0.9167 -4.4496 -3.1327
  142SAPE     N15480   2.189   0.694  11.115 -0.3829 -0.5906 -0.0675
  142SAPE   HN115481   2.161   0.777  11.060  0.8434 -0.7656 -1.0026
  142SAPE   HN215482   2.149   0.694  11.211 -0.7206 -1.4720 -0.1939
  142SAPE   HN315483   2.293   0.696  11.114 -0.3766  1.8972 -1.0387
  142SAPE   C1215484   2.141   0.564  11.053  0.5434  0.4436  0.1886
  142SAPE  H12A15485   2.172   0.473  11.109 -1.6723  0.1319  1.0168
  142SAPE  H12B15486   2.184   0.561  10.951  2.2701 -2.2816  0.8958
  142SAPE   C1115487   1.981   0.564  11.054  0.0526  0.4548  0.1187
  142SAPE  H11A15488   1.932   0.559  11.154 -2.0876 -1.2250 -0.9227
  142SAPE  H11B15489   1.954   0.470  11.001  2.4825 -0.4353  0.3387
  142SAPE     P15490   1.844   0.696  10.859 -0.0939  0.4413 -0.3312
  142SAPE   O1315491   1.748   0.589  10.856  0.4606 -0.1417 -0.6479
  142SAPE   O1415492   1.792   0.836  10.859 -0.4238  0.2809  0.5941
  142SAPE   O1215493   1.939   0.679  10.985 -0.1133  0.1315 -0.3238
  142SAPE   O1115494   1.940   0.679  10.729  0.6316  0.7400 -0.1530
  142SAPE    C115495   2.010   0.800  10.685  0.4254  0.4370  0.2534
  142SAPE    HA15496   1.935   0.880  10.667 -1.5939 -0.9029  2.2008
  142SAPE    HB15497   2.092   0.832  10.753 -0.5908  2.0397  0.7923
  142SAPE    C215498   2.077   0.774  10.547  0.5885 -0.0695  0.7270
  142SAPE    HS15499   2.152   0.853  10.523  1.9601 -0.7175  2.6628
  142SAPE   O2115500   1.974   0.778  10.443  0.3736  0.6423 -0.2197
  142SAPE   C2115501   1.934   0.898  10.405 -0.0658  0.1376  0.5899
  142SAPE   O2215502   1.978   1.006  10.439  0.3222 -0.0622 -0.4287
  142SAPE   C2215503   1.823   0.885  10.301 -0.3687  0.8984 -0.0102
  142SAPE   H2R15504   1.815   0.779  10.267 -0.8630  1.8592 -3.2044
  142SAPE   H2S15505   1.741   0.923  10.365 -0.0860 -0.7978  1.4303
  142SAPE    C315506   2.157   0.633  10.558 -0.0359  0.0252  0.2484
  142SAPE    HX15507   2.087   0.549  10.577  0.0143 -0.3400 -1.1057
  142SAPE    HY15508   2.228   0.638  10.644  1.0559  1.4982 -0.6968
  142SAPE   O3115509   2.235   0.601  10.441  0.2157 -0.1659  0.2521
  142SAPE   C3115510   2.171   0.544  10.345  0.2158 -0.4523  0.6291
  142SAPE   O3215511   2.050   0.519  10.348  0.3049  0.3861 -0.0966
  142SAPE   C3215512   2.277   0.515  10.236  0.8080  0.3154  0.1034
  142SAPE   H2X15513   2.321   0.417  10.266 -1.9675 -1.0594  0.0288
  142SAPE   H2Y15514   2.368   0.578  10.241  0.8076  0.2318  1.6804
  142SAPE   C2315515   1.849   0.971  10.181  0.0206 -0.3453  0.3963
  142SAPE   H3R15516   1.849   1.081  10.200 -1.7001 -0.4509  1.1558
  142SAPE   H3S15517   1.756   0.965  10.120  0.3189 -0.3622 -0.0598
  142SAPE   C2415518   1.965   0.925  10.092  0.4061  0.0744  0.6715
  142SAPE   H4R15519   2.063   0.940  10.142  1.1961 -3.0394  0.2675
  142SAPE   H4S15520   1.959   0.984   9.998  1.0699  0.6952  1.0123
  142SAPE   C2515521   1.941   0.782  10.046  1.0252 -0.4168  0.2895
  142SAPE   H5R15522   1.992   0.700  10.097 -0.4530  0.5132  3.5016
  142SAPE   C2615523   1.859   0.744   9.946 -0.7298  0.2714  0.0152
  142SAPE   H6R15524   1.835   0.637   9.934 -1.4143  0.5138 -0.9136
  142SAPE   C2715525   1.774   0.822   9.853  0.0431 -0.6931  0.2572
  142SAPE   H7R15526   1.839   0.889   9.794  0.8714  0.0603  1.9566
  142SAPE   H7S15527   1.707   0.900   9.896  1.9378  0.8036  0.6300
  142SAPE   C2815528   1.693   0.735   9.762 -0.5002 -0.2995 -0.3864
  142SAPE   H8R15529   1.761   0.687   9.690  0.6306 -0.3090  0.6603
  142SAPE   C2915530   1.565   0.716   9.763  0.6481 -0.4208 -0.1440
  142SAPE   H9R15531   1.526   0.642   9.692 -0.4906  0.1584 -0.1387
  142SAPE  C21015532   1.462   0.774   9.858  0.6024 -0.2853  0.0588
  142SAPE  H10R15533   1.477   0.880   9.889 -0.6438 -0.9844  3.5118
  142SAPE  H10S15534   1.473   0.725   9.957  0.0430 -0.5030  0.0185
  142SAPE  C21115535   1.315   0.756   9.814  0.2503 -0.9558 -0.5126
  142SAPE  H11R15536   1.265   0.666   9.853  0.5841 -0.4134  1.2582
  142SAPE  C21215537   1.249   0.836   9.731 -0.2678 -0.9566 -0.5007
  142SAPE  H12R15538   1.142   0.817   9.713 -0.0361 -1.5654 -1.2792
  142SAPE  C21315539   1.301   0.957   9.656  0.4758 -0.0771 -0.2719
  142SAPE  H13R15540   1.332   0.923   9.555 -0.1399  1.0406 -0.8676
  142SAPE  H13S15541   1.386   1.003   9.711  0.2662  0.7925 -0.6547
  142SAPE  C21415542   1.191   1.060   9.645  0.6327  0.0717 -0.0617
  142SAPE  H14R15543   1.191   1.146   9.713 -1.2079  1.1798 -1.3744
  142SAPE  C21515544   1.101   1.068   9.547  0.4986 -0.1068  0.5953
  142SAPE  H15R15545   1.031   1.152   9.564  2.0185  0.9773  1.8014
  142SAPE  C21615546   1.084   0.985   9.421 -0.4435 -0.1089  0.1706
  142SAPE  H16R15547   0.981   0.944   9.430  0.0120 -1.2765  0.3415
  142SAPE  H16S15548   1.154   0.899   9.418  2.2278  1.9646 -0.5663
  142SAPE  C21715549   1.105   1.052   9.293  0.0125  0.9076  0.4902
  142SAPE  H17R15550   1.203   1.104   9.289  0.7371 -0.4819 -1.3690
  142SAPE  H17S15551   1.036   1.138   9.284  0.2557  1.0940  0.3886
  142SAPE  C21815552   1.087   0.960   9.176 -0.1838  0.6909  0.0810
  142SAPE  H18R15553   1.125   0.860   9.207  2.6906  1.5883 -0.3248
  142SAPE  H18S15554   1.145   0.997   9.089 -0.7843  2.8001  0.5222
  142SAPE  C21915555   0.947   0.948   9.139  0.8758 -0.1696 -0.0995
  142SAPE  H19R15556   0.892   1.044   9.131 -1.1049 -1.2102  0.2701
  142SAPE  H19S15557   0.896   0.901   9.226 -0.9860 -0.2555 -1.1830
  142SAPE  C22015558   0.929   0.863   9.016 -0.5068 -0.2958  0.3833
  142SAPE  H20R15559   0.824   0.857   8.980 -0.7908  0.4187  1.0572
  142SAPE  H20S15560   0.954   0.762   9.053  4.0822  0.2644 -0.6387
  142SAPE  H20T15561   1.004   0.891   8.939 -0.8971 -0.1722  0.0447
  142SAPE   C3315562   2.225   0.497  10.095 -0.1145  0.7232 -0.3766
  142SAPE   H3X15563   2.173   0.587  10.057 -1.9605 -0.2988 -0.3648
  142SAPE   H3Y15564   2.151   0.414  10.103  0.2497  0.2281 -1.8696
  142SAPE   C3415565   2.335   0.473   9.989  0.3986 -0.0897  0.1546
  142SAPE   H4X15566   2.412   0.412  10.040  0.0723 -1.5132 -0.9791
  142SAPE   H4Y15567   2.382   0.572   9.974 -0.6808  0.4325  0.1248
  142SAPE   C3515568   2.285   0.407   9.865  0.2752  0.2971  0.5348
  142SAPE   H5X15569   2.186   0.435   9.823  0.5625 -2.3065 -2.2523
  142SAPE   H5Y15570   2.274   0.300   9.894 -0.8990  0.6568  1.4911
  142SAPE   C3615571   2.374   0.410   9.737  0.3254  0.2846 -0.7935
  142SAPE   H6X15572   2.475   0.380   9.770  0.6947 -0.2843 -2.3225
  142SAPE   H6Y15573   2.366   0.518   9.712  1.8347  0.5164 -0.3432
  142SAPE   C3715574   2.323   0.322   9.629  0.3297  0.6082  1.1773
  142SAPE   H7X15575   2.236   0.366   9.575  1.6378 -0.3950 -1.9626
  142SAPE   H7Y15576   2.284   0.229   9.678 -0.1150  0.3180  0.2888
  142SAPE   C3815577   2.437   0.302   9.535 -0.1321 -0.2661  0.4200
  142SAPE   H8X15578   2.510   0.233   9.583  0.6798  0.5117  0.3436
  142SAPE   H8Y15579   2.483   0.401   9.513  1.9713 -1.3552 -0.3730
  142SAPE   C3915580   2.397   0.244   9.394 -0.2197 -0.1948  0.4045
  142SAPE   H9X15581   2.302   0.297   9.372 -1.4137 -2.8126 -1.1239
  142SAPE   H9Y15582   2.364   0.138   9.392 -0.9581  0.0211 -1.5731
  142SAPE  C31015583   2.507   0.271   9.284 -0.1395 -0.1355 -0.4985
  142SAPE  H10X15584   2.586   0.207   9.329 -1.5261 -0.8256  1.0168
  142SAPE  H10Y15585   2.519   0.381   9.271 -0.4798 -0.0888 -0.4073
  142SAPE  C31115586   2.472   0.210   9.142 -0.1115  0.0196 -0.0481
  142SAPE  H11X15587   2.381   0.264   9.107  0.0137  1.3405  1.5243
  142SAPE  H11Y15588   2.444   0.108   9.176 -1.8207  0.3958 -0.2227
  142SAPE  C31215589   2.593   0.210   9.049  0.2993 -1.1695  0.2166
  142SAPE  H12X15590   2.677   0.166   9.107  1.6072  2.7465  1.6418
  142SAPE  H12Y15591   2.619   0.316   9.026 -0.4409 -1.0323 -0.0087
  142SAPE  C31315592   2.559   0.137   8.916  0.3270 -0.8527  0.0786
  142SAPE  H13X15593   2.643   0.148   8.843  1.3681 -3.1565  0.8408
  142SAPE  H13Y15594   2.468   0.178   8.866  1.3530 -0.9026 -1.9484
  142SAPE  C31415595   2.556  -0.012   8.931  0.2379  0.7405 -0.0996
  142SAPE  H14X15596   2.467  -0.041   8.990 -0.0010  1.4979 -0.0709
  142SAPE  H14Y15597   2.646  -0.053   8.983  1.1509  2.7455  0.0064
  142SAPE  C31515598   2.551  -0.087   8.801 -0.0269 -0.5250 -0.4684
  142SAPE  H15X15599   2.642  -0.062   8.742 -0.6453  0.9832 -0.8136
  142SAPE  H15Y15600   2.453  -0.061   8.755  0.3196  0.5856 -0.6063
  142SAPE  C31615601   2.559  -0.238   8.837  0.2418  0.4472  0.6852
  142SAPE  H16X15602   2.467  -0.279   8.883 -1.5235  2.0391 -1.2133
  142SAPE  H16Y15603   2.653  -0.247   8.896  0.6624  2.0436  0.3228
  142SAPE  C31715604   2.580  -0.317   8.707 -0.1415  0.1985 -0.6407
  142SAPE  H17X15605   2.586  -0.424   8.736 -0.1680  0.7094  1.4377
  142SAPE  H17Y15606   2.682  -0.292   8.670  0.6481  1.6093  2.1724
  142SAPE  C31815607   2.477  -0.284   8.605 -0.5987  0.3608  0.6761
  142SAPE  H18X15608   2.482  -0.363   8.528  0.9476  0.5521  0.5501
  142SAPE  H18Y15609   2.502  -0.192   8.548 -1.1101 -1.2115 -2.2238
  142SAPE  H18Z15610   2.373  -0.290   8.644 -0.9374 -1.8234 -0.4279
  143SAPE     N15611   3.908   2.046  11.028  0.1826  0.0794  0.6147
  143SAPE   HN115612   3.878   2.086  10.937 -0.0302 -4.0290 -1.3800
  143SAPE   HN215613   3.966   2.099  11.095  0.2155 -1.4212  1.8332
  143SAPE   HN315614   3.971   1.968  10.999  0.0098  0.9764 -2.5722
  143SAPE   C1215615   3.789   1.991  11.101  0.3340 -0.0231 -0.1115
  143SAPE  H12A15616   3.749   2.071  11.166 -0.5443 -1.0908  0.6903
  143SAPE  H12B15617   3.812   1.903  11.164 -1.2531  0.2520  0.9020
  143SAPE   C1115618   3.683   1.952  11.004  0.0699  0.0600 -0.0550
  143SAPE  H11A15619   3.594   1.921  11.062  1.6298 -0.2341  2.3470
  143SAPE  H11B15620   3.723   1.862  10.952  1.4001  1.0916 -0.8933
  143SAPE     P15621   3.544   2.014  10.799 -0.1626 -0.4103  0.1550
  143SAPE   O1315622   3.416   1.954  10.855 -0.3334 -0.5610 -0.5120
  143SAPE   O1415623   3.525   2.136  10.715 -0.5563 -0.2393  0.3108
  143SAPE   O1215624   3.649   2.052  10.911  0.2781 -0.5657  0.1686
  143SAPE   O1115625   3.632   1.906  10.721 -0.5059 -0.1912 -0.2054
  143SAPE    C115626   3.762   1.933  10.668  0.8163  0.4187  0.2021
  143SAPE    HA15627   3.798   2.037  10.684  1.8441 -0.0042  0.7495
  143SAPE    HB15628   3.834   1.871  10.725  3.3293  3.6877  0.8177
  143SAPE    C215629   3.773   1.885  10.517 -0.0795  0.7062 -0.3165
  143SAPE    HS15630   3.875   1.904  10.478  0.0624 -0.0693 -0.3340
  143SAPE   O2115631   3.670   1.955  10.445  0.0476 -0.1161 -0.0383
  143SAPE   C2115632   3.694   1.981  10.325  0.7563  0.0711  0.6450
  143SAPE   O2215633   3.796   1.958  10.259 -0.3565  0.2770 -0.4227
  143SAPE   C2215634   3.575   2.069  10.271  0.1793  0.0858 -0.4541
  143SAPE   H2R15635   3.478   2.015  10.278 -1.0910  2.1409 -1.3393
  143SAPE   H2S15636   3.567   2.159  10.335  0.5656 -0.8071  0.9129
  143SAPE    C315637   3.740   1.731  10.506  0.4472 -1.0673 -0.3514
  143SAPE    HX15638   3.641   1.729  10.555  0.3547 -1.8026 -0.5680
  143SAPE    HY15639   3.810   1.678  10.574  0.0421 -1.3191 -0.1278
  143SAPE   O3115640   3.709   1.681  10.378 -0.4236  0.5851  0.3927
  143SAPE   C3115641   3.817   1.647  10.300 -0.3373 -0.0874  0.6933
  143SAPE   O3215642   3.933   1.648  10.333  0.1051  0.0256  0.5009
  143SAPE   C3215643   3.769   1.626  10.153 -0.5054 -0.3463 -1.2104
  143SAPE   H2X15644   3.672   1.677  10.135 -0.8432 -1.1001 -1.6011
  143SAPE   H2Y15645   3.767   1.518  10.125  2.1117 -0.6197 -0.6676
  143SAPE   C2315646   3.596   2.115  10.127 -0.0685  0.3555 -0.3782
  143SAPE   H3R15647   3.596   2.030  10.056 -1.5938 -0.5795  0.6797
  143SAPE   H3S15648   3.699   2.158  10.127  0.0491  0.1016 -1.5181
  143SAPE   C2415649   3.492   2.219  10.076 -0.1425 -0.8802  0.3910
  143SAPE   H4R15650   3.539   2.282   9.998 -1.8938  0.6715  0.5135
  143SAPE   H4S15651   3.470   2.295  10.155  0.5988 -0.7444  0.4801
  143SAPE   C2515652   3.367   2.161  10.013 -0.6152  0.4651  0.1240
  143SAPE   H5R15653   3.282   2.154  10.081 -0.5690 -1.5797  0.0314
  143SAPE   C2615654   3.353   2.128   9.882 -0.6083  1.0551  0.3884
  143SAPE   H6R15655   3.252   2.093   9.855  0.1518 -1.7729  0.9153
  143SAPE   C2715656   3.444   2.140   9.764 -0.3864  0.3479 -0.5216
  143SAPE   H7R15657   3.506   2.048   9.762  1.0576  1.2756 -0.1668
  143SAPE   H7S15658   3.518   2.221   9.783 -0.3558 -0.0036  0.9589
  143SAPE   C2815659   3.382   2.173   9.631 -0.3861  0.5448  0.3704
  143SAPE   H8R15660   3.328   2.268   9.614 -0.6619 -0.2030 -4.0888
  143SAPE   C2915661   3.389   2.092   9.526  0.3769  0.6981 -0.3268
  143SAPE   H9R15662   3.327   2.121   9.440 -1.7323  0.0322  0.9144
  143SAPE  C21015663   3.465   1.958   9.507 -0.1653 -0.2410 -0.3621
  143SAPE  H10R15664   3.400   1.894   9.442  0.7276  0.5622 -2.1264
  143SAPE  H10S15665   3.478   1.899   9.600  0.6949 -1.7613 -1.4054
  143SAPE  C21115666   3.597   1.964   9.428 -0.0476  0.7603 -0.0411
  143SAPE  H11R15667   3.683   1.954   9.496  1.5081 -0.0061 -2.0355
  143SAPE  C21215668   3.618   1.972   9.296 -0.7826  0.0184 -1.1217
  143SAPE  H12R15669   3.722   1.978   9.263 -0.3951 -0.9861 -0.1438
  143SAPE  C21315670   3.518   1.989   9.193  0.1026 -0.1929  0.3446
  143SAPE  H13R15671   3.414   2.001   9.228 -0.0342 -0.2692 -0.0268
  143SAPE  H13S15672   3.524   1.889   9.144 -1.6856 -0.3859  0.4825
  143SAPE  C21415673   3.547   2.098   9.091 -0.2444 -0.1066 -0.5692
  143SAPE  H14R15674   3.489   2.187   9.117  1.4157  0.3382  1.9588
  143SAPE  C21515675   3.636   2.097   8.989 -0.0934  0.1637  1.0337
  143SAPE  H15R15676   3.646   2.187   8.927 -0.7469 -0.9536 -0.7594
  143SAPE  C21615677   3.728   1.981   8.956 -0.5574  0.8099  0.2062
  143SAPE  H16R15678   3.724   1.894   9.025  1.1544  0.4990 -0.0140
  143SAPE  H16S15679   3.836   2.007   8.956 -0.3392  0.4664 -3.3214
  143SAPE  C21715680   3.690   1.923   8.821  0.2248 -0.8908  0.0860
  143SAPE  H17R15681   3.584   1.889   8.825 -0.2441 -0.1373 -3.0539
  143SAPE  H17S15682   3.747   1.830   8.801  0.6119 -0.2507 -2.0325
  143SAPE  C21815683   3.727   2.010   8.697  1.2142  0.1887  0.5005
  143SAPE  H18R15684   3.837   2.001   8.690  1.1628  0.7504 -1.6883
  143SAPE  H18S15685   3.698   2.114   8.721 -1.5258 -0.0661 -1.2501
  143SAPE  C21915686   3.657   1.951   8.565 -0.4076  0.4170 -0.6933
  143SAPE  H19R15687   3.548   1.967   8.575 -0.0178  1.7975  4.3610
  143SAPE  H19S15688   3.672   1.841   8.561 -1.2388  0.3032 -0.8738
  143SAPE  C22015689   3.715   2.000   8.440 -0.4767 -0.2220  0.9134
  143SAPE  H20R15690   3.686   2.106   8.423 -0.3180 -0.0244  1.8398
  143SAPE  H20S15691   3.663   1.952   8.354 -0.4811  1.2756  0.0365
  143SAPE  H20T15692   3.824   1.982   8.428 -0.6066 -0.5876  0.1955
  143SAPE   C3315693   3.885   1.673  10.057 -0.0248  0.1303  0.8421
  143SAPE   H3X15694   3.974   1.610  10.081  0.4568 -0.5821 -2.2893
  143SAPE   H3Y15695   3.902   1.781  10.074 -2.1595  0.7240 -0.4353
  143SAPE   C3415696   3.837   1.650   9.911 -0.5444  0.1395  0.4021
  143SAPE   H4X15697   3.742   1.705   9.891  0.8122  1.8813 -1.7967
  143SAPE   H4Y15698   3.802   1.545   9.903  0.8698 -0.3944  0.8429
  143SAPE   C3515699   3.932   1.687   9.799  0.1464 -0.0055  0.3132
  143SAPE   H5X15700   3.965   1.792   9.817  0.4778 -0.1527  0.5693
  143SAPE   H5Y15701   3.872   1.679   9.706 -0.1680  1.4120  0.3711
  143SAPE   C3615702   4.062   1.609   9.783  0.0830  0.3657 -0.1730
  143SAPE   H6X15703   4.033   1.511   9.741  0.3901  1.1000 -2.2235
  143SAPE   H6Y15704   4.123   1.613   9.876  1.5952  2.8612 -1.1548
  143SAPE   C3715705   4.159   1.662   9.680  0.1733 -0.3177 -0.0290
  143SAPE   H7X15706   4.260   1.617   9.680  0.0288 -0.6465 -0.4605
  143SAPE   H7Y15707   4.182   1.770   9.696  0.9533 -0.3122 -1.0979
  143SAPE   C3815708   4.094   1.641   9.545  0.7533 -0.1838 -0.4940
  143SAPE   H8X15709   4.012   1.716   9.543  0.1672 -0.6969  1.8338
  143SAPE   H8Y15710   4.041   1.547   9.518 -1.4032  0.6996  0.4012
  143SAPE   C3915711   4.188   1.669   9.434 -1.0857 -0.1266  0.7371
  143SAPE   H9X15712   4.269   1.592   9.434  0.1050  1.0761  0.3672
  143SAPE   H9Y15713   4.244   1.765   9.445  0.9264 -0.5976 -3.3838
  143SAPE  C31015714   4.122   1.695   9.295  0.6221 -0.5094  0.0887
  143SAPE  H10X15715   4.042   1.772   9.300 -0.6934 -1.6286 -2.0938
  143SAPE  H10Y15716   4.064   1.608   9.257 -1.9021  0.9234  0.3850
  143SAPE  C31115717   4.218   1.742   9.190  0.4340 -0.8253  0.5861
  143SAPE  H11X15718   4.297   1.672   9.156  0.6464 -0.0660 -0.5569
  143SAPE  H11Y15719   4.269   1.835   9.226  0.9511  0.0501 -2.1925
  143SAPE  C31215720   4.138   1.781   9.055 -0.2562  0.5758 -0.3950
  143SAPE  H12X15721   4.084   1.876   9.076  3.2793  1.9816  3.9292
  143SAPE  H12Y15722   4.073   1.691   9.054  1.0992 -0.6020  2.7330
  143SAPE  C31315723   4.227   1.791   8.934  0.5694 -0.2629  0.1816
  143SAPE  H13X15724   4.258   1.689   8.902 -1.4132 -0.0672 -2.6770
  143SAPE  H13Y15725   4.315   1.856   8.947  1.8302 -1.4754 -1.7278
  143SAPE  C31415726   4.155   1.836   8.803  0.7679 -0.2806 -0.1304
  143SAPE  H14X15727   4.228   1.814   8.723  0.3822  0.1260 -0.6009
  143SAPE  H14Y15728   4.131   1.945   8.802  0.9188 -0.2244 -2.5192
  143SAPE  C31515729   4.032   1.750   8.769 -0.6349  0.0718  0.2087
  143SAPE  H15X15730   3.986   1.799   8.681  1.9053  1.0047 -0.7053
  143SAPE  H15Y15731   3.971   1.764   8.861  2.2271  1.0774  2.1058
  143SAPE  C31615732   4.058   1.596   8.760 -0.0395 -0.2665 -1.0972
  143SAPE  H16X15733   4.093   1.569   8.862 -1.5230 -2.2473 -1.0415
  143SAPE  H16Y15734   4.152   1.593   8.700  0.5569  2.3633 -0.4086
  143SAPE  C31715735   3.939   1.523   8.712 -0.3423  0.7198  0.3712
  143SAPE  H17X15736   3.898   1.568   8.618 -0.0141  2.1597  0.8869
  143SAPE  H17Y15737   3.856   1.529   8.785 -2.6922 -2.5359 -1.7583
  143SAPE  C31815738   3.976   1.380   8.675 -0.3681 -0.5054  0.4828
  143SAPE  H18X15739   4.017   1.381   8.572 -0.5291  1.4363  0.4066
  143SAPE  H18Y15740   3.889   1.312   8.692 -0.7373 -0.1468  0.0449
  143SAPE  H18Z15741   4.064   1.357   8.739  0.2787  0.8169  0.1108
  144SAPE     N15742   3.213   5.845  11.354 -0.7174  0.2669  0.1554
  144SAPE   HN115743   3.264   5.932  11.329 -2.5465  1.3535  0.0531
  144SAPE   HN215744   3.114   5.874  11.361 -0.5379  0.8212  0.4918
  144SAPE   HN315745   3.238   5.809  11.448  1.1333 -0.5483 -0.5796
  144SAPE   C1215746   3.214   5.739  11.239  0.8195  0.1157  0.4785
  144SAPE  H12A15747   3.178   5.643  11.283  1.2265 -0.1962  0.1441
  144SAPE  H12B15748   3.322   5.729  11.216  0.7284  0.4759 -0.1260
  144SAPE   C1115749   3.125   5.779  11.119 -0.0207 -0.2564  0.3933
  144SAPE  H11A15750   3.017   5.757  11.133 -0.3918 -0.5148 -2.3112
  144SAPE  H11B15751   3.141   5.709  11.034 -0.2928 -0.0011  0.1292
  144SAPE     P15752   3.224   5.977  10.956  0.3053  0.4331 -0.3200
  144SAPE   O1315753   3.232   6.122  10.970 -0.3878  0.1781  0.0640
  144SAPE   O1415754   3.355   5.903  10.932  0.3478 -0.0879 -0.4701
  144SAPE   O1215755   3.140   5.914  11.078  0.2418  0.1635 -0.4397
  144SAPE   O1115756   3.127   5.953  10.835  0.2592  0.0774  0.1822
  144SAPE    C115757   3.136   5.841  10.747  0.1112 -0.0389 -0.1455
  144SAPE    HA15758   3.145   5.749  10.809 -2.2896 -0.4531 -0.3229
  144SAPE    HB15759   3.039   5.828  10.696  0.1848 -1.5014  0.0394
  144SAPE    C215760   3.252   5.845  10.643 -0.3133  0.5917 -0.1786
  144SAPE    HS15761   3.345   5.845  10.704 -0.1371  1.0865 -0.4448
  144SAPE   O2115762   3.231   5.959  10.563  0.0653 -0.1322  0.0797
  144SAPE   C2115763   3.315   6.054  10.571  0.7940 -0.0584 -0.4991
  144SAPE   O2215764   3.417   6.064  10.635 -0.4710  0.4258 -0.4331
  144SAPE   C2215765   3.284   6.161  10.467  0.0843 -0.2395  0.1585
  144SAPE   H2R15766   3.179   6.184  10.494  0.3608  0.5630  0.5666
  144SAPE   H2S15767   3.346   6.251  10.483 -0.8688  0.1284  1.9964
  144SAPE    C315768   3.242   5.718  10.547  0.3713 -0.3566 -0.2935
  144SAPE    HX15769   3.149   5.726  10.487  2.3325 -0.0695 -3.5276
  144SAPE    HY15770   3.229   5.626  10.608  1.8786  0.5400  1.5195
  144SAPE   O3115771   3.353   5.716  10.458 -0.4385 -0.1954 -0.3513
  144SAPE   C3115772   3.354   5.615  10.374  0.0036  0.7145  0.5063
  144SAPE   O3215773   3.272   5.523  10.376 -0.5192 -0.6356 -0.0255
  144SAPE   C3215774   3.479   5.625  10.282  1.1441 -0.1657  0.4763
  144SAPE   H2X15775   3.562   5.644  10.352 -0.2392  1.3521  1.7936
  144SAPE   H2Y15776   3.458   5.708  10.211 -0.1641 -1.8441 -1.2150
  144SAPE   C2315777   3.297   6.105  10.323 -0.1055 -0.0810  0.7524
  144SAPE   H3R15778   3.221   6.161  10.264  0.7405  0.5648  0.2525
  144SAPE   H3S15779   3.266   5.998  10.325 -0.7120  0.0998  1.4015
  144SAPE   C2415780   3.432   6.129  10.257  0.0327 -0.4892 -0.1707
  144SAPE   H4R15781   3.520   6.074  10.296  0.0092 -0.1484  0.3741
  144SAPE   H4S15782   3.454   6.234  10.284 -0.2556 -0.7573  1.1717
  144SAPE   C2515783   3.424   6.104  10.106 -0.8206 -0.2594 -0.0013
  144SAPE   H5R15784   3.341   6.145  10.045  0.1841 -1.5248 -2.3590
  144SAPE   C2615785   3.517   6.032  10.036 -0.3324  0.3521 -0.7776
  144SAPE   H6R15786   3.492   6.007   9.932  0.3091 -0.4610 -0.7460
  144SAPE   C2715787   3.630   5.958  10.091  0.0088 -0.3393  0.5042
  144SAPE   H7R15788   3.599   5.914  10.188 -4.0012  1.3814  0.1728
  144SAPE   H7S15789   3.711   6.030  10.118  0.6707 -1.2054  0.8877
  144SAPE   C2815790   3.691   5.847  10.001 -0.4835 -0.0568 -0.4995
  144SAPE   H8R15791   3.635   5.753  10.004  0.8978 -0.8776  1.9102
  144SAPE   C2915792   3.792   5.856   9.918  0.4850  0.0879 -0.4473
  144SAPE   H9R15793   3.829   5.767   9.864 -1.3047 -0.4709 -0.8170
  144SAPE  C21015794   3.872   5.985   9.898 -0.3144  0.3728 -0.0641
  144SAPE  H10R15795   3.869   6.057   9.982  0.3092  2.2002 -1.5410
  144SAPE  H10S15796   3.821   6.044   9.819 -0.5840 -0.3160 -0.4133
  144SAPE  C21115797   4.016   5.960   9.847 -0.0323 -0.7967  0.3033
  144SAPE  H11R15798   4.089   5.951   9.929 -0.4650 -1.0390  0.6673
  144SAPE  C21215799   4.050   5.967   9.714  0.0220 -0.3349 -0.2596
  144SAPE  H12R15800   4.150   5.931   9.688  0.0852 -1.4811  1.3959
  144SAPE  C21315801   3.962   6.001   9.600  0.3076 -0.3154  1.0011
  144SAPE  H13R15802   3.972   6.111   9.588  0.9945 -0.6164 -2.1832
  144SAPE  H13S15803   3.855   5.971   9.612  0.0796  0.4045  0.8519
  144SAPE  C21415804   4.006   5.944   9.468  0.1917 -0.9908  0.2266
  144SAPE  H14R15805   4.093   5.988   9.418 -2.1498  2.8576 -0.9122
  144SAPE  C21515806   3.958   5.826   9.414 -0.4865 -0.1815  0.5763
  144SAPE  H15R15807   4.006   5.796   9.319 -0.5564 -0.1679  0.5368
  144SAPE  C21615808   3.854   5.733   9.483  0.1378  0.1404  0.4515
  144SAPE  H16R15809   3.831   5.749   9.591 -1.3497 -2.8865  0.6991
  144SAPE  H16S15810   3.880   5.625   9.472 -0.1697  0.2449 -1.6028
  144SAPE  C21715811   3.711   5.739   9.425 -0.7802 -0.2811  0.4235
  144SAPE  H17R15812   3.658   5.652   9.469 -0.3658  0.0321  1.6028
  144SAPE  H17S15813   3.708   5.740   9.314 -1.6125 -2.1963  0.3983
  144SAPE  C21815814   3.634   5.872   9.457  0.3709 -1.2804 -0.0895
  144SAPE  H18R15815   3.532   5.870   9.412 -0.4104 -2.8461  1.6435
  144SAPE  H18S15816   3.688   5.959   9.414 -0.6983  1.3077  3.3511
  144SAPE  C21915817   3.591   5.884   9.603 -0.1679  0.4118 -0.4718
  144SAPE  H19R15818   3.679   5.902   9.667  0.2332 -0.1217 -0.8603
  144SAPE  H19S15819   3.540   5.788   9.629 -0.9003  0.8825 -0.1274
  144SAPE  C22015820   3.492   5.999   9.625  0.2478 -0.1920  0.3453
  144SAPE  H20R15821   3.519   6.094   9.574 -0.8833  0.2339  0.5026
  144SAPE  H20S15822   3.471   6.000   9.734 -2.2720 -2.8609  0.0141
  144SAPE  H20T15823   3.401   5.958   9.577  0.2055  1.2007 -0.8598
  144SAPE   C3315824   3.509   5.495  10.203 -0.0072  0.6648  0.1863
  144SAPE   H3X15825   3.521   5.408  10.271  0.8202 -0.4647 -1.3423
  144SAPE   H3Y15826   3.616   5.517  10.181  0.1912  1.0701  1.4849
  144SAPE   C3415827   3.422   5.458  10.083  0.2352 -0.1360  0.2494
  144SAPE   H4X15828   3.318   5.488  10.107  0.7916 -0.2125  3.0496
  144SAPE   H4Y15829   3.408   5.348  10.071  3.0305 -0.6375  0.7583
  144SAPE   C3515830   3.474   5.493   9.946  0.2032  0.0996 -0.1896
  144SAPE   H5X15831   3.576   5.449   9.936  0.7574  1.3191 -0.1678
  144SAPE   H5Y15832   3.486   5.604   9.942 -1.0368  0.2207 -1.0959
  144SAPE   C3615833   3.392   5.439   9.823  0.3543  0.0840 -0.2284
  144SAPE   H6X15834   3.288   5.475   9.830 -0.1066 -0.7466 -2.1473
  144SAPE   H6Y15835   3.389   5.328   9.827  2.0789  0.0174  0.3228
  144SAPE   C3715836   3.450   5.486   9.682  0.0862  0.9373 -0.3807
  144SAPE   H7X15837   3.558   5.466   9.695 -0.0976  0.5786  0.7090
  144SAPE   H7Y15838   3.439   5.597   9.682 -1.3174  0.8336  0.5806
  144SAPE   C3815839   3.389   5.419   9.557 -0.0730 -0.0521 -0.2166
  144SAPE   H8X15840   3.279   5.425   9.567 -0.4233 -4.2525  0.0859
  144SAPE   H8Y15841   3.423   5.314   9.567 -1.1402 -0.6507 -2.2113
  144SAPE   C3915842   3.419   5.481   9.419  0.1492 -0.4220 -0.2225
  144SAPE   H9X15843   3.523   5.464   9.385 -0.5496 -0.0503 -2.7261
  144SAPE   H9Y15844   3.407   5.590   9.432  2.9424  0.0181 -0.7048
  144SAPE  C31015845   3.330   5.423   9.305  0.3130  0.0391  0.1767
  144SAPE  H10X15846   3.364   5.472   9.211 -1.7932  0.8072 -0.2445
  144SAPE  H10Y15847   3.222   5.450   9.306  0.6517  1.6392 -1.2095
  144SAPE  C31115848   3.343   5.268   9.271  0.0039 -0.0093 -0.0313
  144SAPE  H11X15849   3.308   5.221   9.365 -1.9379  2.8509  0.8002
  144SAPE  H11Y15850   3.449   5.254   9.240 -0.3613 -0.0851 -1.2762
  144SAPE  C31215851   3.261   5.225   9.144  0.2611 -0.7083 -0.2159
  144SAPE  H12X15852   3.269   5.312   9.075  0.9165  0.6443  1.4908
  144SAPE  H12Y15853   3.154   5.220   9.175  0.5946 -1.5369  0.8634
  144SAPE  C31315854   3.307   5.102   9.082  0.0981 -0.1682 -0.3248
  144SAPE  H13X15855   3.316   5.031   9.167  0.1309  2.3159  1.8747
  144SAPE  H13Y15856   3.410   5.106   9.040  1.2561 -2.8597  1.9737
  144SAPE  C31415857   3.211   5.031   8.983 -0.4451  0.4441  0.0625
  144SAPE  H14X15858   3.139   4.977   9.049  1.6293 -1.0280  1.2503
  144SAPE  H14Y15859   3.279   4.966   8.925  1.3737  0.2695  2.2259
  144SAPE  C31515860   3.141   5.126   8.883 -0.2792 -0.6098 -0.0902
  144SAPE  H15X15861   3.212   5.166   8.807 -0.5573  2.5067  1.1225
  144SAPE  H15Y15862   3.115   5.222   8.933  0.8278 -0.3035 -0.0647
  144SAPE  C31615863   3.034   5.070   8.790 -0.5496 -0.8704 -0.3515
  144SAPE  H16X15864   3.078   5.006   8.710  1.0512 -1.6133  1.0718
  144SAPE  H16Y15865   2.988   5.163   8.751 -1.5428 -1.0325  0.3903
  144SAPE  C31715866   2.928   4.999   8.874 -0.2334 -0.2497 -0.2512
  144SAPE  H17X15867   2.985   4.916   8.922 -1.7388 -0.1639  1.8004
  144SAPE  H17Y15868   2.870   4.942   8.799 -2.6203 -2.9403  3.3073
  144SAPE  C31815869   2.844   5.077   8.969  0.0951 -0.0213  0.0680
  144SAPE  H18X15870   2.902   5.157   9.019  0.3761  0.1574 -0.5316
  144SAPE  H18Y15871   2.795   5.015   9.047  0.4388  0.5525  0.7503
  144SAPE  H18Z15872   2.775   5.130   8.899  0.1561 -0.1036 -0.0566
  145SAPE     N15873   3.829   0.677  11.483 -0.0859 -0.3654  0.2570
  145SAPE   HN115874   3.794   0.775  11.485  1.6164  0.3696 -1.6914
  145SAPE   HN215875   3.772   0.600  11.522  0.7704 -2.2181 -1.9417
  145SAPE   HN315876   3.922   0.679  11.530  0.0270 -0.2786  0.0309
  145SAPE   C1215877   3.843   0.671  11.332 -0.3545 -0.0159 -0.0014
  145SAPE  H12A15878   3.911   0.585  11.316 -0.8025 -0.1542 -1.2362
  145SAPE  H12B15879   3.886   0.770  11.307  0.0149  0.9187  3.7591
  145SAPE   C1115880   3.712   0.654  11.255 -0.0847  0.4363  0.6347
  145SAPE  H11A15881   3.733   0.668  11.147 -1.2998  1.2848  0.4867
  145SAPE  H11B15882   3.639   0.736  11.268 -0.6022  0.1019 -0.0649
  145SAPE     P15883   3.665   0.410  11.183  0.4740 -0.4033 -0.1269
  145SAPE   O1315884   3.809   0.370  11.190  0.1788  0.1470 -0.2724
  145SAPE   O1415885   3.563   0.313  11.217  0.2669 -0.0392  0.0990
  145SAPE   O1215886   3.650   0.526  11.283 -0.3793  0.1690 -0.0466
  145SAPE   O1115887   3.645   0.478  11.042  0.3378 -0.5538 -0.7027
  145SAPE    C115888   3.508   0.513  10.998 -0.2908  0.4226 -0.5372
  145SAPE    HA15889   3.433   0.479  11.073  1.6530  0.9971  1.8032
  145SAPE    HB15890   3.498   0.624  10.998  1.2245  0.6612  2.2199
  145SAPE    C215891   3.467   0.442  10.869  0.8601 -0.1923 -0.3903
  145SAPE    HS15892   3.492   0.335  10.889 -1.8698 -0.5287  1.7586
  145SAPE   O2115893   3.546   0.486  10.762  0.2773  0.0029 -0.0954
  145SAPE   C2115894   3.522   0.596  10.701 -0.7840 -0.4494 -0.5746
  145SAPE   O2215895   3.441   0.684  10.733 -0.5212  0.9044 -0.6973
  145SAPE   C2215896   3.636   0.615  10.598  0.2581 -0.1481  0.2311
  145SAPE   H2R15897   3.724   0.631  10.665  0.3144 -2.0389  0.6610
  145SAPE   H2S15898   3.648   0.514  10.553  1.7354  0.4250 -0.7547
  145SAPE    C315899   3.311   0.437  10.841  0.4509  0.0003  0.0869
  145SAPE    HX15900   3.276   0.536  10.877 -0.7227 -0.1412 -0.6070
  145SAPE    HY15901   3.251   0.367  10.903  1.0875 -1.0215 -0.4177
  145SAPE   O3115902   3.276   0.422  10.700 -0.1631 -0.0916  0.1955
  145SAPE   C3115903   3.275   0.303  10.639 -0.0367  0.0045 -0.1807
  145SAPE   O3215904   3.311   0.195  10.684 -0.5972  0.2386  0.4843
  145SAPE   C3215905   3.238   0.320  10.489  0.4239 -0.3068  0.2832
  145SAPE   H2X15906   3.331   0.334  10.431  0.4894 -2.9864 -0.4179
  145SAPE   H2Y15907   3.167   0.405  10.476  0.7126  0.1100  1.3545
  145SAPE   C2315908   3.610   0.724  10.491 -0.9412  0.3357 -0.4087
  145SAPE   H3R15909   3.695   0.724  10.420 -1.7149 -0.0837 -1.3603
  145SAPE   H3S15910   3.617   0.826  10.534 -0.2878  0.7973 -1.5505
  145SAPE   C2415911   3.484   0.697  10.408  0.5747  0.3961  1.0736
  145SAPE   H4R15912   3.389   0.687  10.465 -0.2432  0.9675 -0.1472
  145SAPE   H4S15913   3.496   0.591  10.376  1.9772  1.1569 -1.1113
  145SAPE   C2515914   3.460   0.780  10.284  0.2043 -0.8171  0.0067
  145SAPE   H5R15915   3.407   0.875  10.298  0.7590 -0.4179 -0.4951
  145SAPE   C2615916   3.505   0.768  10.159  0.0784 -0.0295 -0.3634
  145SAPE   H6R15917   3.476   0.831  10.074 -1.9575 -0.5444 -0.1094
  145SAPE   C2715918   3.587   0.648  10.119 -0.1938 -0.2383 -0.4262
  145SAPE   H7R15919   3.659   0.611  10.196  0.0548 -0.4364 -0.7528
  145SAPE   H7S15920   3.658   0.673  10.038  3.2668  1.2067  2.7550
  145SAPE   C2815921   3.496   0.528  10.091 -0.6996  0.1052  0.2024
  145SAPE   H8R15922   3.446   0.491  10.182  1.0754 -0.0487  1.1598
  145SAPE   C2915923   3.474   0.469   9.967  0.4961  0.4804 -0.5198
  145SAPE   H9R15924   3.403   0.386   9.955  1.0456  0.0399 -0.8215
  145SAPE  C21015925   3.534   0.503   9.828 -0.4775  0.1112 -0.2413
  145SAPE  H10R15926   3.533   0.408   9.771 -1.3947 -0.2607  0.3548
  145SAPE  H10S15927   3.636   0.541   9.852 -0.3840 -1.8598  3.1747
  145SAPE  C21115928   3.466   0.612   9.756  0.0361 -0.4299  0.4062
  145SAPE  H11R15929   3.445   0.700   9.818 -1.1358 -0.3888 -0.0037
  145SAPE  C21215930   3.442   0.603   9.616 -0.5930 -0.2788 -0.9714
  145SAPE  H12R15931   3.388   0.690   9.578 -0.0067  0.9360  0.8442
  145SAPE  C21315932   3.482   0.498   9.517  0.7948  0.1604  0.9577
  145SAPE  H13R15933   3.556   0.424   9.554  0.6059 -0.1076  0.7965
  145SAPE  H13S15934   3.527   0.542   9.426  3.4706 -2.1111  1.0448
  145SAPE  C21415935   3.358   0.411   9.488 -0.0985 -0.0558  0.3644
  145SAPE  H14R15936   3.347   0.334   9.565 -1.7952 -0.3048 -0.0931
  145SAPE  C21515937   3.277   0.413   9.382 -0.3274 -0.1788 -0.2568
  145SAPE  H15R15938   3.193   0.343   9.374 -1.1466  0.6547  0.7927
  145SAPE  C21615939   3.293   0.503   9.270  0.1563 -0.4545  0.3961
  145SAPE  H16R15940   3.361   0.586   9.296  1.1635 -2.1532  3.7377
  145SAPE  H16S15941   3.190   0.534   9.242 -0.2983 -1.4568  0.9111
  145SAPE  C21715942   3.361   0.436   9.157  0.3594 -0.1044 -0.1480
  145SAPE  H17R15943   3.299   0.349   9.126  0.3807 -0.0681 -0.2931
  145SAPE  H17S15944   3.449   0.379   9.193 -1.1157 -2.4762 -0.0890
  145SAPE  C21815945   3.382   0.528   9.036  0.3145  0.0457 -0.2643
  145SAPE  H18R15946   3.459   0.476   8.975  0.7080  0.0227  0.2453
  145SAPE  H18S15947   3.417   0.629   9.067 -2.7492  1.2446 -0.3631
  145SAPE  C21915948   3.260   0.536   8.947  0.6636  0.2497  0.2311
  145SAPE  H19R15949   3.168   0.526   9.009 -0.2357  2.0245 -0.7146
  145SAPE  H19S15950   3.263   0.452   8.875  0.3560  0.2259  0.2433
  145SAPE  C22015951   3.244   0.667   8.867  0.8966 -0.1378 -0.1096
  145SAPE  H20R15952   3.343   0.688   8.819 -0.6744 -0.1909 -3.6913
  145SAPE  H20S15953   3.221   0.753   8.934  0.7337  0.2887 -0.7067
  145SAPE  H20T15954   3.165   0.680   8.790  0.8316 -1.9225 -0.3882
  145SAPE   C3315955   3.167   0.192  10.430 -0.4072 -0.5182  0.1430
  145SAPE   H3X15956   3.081   0.170  10.496  0.4364  2.4427  2.5074
  145SAPE   H3Y15957   3.236   0.106  10.446 -1.5467 -1.7594 -1.4104
  145SAPE   C3415958   3.143   0.226  10.282  0.5458 -0.1828  0.6685
  145SAPE   H4X15959   3.230   0.279  10.237 -0.0561 -0.1633 -0.5241
  145SAPE   H4Y15960   3.055   0.295  10.277  0.2840 -0.5607 -0.1140
  145SAPE   C3515961   3.108   0.098  10.200 -0.4975 -0.0769 -0.3685
  145SAPE   H5X15962   3.026   0.044  10.252 -1.7070  1.9024 -0.1310
  145SAPE   H5Y15963   3.197   0.034  10.218 -0.3407  0.2118 -0.1127
  145SAPE   C3615964   3.078   0.136  10.050  0.1555  0.4035 -0.4565
  145SAPE   H6X15965   3.160   0.183   9.992  0.4744 -0.3559 -0.6271
  145SAPE   H6Y15966   3.000   0.215  10.052  0.7029  0.9863 -1.4474
  145SAPE   C3715967   3.038   0.012   9.958  0.7823  0.3198 -0.5858
  145SAPE   H7X15968   2.954  -0.044  10.002  2.0266  0.6916  2.4782
  145SAPE   H7Y15969   3.132  -0.048   9.956  0.9797  0.5666  0.8352
  145SAPE   C3815970   2.996   0.052   9.816  0.1414  0.0610 -0.2387
  145SAPE   H8X15971   3.080   0.108   9.770  2.4709 -1.7231  1.5826
  145SAPE   H8Y15972   2.905   0.114   9.805 -1.2638 -1.7655  0.4975
  145SAPE   C3915973   2.983  -0.071   9.729 -0.3189  0.4828  0.5629
  145SAPE   H9X15974   2.915  -0.145   9.778 -2.2598  2.1193  0.4931
  145SAPE   H9Y15975   3.084  -0.116   9.724 -1.3706 -1.9412 -4.1770
  145SAPE  C31015976   2.935  -0.049   9.586 -0.5643 -0.1691 -0.2385
  145SAPE  H10X15977   3.009   0.017   9.535 -0.4163 -0.0562  0.1236
  145SAPE  H10Y15978   2.829  -0.016   9.590 -0.5882 -0.2289 -0.3763
  145SAPE  C31115979   2.946  -0.179   9.499 -0.1116  0.5878 -0.4161
  145SAPE  H11X15980   2.885  -0.258   9.547  1.4322  0.0834  0.8013
  145SAPE  H11Y15981   3.051  -0.214   9.504  1.1074  3.8097 -0.9500
  145SAPE  C31215982   2.907  -0.161   9.355 -0.0172  0.3076  0.0204
  145SAPE  H12X15983   2.980  -0.095   9.304  1.3289 -0.4579  0.9200
  145SAPE  H12Y15984   2.807  -0.111   9.352  0.4776  1.4413  1.2016
  145SAPE  C31315985   2.901  -0.292   9.282  0.1322  0.5269  0.3636
  145SAPE  H13X15986   2.820  -0.356   9.323 -0.0762  0.3230 -0.3490
  145SAPE  H13Y15987   3.001  -0.337   9.299  1.5493  3.5621  0.7850
  145SAPE  C31415988   2.887  -0.288   9.124  0.3582 -0.2572 -1.2181
  145SAPE  H14X15989   2.974  -0.235   9.082  1.5890 -2.9295 -2.2775
  145SAPE  H14Y15990   2.799  -0.229   9.091  1.0839  0.3535 -2.1185
  145SAPE  C31515991   2.884  -0.427   9.058  0.4758  0.1105 -0.4067
  145SAPE  H15X15992   2.779  -0.465   9.065 -0.1050  1.0852 -2.6734
  145SAPE  H15Y15993   2.951  -0.497   9.112  0.8893  2.0351  1.7521
  145SAPE  C31615994   2.909  -0.420   8.908 -0.1677 -0.1880  0.5263
  145SAPE  H16X15995   3.014  -0.385   8.894 -0.3823  0.4393  0.4897
  145SAPE  H16Y15996   2.848  -0.343   8.857  1.4656  1.0132  0.3240
  145SAPE  C31715997   2.890  -0.545   8.821 -0.4796 -0.2716 -0.2591
  145SAPE  H17X15998   2.798  -0.597   8.857  0.5732 -1.2167  1.1709
  145SAPE  H17Y15999   2.979  -0.610   8.830 -1.0290 -1.0767 -0.5739
  145SAPE  C31816000   2.880  -0.512   8.670 -0.6323  0.0903  0.0752
  145SAPE  H18X16001   2.837  -0.410   8.663 -0.7428  0.1379  1.2188
  145SAPE  H18Y16002   2.821  -0.580   8.606  1.7448  0.1386 -2.3436
  145SAPE  H18Z16003   2.984  -0.507   8.630  0.0108 -1.6508  1.3627
  146SAPE     N16004   4.132   6.442  11.046  1.0302  0.3362 -0.1659
  146SAPE   HN116005   4.152   6.516  11.117  1.4804 -2.9143  3.4380
  146SAPE   HN216006   4.147   6.355  11.101 -0.4753  1.5662  2.4106
  146SAPE   HN316007   4.195   6.442  10.964  1.4880 -0.2890  0.1791
  146SAPE   C1216008   3.988   6.463  11.012  0.4619 -0.1814 -0.1800
  146SAPE  H12A16009   3.965   6.570  10.989 -0.5704 -0.5824 -1.0938
  146SAPE  H12B16010   3.921   6.444  11.098  0.7264  1.8391  0.5459
  146SAPE   C1116011   3.955   6.388  10.888 -0.1202  0.0468  0.0144
  146SAPE  H11A16012   4.020   6.418  10.802 -1.4784  1.3369 -0.6062
  146SAPE  H11B16013   3.853   6.418  10.855  0.8424  1.5495 -1.8086
  146SAPE     P16014   3.913   6.127  10.841  0.2519  0.3681  0.2321
  146SAPE   O1316015   4.009   6.015  10.834 -0.0789 -0.2681  0.0970
  146SAPE   O1416016   3.775   6.105  10.908 -0.4801  0.1937 -0.4354
  146SAPE   O1216017   3.984   6.249  10.919 -0.5139 -0.6450 -0.1248
  146SAPE   O1116018   3.883   6.186  10.697 -0.0553  0.4641 -0.2429
  146SAPE    C116019   3.753   6.145  10.643 -0.4758  0.0650  0.0421
  146SAPE    HA16020   3.735   6.035  10.645 -0.2014 -0.0336 -1.4511
  146SAPE    HB16021   3.674   6.204  10.693 -1.3128  1.5180 -2.8233
  146SAPE    C216022   3.726   6.196  10.504 -0.0313 -0.5002  0.0413
  146SAPE    HS16023   3.623   6.162  10.483 -0.6720  0.1271  1.9016
  146SAPE   O2116024   3.816   6.126  10.412 -0.5193 -0.3954 -0.5474
  146SAPE   C2116025   3.793   5.996  10.402 -0.1364 -0.1206 -0.2535
  146SAPE   O2216026   3.696   5.940  10.448 -0.5495  0.3646  0.0103
  146SAPE   C2216027   3.900   5.940  10.309  0.3789  0.5118  0.2158
  146SAPE   H2R16028   3.892   6.005  10.220  0.4509  1.0847  0.6193
  146SAPE   H2S16029   4.004   5.952  10.347  0.5801 -0.6033  0.0401
  146SAPE    C316030   3.749   6.350  10.494  0.5357  0.0728 -0.0432
  146SAPE    HX16031   3.860   6.354  10.487  0.6875 -1.9391  0.6677
  146SAPE    HY16032   3.703   6.399  10.582  0.1483 -0.4601  0.0558
  146SAPE   O3116033   3.686   6.395  10.371  0.5711 -1.0459  0.0533
  146SAPE   C3116034   3.727   6.516  10.337  0.0964 -1.0197 -0.4206
  146SAPE   O3216035   3.802   6.590  10.403  0.0056 -0.1784  0.5054
  146SAPE   C3216036   3.671   6.543  10.192  0.7257 -0.3908  0.3357
  146SAPE   H2X16037   3.689   6.647  10.158 -2.7138  0.2060  0.0369
  146SAPE   H2Y16038   3.567   6.507  10.179  1.5210 -2.3806 -1.0916
  146SAPE   C2316039   3.875   5.790  10.289 -0.4877  0.4826 -0.2245
  146SAPE   H3R16040   3.773   5.774  10.250 -1.2479  1.9455  1.0943
  146SAPE   H3S16041   3.869   5.741  10.389 -2.6030  1.4478  0.1626
  146SAPE   C2416042   3.993   5.713  10.212  0.2432 -0.3015 -0.6128
  146SAPE   H4R16043   4.003   5.772  10.119  0.7709  0.3715 -0.1407
  146SAPE   H4S16044   3.973   5.605  10.200 -1.9484  0.0039 -0.1727
  146SAPE   C2516045   4.122   5.732  10.292  0.9166 -0.4194  0.0341
  146SAPE   H5R16046   4.125   5.695  10.395 -0.3801  0.5983  0.4691
  146SAPE   C2616047   4.234   5.796  10.247  0.0068 -0.4298  0.4529
  146SAPE   H6R16048   4.311   5.807  10.325 -0.4352  1.1501  0.6948
  146SAPE   C2716049   4.260   5.867  10.119  0.1610  0.2622  0.8881
  146SAPE   H7R16050   4.213   5.966  10.139 -0.7135 -0.2633  1.5161
  146SAPE   H7S16051   4.206   5.819  10.035 -1.2736  1.0406  1.3197
  146SAPE   C2816052   4.403   5.891  10.078 -0.9398 -0.0465 -0.3601
  146SAPE   H8R16053   4.472   5.917  10.160  0.9338  0.1859 -1.9386
  146SAPE   C2916054   4.468   5.867   9.965  0.0700  0.9388 -0.1898
  146SAPE   H9R16055   4.577   5.884   9.968  0.2052 -0.0451  0.8275
  146SAPE  C21016056   4.408   5.809   9.830 -0.4584 -0.0014  0.0790
  146SAPE  H10R16057   4.299   5.789   9.839 -0.3703 -0.4754  0.1183
  146SAPE  H10S16058   4.450   5.708   9.810 -1.8649 -0.7856  0.8986
  146SAPE  C21116059   4.446   5.901   9.709  0.0438  0.0531 -0.4185
  146SAPE  H11R16060   4.420   6.008   9.716  1.8004  0.4386  0.7916
  146SAPE  C21216061   4.510   5.854   9.598  0.5442  0.3125 -0.2815
  146SAPE  H12R16062   4.552   5.930   9.531  1.4958  1.9007  1.9909
  146SAPE  C21316063   4.555   5.709   9.574  1.0657  0.0009 -0.9386
  146SAPE  H13R16064   4.470   5.638   9.573  1.5598 -0.5808 -2.1460
  146SAPE  H13S16065   4.613   5.676   9.663  0.7527  4.0740  1.0382
  146SAPE  C21416066   4.631   5.682   9.448  0.1347  0.6206 -0.6374
  146SAPE  H14R16067   4.734   5.658   9.478 -0.7015 -1.3977  0.8637
  146SAPE  C21516068   4.589   5.670   9.321  0.2682 -0.7687  0.0435
  146SAPE  H15R16069   4.668   5.677   9.245  0.5802  1.4761  0.4942
  146SAPE  C21616070   4.448   5.689   9.266 -0.0095  0.3094 -0.7200
  146SAPE  H16R16071   4.367   5.703   9.341 -0.8558 -0.0696 -1.5305
  146SAPE  H16S16072   4.426   5.602   9.200  0.3618  0.3875 -0.9489
  146SAPE  C21716073   4.435   5.815   9.182  0.7403 -0.0331 -0.4587
  146SAPE  H17R16074   4.511   5.800   9.103  1.1095 -2.0225  0.2190
  146SAPE  H17S16075   4.450   5.902   9.250  0.2784 -0.8994  0.7992
  146SAPE  C21816076   4.293   5.846   9.123  0.4443 -0.3643  0.3615
  146SAPE  H18R16077   4.216   5.853   9.202  3.2429  0.5207  3.2170
  146SAPE  H18S16078   4.264   5.766   9.051  1.1940 -2.2895  2.1143
  146SAPE  C21916079   4.276   5.975   9.044  0.1408  0.1317  0.4688
  146SAPE  H19R16080   4.261   6.062   9.111 -0.5319 -1.2221  2.1447
  146SAPE  H19S16081   4.189   5.960   8.977  1.1326 -0.1274 -0.8010
  146SAPE  C22016082   4.399   6.011   8.955  0.5058  0.3613 -0.0043
  146SAPE  H20R16083   4.357   6.100   8.903  0.1425 -0.5107 -1.2566
  146SAPE  H20S16084   4.416   5.929   8.882 -2.1562  1.3199 -1.8869
  146SAPE  H20T16085   4.488   6.048   9.010  0.4246 -2.3828  2.2283
  146SAPE   C3316086   3.744   6.444  10.095 -0.2591 -0.0479 -0.3739
  146SAPE   H3X16087   3.728   6.342  10.138 -0.4369  0.1563  0.0492
  146SAPE   H3Y16088   3.853   6.463  10.095 -0.1791  0.9714  5.0175
  146SAPE   C3416089   3.667   6.451   9.953 -0.3395 -0.7128 -0.7612
  146SAPE   H4X16090   3.672   6.559   9.928 -1.6625 -1.1830 -3.4066
  146SAPE   H4Y16091   3.559   6.430   9.965 -0.7545  1.5664  0.1053
  146SAPE   C3516092   3.733   6.364   9.841  0.1317  0.4015 -0.8249
  146SAPE   H5X16093   3.721   6.257   9.869 -0.2127  0.3368 -1.2132
  146SAPE   H5Y16094   3.842   6.376   9.830  1.0329 -4.7869 -0.1267
  146SAPE   C3616095   3.662   6.392   9.714 -0.6310 -0.5585  0.5206
  146SAPE   H6X16096   3.663   6.500   9.689 -2.3214 -0.8179 -0.8790
  146SAPE   H6Y16097   3.562   6.344   9.721 -1.8703  1.8457  0.2857
  146SAPE   C3716098   3.744   6.324   9.602 -0.0772 -0.2310  0.3271
  146SAPE   H7X16099   3.751   6.216   9.629 -0.8333 -0.1115  1.0498
  146SAPE   H7Y16100   3.846   6.366   9.614  0.3996 -1.3859  0.4463
  146SAPE   C3816101   3.684   6.335   9.469  1.1272 -0.2057 -0.4292
  146SAPE   H8X16102   3.679   6.439   9.432  0.3806 -0.0047  0.2220
  146SAPE   H8Y16103   3.584   6.287   9.464  1.3040 -0.6398  0.0948
  146SAPE   C3916104   3.760   6.258   9.353  0.0268  0.4385 -0.4452
  146SAPE   H9X16105   3.771   6.150   9.378 -0.4260  0.5191  0.1199
  146SAPE   H9Y16106   3.860   6.298   9.329  0.1217  1.3034  1.2354
  146SAPE  C31016107   3.694   6.267   9.209 -0.3578 -0.0455 -0.7932
  146SAPE  H10X16108   3.697   6.375   9.183  0.1044  0.3016  0.5846
  146SAPE  H10Y16109   3.588   6.237   9.227 -0.0811 -0.0834  1.0347
  146SAPE  C31116110   3.754   6.180   9.102 -0.3696  0.1354  0.1045
  146SAPE  H11X16111   3.857   6.219   9.084 -0.7182  1.7625  1.3286
  146SAPE  H11Y16112   3.701   6.213   9.010 -1.2407  0.1383  0.5956
  146SAPE  C31216113   3.762   6.030   9.124  0.3347 -0.2135 -0.0875
  146SAPE  H12X16114   3.681   5.986   9.186 -0.6337  1.1398 -0.3535
  146SAPE  H12Y16115   3.854   6.018   9.185 -0.0310  1.5944  0.8993
  146SAPE  C31316116   3.755   5.954   8.994  0.1941 -0.2587  0.7000
  146SAPE  H13X16117   3.844   5.971   8.929  0.5563 -1.8087  0.7580
  146SAPE  H13Y16118   3.675   5.998   8.931  1.2951  0.4828 -0.2380
  146SAPE  C31416119   3.743   5.796   9.021  0.1531 -0.3006 -0.2762
  146SAPE  H14X16120   3.655   5.772   9.085  0.9213 -0.4076  0.7683
  146SAPE  H14Y16121   3.834   5.772   9.081 -0.4485  1.3357  1.4168
  146SAPE  C31516122   3.721   5.707   8.899  0.4611  0.5284  0.1798
  146SAPE  H15X16123   3.811   5.681   8.840  0.3535 -0.7249  0.5328
  146SAPE  H15Y16124   3.645   5.758   8.836  0.5407  1.5802  0.9114
  146SAPE  C31616125   3.644   5.577   8.946 -0.7729  0.4205  0.7879
  146SAPE  H16X16126   3.546   5.596   8.993 -0.0669 -0.2769  2.6490
  146SAPE  H16Y16127   3.701   5.519   9.022  0.7970 -1.5688 -1.7368
  146SAPE  C31716128   3.644   5.491   8.818 -0.1278  0.2669 -0.2578
  146SAPE  H17X16129   3.750   5.492   8.788  0.5232  2.7683  1.7616
  146SAPE  H17Y16130   3.587   5.543   8.738  0.5203  1.7427  0.2018
  146SAPE  C31816131   3.593   5.351   8.847  0.2166 -0.3276 -0.2864
  146SAPE  H18X16132   3.486   5.365   8.874 -0.4899 -2.5105 -1.6976
  146SAPE  H18Y16133   3.642   5.307   8.936  2.5320  4.1023  0.9337
  146SAPE  H18Z16134   3.611   5.293   8.754  3.8845  2.2614 -1.4241
  147SAPE     N16135   5.681   4.313   5.999 -0.0989  0.3058  0.6196
  147SAPE   HN116136   5.686   4.308   6.103  0.9127  1.8346  0.6786
  147SAPE   HN216137   5.637   4.227   5.960 -2.2248  1.8601 -0.6692
  147SAPE   HN316138   5.776   4.335   5.964 -0.3684 -0.2282 -0.4798
  147SAPE   C1216139   5.620   4.440   5.946  0.3411  0.0979 -0.1605
  147SAPE  H12A16140   5.659   4.458   5.844  0.6986  2.1085  0.2841
  147SAPE  H12B16141   5.649   4.529   6.007  2.7447 -0.1881 -0.8222
  147SAPE   C1116142   5.466   4.435   5.935 -0.3780 -0.5529  0.1797
  147SAPE  H11A16143   5.443   4.334   5.894 -1.6829  0.0186 -0.5506
  147SAPE  H11B16144   5.419   4.503   5.860 -2.2631 -1.7703  0.1781
  147SAPE     P16145   5.374   4.337   6.165 -0.2661  0.0177 -0.0663
  147SAPE   O1316146   5.249   4.363   6.237 -0.1457 -0.3418  0.0126
  147SAPE   O1416147   5.391   4.204   6.101  0.1170 -0.4150 -0.2994
  147SAPE   O1216148   5.399   4.452   6.055 -0.2865 -0.0007  0.5322
  147SAPE   O1116149   5.488   4.354   6.268  0.2211 -0.0050 -0.1825
  147SAPE    C116150   5.491   4.459   6.370  0.4586 -0.0742 -0.1720
  147SAPE    HA16151   5.441   4.552   6.336  2.7961  1.4622  0.3898
  147SAPE    HB16152   5.458   4.424   6.470 -2.7788 -0.8624 -1.4033
  147SAPE    C216153   5.636   4.519   6.386  0.4237 -0.4333 -0.6774
  147SAPE    HS16154   5.672   4.544   6.284  1.2941  0.1135 -0.2513
  147SAPE   O2116155   5.709   4.417   6.454 -0.1950  0.1131  0.0729
  147SAPE   C2116156   5.773   4.330   6.377  0.0986 -1.2541 -0.4004
  147SAPE   O2216157   5.763   4.322   6.257 -0.1768 -0.6934  0.3019
  147SAPE   C2216158   5.876   4.266   6.468 -0.5605  0.1429 -0.6886
  147SAPE   H2R16159   5.827   4.205   6.547  2.0226 -1.1139  0.0467
  147SAPE   H2S16160   5.949   4.213   6.404  0.4166  0.0978  0.4185
  147SAPE    C316161   5.623   4.657   6.466  0.0439  0.3799  0.1151
  147SAPE    HX16162   5.594   4.740   6.399 -0.7021 -1.5030 -2.0229
  147SAPE    HY16163   5.725   4.670   6.510 -1.3569  2.4310  3.0484
  147SAPE   O3116164   5.530   4.649   6.578  0.4754 -0.8421 -0.0589
  147SAPE   C3116165   5.534   4.752   6.663  0.4094 -0.3172 -0.0803
  147SAPE   O3216166   5.622   4.839   6.661 -0.1718  0.2550  0.7028
  147SAPE   C3216167   5.425   4.741   6.762  0.6045  0.5457 -0.3039
  147SAPE   H2X16168   5.334   4.752   6.698  1.5978 -1.6603 -2.2885
  147SAPE   H2Y16169   5.420   4.826   6.833  1.7792  1.4756 -1.2919
  147SAPE   C2316170   5.951   4.368   6.560 -0.5948  0.0545 -0.0227
  147SAPE   H3R16171   5.876   4.412   6.628 -0.0925  1.5618 -0.4124
  147SAPE   H3S16172   6.007   4.448   6.508  1.2332 -2.2574 -1.8767
  147SAPE   C2416173   6.067   4.304   6.645  0.4495  0.4148  0.0557
  147SAPE   H4R16174   6.119   4.394   6.682  0.1958 -0.4055  2.6114
  147SAPE   H4S16175   6.134   4.248   6.577 -0.0842 -2.2226  1.5597
  147SAPE   C2516176   6.024   4.220   6.756  0.2306  0.0473  0.4384
  147SAPE   H5R16177   6.010   4.112   6.737  1.4227 -0.4690  2.1852
  147SAPE   C2616178   6.018   4.266   6.882 -0.0952 -0.3170 -0.3748
  147SAPE   H6R16179   6.006   4.190   6.961 -0.1310  1.0671  0.9830
  147SAPE   C2716180   6.043   4.407   6.931 -0.5655  0.6688  0.1830
  147SAPE   H7R16181   6.098   4.471   6.859 -0.5800  1.8535  1.1912
  147SAPE   H7S16182   6.107   4.409   7.021  0.7329 -1.0170 -0.6259
  147SAPE   C2816183   5.914   4.475   6.961  0.6635 -0.3121 -0.7720
  147SAPE   H8R16184   5.847   4.486   6.875 -1.6719 -3.6348  0.4097
  147SAPE   C2916185   5.869   4.530   7.082 -0.0688 -0.3745  0.3362
  147SAPE   H9R16186   5.768   4.570   7.098  0.3476 -0.0376  2.5093
  147SAPE  C21016187   5.942   4.527   7.215  0.5510 -0.1701 -0.5737
  147SAPE  H10R16188   5.933   4.624   7.269  2.1463  0.0515 -0.6539
  147SAPE  H10S16189   6.050   4.517   7.189  0.5115  0.6322 -1.0962
  147SAPE  C21116190   5.912   4.409   7.296 -0.1410  0.0483 -0.2986
  147SAPE  H11R16191   5.952   4.316   7.252 -0.4081  0.1903 -0.8493
  147SAPE  C21216192   5.845   4.406   7.421  0.9396  0.0137  0.6418
  147SAPE  H12R16193   5.841   4.309   7.472 -0.5588  0.6510  1.8011
  147SAPE  C21316194   5.784   4.523   7.493 -0.3832 -0.5073 -0.0269
  147SAPE  H13R16195   5.692   4.549   7.437 -0.9739 -0.2760  1.0425
  147SAPE  H13S16196   5.844   4.614   7.470  1.1736 -0.9650  1.9294
  147SAPE  C21416197   5.741   4.515   7.635  0.1958 -0.7644 -0.0886
  147SAPE  H14R16198   5.635   4.500   7.659  0.2557  0.8866  1.4556
  147SAPE  C21516199   5.822   4.526   7.744 -0.1502 -0.0666 -0.6256
  147SAPE  H15R16200   5.774   4.526   7.843  0.2584  0.7460 -0.4167
  147SAPE  C21616201   5.967   4.555   7.731  0.4111 -0.1621 -0.0865
  147SAPE  H16R16202   5.969   4.646   7.667 -1.9903  0.5714  0.7575
  147SAPE  H16S16203   6.022   4.469   7.687  0.0384 -0.4279 -0.0402
  147SAPE  C21716204   6.033   4.593   7.861  0.0104  0.1414 -0.0412
  147SAPE  H17R16205   5.974   4.668   7.918 -0.0363 -0.0540  0.1690
  147SAPE  H17S16206   6.129   4.647   7.843 -0.4317  1.7353  2.0103
  147SAPE  C21816207   6.056   4.464   7.944 -0.0812  0.0984  0.4993
  147SAPE  H18R16208   6.121   4.397   7.884 -0.5625 -0.2935  0.4185
  147SAPE  H18S16209   5.961   4.408   7.954  0.6150 -1.8153 -2.3349
  147SAPE  C21916210   6.134   4.487   8.075  0.5281 -0.4790 -0.0228
  147SAPE  H19R16211   6.079   4.557   8.142  0.1756 -0.8994  0.1320
  147SAPE  H19S16212   6.231   4.537   8.054 -0.9863  2.0838 -1.3119
  147SAPE  C22016213   6.154   4.361   8.155 -0.3435 -0.6490  0.2459
  147SAPE  H20R16214   6.175   4.271   8.093  1.1114 -0.5554  0.5635
  147SAPE  H20S16215   6.062   4.347   8.216 -0.9034  0.9994 -0.1911
  147SAPE  H20T16216   6.242   4.368   8.223 -0.5497  0.0314  0.4453
  147SAPE   C3316217   5.406   4.602   6.824 -1.2610 -0.8873  0.2146
  147SAPE   H3X16218   5.500   4.580   6.878 -0.8100 -0.2581 -0.3029
  147SAPE   H3Y16219   5.392   4.524   6.746  0.1080 -0.9488  0.0186
  147SAPE   C3416220   5.276   4.592   6.906  0.0069  0.2638  0.3079
  147SAPE   H4X16221   5.249   4.485   6.899 -2.1352  0.8678 -2.4570
  147SAPE   H4Y16222   5.198   4.643   6.845  1.1024 -0.3508 -1.7141
  147SAPE   C3516223   5.283   4.652   7.038 -0.0926 -0.1484 -0.7895
  147SAPE   H5X16224   5.295   4.762   7.042 -2.7044  0.1767 -0.3814
  147SAPE   H5Y16225   5.362   4.592   7.089 -1.4442 -1.5284 -0.2452
  147SAPE   C3616226   5.169   4.621   7.137  0.6706  0.0352 -0.3298
  147SAPE   H6X16227   5.121   4.522   7.121 -0.0927  0.2557  0.5403
  147SAPE   H6Y16228   5.088   4.694   7.113 -0.3081 -0.9772 -0.2029
  147SAPE   C3716229   5.211   4.615   7.288 -0.7030  0.1119 -0.7141
  147SAPE   H7X16230   5.122   4.616   7.355 -0.4660  2.2135 -0.3426
  147SAPE   H7Y16231   5.258   4.713   7.311 -0.0469 -0.4506  0.4205
  147SAPE   C3816232   5.296   4.497   7.321  0.8368  0.2975 -0.0048
  147SAPE   H8X16233   5.377   4.488   7.245 -0.6926 -1.3331 -1.5377
  147SAPE   H8Y16234   5.232   4.407   7.312  0.9611  0.4029 -3.3260
  147SAPE   C3916235   5.358   4.490   7.465  0.2936 -0.1106  0.0908
  147SAPE   H9X16236   5.408   4.589   7.474 -1.4304  0.6169  2.2376
  147SAPE   H9Y16237   5.429   4.404   7.464 -1.0033 -1.2315  0.7096
  147SAPE  C31016238   5.259   4.477   7.568  0.4501  1.5558 -1.1368
  147SAPE  H10X16239   5.215   4.376   7.560  1.4446  0.9361  0.7250
  147SAPE  H10Y16240   5.177   4.552   7.568  0.0197  1.1039  0.3908
  147SAPE  C31116241   5.332   4.485   7.704  0.6710  0.3292  0.5683
  147SAPE  H11X16242   5.375   4.587   7.694  2.6950 -0.6812 -2.6938
  147SAPE  H11Y16243   5.419   4.416   7.714 -0.2404 -1.2461 -1.5656
  147SAPE  C31216244   5.238   4.486   7.827 -0.1613 -0.0345 -0.4130
  147SAPE  H12X16245   5.166   4.404   7.811 -1.9262  1.0395  1.5031
  147SAPE  H12Y16246   5.194   4.588   7.830  2.2769  1.0942  0.0488
  147SAPE  C31316247   5.319   4.462   7.954 -1.2793 -0.1954 -0.0778
  147SAPE  H13X16248   5.387   4.550   7.964  0.2117 -1.2353 -0.7545
  147SAPE  H13Y16249   5.386   4.376   7.934  1.6520  2.3474 -2.2850
  147SAPE  C31416250   5.230   4.448   8.075 -0.8458 -0.3226 -0.2479
  147SAPE  H14X16251   5.178   4.349   8.073  0.9215 -1.3115  0.3169
  147SAPE  H14Y16252   5.160   4.533   8.085  0.3543  0.5310  1.3140
  147SAPE  C31516253   5.316   4.468   8.207  0.8426 -0.0132  0.1973
  147SAPE  H15X16254   5.341   4.576   8.214 -0.9067  0.3823  0.7842
  147SAPE  H15Y16255   5.414   4.414   8.210  1.0957  0.4691  0.8906
  147SAPE  C31616256   5.247   4.417   8.336 -0.0606 -0.0613  0.8040
  147SAPE  H16X16257   5.256   4.306   8.327  0.7305 -0.0075  0.9156
  147SAPE  H16Y16258   5.139   4.442   8.342 -0.6118 -2.1023  0.1922
  147SAPE  C31716259   5.326   4.452   8.460 -0.4082  0.8155 -0.0378
  147SAPE  H17X16260   5.335   4.562   8.467  0.4117  0.7787 -0.3375
  147SAPE  H17Y16261   5.431   4.428   8.431  0.3831  1.3422  2.1886
  147SAPE  C31816262   5.303   4.379   8.593 -0.9877  0.3570  0.4329
  147SAPE  H18X16263   5.308   4.271   8.567  1.5069  0.8010 -1.3744
  147SAPE  H18Y16264   5.207   4.410   8.638 -0.9239  0.4541  0.5023
  147SAPE  H18Z16265   5.386   4.406   8.662  0.5842 -0.1774 -1.1743
  148SAPE     N16266   5.132   2.680   6.408  0.3302  0.4369 -0.3768
  148SAPE   HN116267   5.084   2.716   6.323  1.1917  0.8041 -0.7242
  148SAPE   HN216268   5.215   2.743   6.412 -0.6641  2.2283 -3.9742
  148SAPE   HN316269   5.164   2.584   6.386 -0.1363 -0.0478  0.9690
  148SAPE   C1216270   5.062   2.689   6.538 -0.0087  0.1647 -0.2573
  148SAPE  H12A16271   5.119   2.629   6.613 -1.2935  0.7856  1.2793
  148SAPE  H12B16272   4.962   2.642   6.538 -0.9907  2.1347 -0.4236
  148SAPE   C1116273   5.034   2.842   6.563 -0.0819 -0.7403  0.5079
  148SAPE  H11A16274   5.130   2.896   6.573  0.6627 -1.5671 -1.8067
  148SAPE  H11B16275   4.990   2.845   6.665 -0.8271 -2.1420  0.2568
  148SAPE     P16276   4.805   2.930   6.460  0.0721  0.0274 -0.0585
  148SAPE   O1316277   4.780   3.035   6.353  0.1372 -0.3770  0.3443
  148SAPE   O1416278   4.729   2.806   6.453 -0.3643  0.3890  0.0008
  148SAPE   O1216279   4.960   2.899   6.449  0.0211  0.5041 -0.3559
  148SAPE   O1116280   4.776   2.976   6.604  0.1677 -0.6137 -0.2399
  148SAPE    C116281   4.822   3.103   6.656 -1.6295 -0.2921 -0.1364
  148SAPE    HA16282   4.908   3.144   6.598  0.1088 -1.9676  1.1458
  148SAPE    HB16283   4.745   3.183   6.658 -1.0774  0.2443  0.3857
  148SAPE    C216284   4.874   3.089   6.807  0.6190  0.8041 -0.1082
  148SAPE    HS16285   4.956   3.014   6.814 -1.3927 -1.6378 -1.0085
  148SAPE   O2116286   4.752   3.041   6.883 -0.4705 -0.8060  0.1076
  148SAPE   C2116287   4.759   2.922   6.924 -0.2809 -0.4406  0.0380
  148SAPE   O2216288   4.860   2.850   6.925  0.6010  0.6104 -0.2317
  148SAPE   C2216289   4.626   2.874   6.969 -1.5508  0.5446  0.0239
  148SAPE   H2R16290   4.587   2.953   7.036  0.3897  1.3896  0.2188
  148SAPE   H2S16291   4.555   2.865   6.883 -0.5110  0.5917 -0.8654
  148SAPE    C316292   4.921   3.216   6.878  0.2639  0.1933 -0.2131
  148SAPE    HX16293   4.837   3.289   6.885  0.5325  0.4043  1.0884
  148SAPE    HY16294   4.995   3.269   6.814  0.3840 -0.6849 -0.8151
  148SAPE   O3116295   4.977   3.194   7.011  0.7409 -0.2678  0.3034
  148SAPE   C3116296   5.098   3.140   7.018 -0.1838 -0.5908 -1.0552
  148SAPE   O3216297   5.170   3.119   6.923  0.1213  0.0081  0.6154
  148SAPE   C3216298   5.136   3.128   7.169  0.5339 -0.0334 -0.4521
  148SAPE   H2X16299   5.094   3.215   7.223  0.1549 -0.4685 -0.0364
  148SAPE   H2Y16300   5.247   3.120   7.163  0.6656 -0.8896  1.8844
  148SAPE   C2316301   4.640   2.725   7.029  0.2513  0.0580  0.0940
  148SAPE   H3R16302   4.719   2.716   7.108  0.9447 -0.0339 -0.5997
  148SAPE   H3S16303   4.666   2.663   6.941 -0.5794 -1.8177  1.1070
  148SAPE   C2416304   4.499   2.685   7.078 -0.1740  0.4670 -0.1837
  148SAPE   H4R16305   4.418   2.711   7.007  0.7665  1.7089 -0.8515
  148SAPE   H4S16306   4.476   2.733   7.175 -1.5969 -0.8819  0.1884
  148SAPE   C2516307   4.521   2.533   7.097 -0.2367 -0.2599  0.7376
  148SAPE   H5R16308   4.593   2.479   7.033  1.2144  1.1984  1.0517
  148SAPE   C2616309   4.457   2.465   7.197 -0.0713  0.2289 -0.1163
  148SAPE   H6R16310   4.472   2.357   7.205 -1.0977  0.1170  0.5417
  148SAPE   C2716311   4.364   2.505   7.307 -0.7623 -0.1702  0.2928
  148SAPE   H7R16312   4.383   2.613   7.325  1.6647 -0.5219  0.1346
  148SAPE   H7S16313   4.402   2.464   7.403  0.8450  1.4708  0.4097
  148SAPE   C2816314   4.220   2.469   7.284 -0.6098 -0.5673 -0.0355
  148SAPE   H8R16315   4.191   2.479   7.178  1.1273  0.1562 -0.4787
  148SAPE   C2916316   4.133   2.415   7.374  0.6537 -0.3966 -0.4260
  148SAPE   H9R16317   4.027   2.399   7.354  0.1504  0.9946  0.9430
  148SAPE  C21016318   4.166   2.369   7.515 -0.0126  0.0856  0.5133
  148SAPE  H10R16319   4.273   2.351   7.535 -0.1129 -1.9868 -0.5582
  148SAPE  H10S16320   4.127   2.266   7.529 -0.9429  0.6551  2.4635
  148SAPE  C21116321   4.108   2.453   7.627  0.5766  0.5036 -0.5242
  148SAPE  H11R16322   4.141   2.558   7.625  1.0092  0.3972  0.4375
  148SAPE  C21216323   4.024   2.411   7.726 -0.1054  0.1374 -0.1937
  148SAPE  H12R16324   3.969   2.481   7.792  0.3218  2.9716 -2.6365
  148SAPE  C21316325   3.983   2.266   7.739  0.3932  0.1600  0.0594
  148SAPE  H13R16326   4.069   2.199   7.719  0.6154 -0.4708  2.6662
  148SAPE  H13S16327   3.909   2.246   7.658 -1.0554  0.9869  1.1271
  148SAPE  C21416328   3.911   2.230   7.865  0.3255  0.2204 -0.1921
  148SAPE  H14R16329   3.802   2.215   7.856 -0.0083  1.4184  1.3443
  148SAPE  C21516330   3.971   2.219   7.984  0.9882  0.6739  0.0935
  148SAPE  H15R16331   3.917   2.186   8.074  1.9775 -0.4952  0.2935
  148SAPE  C21616332   4.122   2.232   8.005 -0.2920  0.2031  0.6092
  148SAPE  H16R16333   4.142   2.319   8.072 -1.1648 -0.0703  1.2368
  148SAPE  H16S16334   4.170   2.251   7.907 -0.5686 -2.3100 -0.0797
  148SAPE  C21716335   4.195   2.107   8.082  0.7871 -1.1441 -0.4761
  148SAPE  H17R16336   4.304   2.128   8.072  0.4109  0.3811 -1.8267
  148SAPE  H17S16337   4.168   2.011   8.033 -1.4993 -0.3252 -0.9399
  148SAPE  C21816338   4.165   2.091   8.229  0.0679 -0.8260 -0.2219
  148SAPE  H18R16339   4.055   2.085   8.244 -0.0896  1.7501  0.1660
  148SAPE  H18S16340   4.202   2.175   8.292 -1.2265 -0.7070  0.4055
  148SAPE  C21916341   4.225   1.960   8.292 -0.4591 -0.6955 -0.0171
  148SAPE  H19R16342   4.336   1.964   8.288 -0.4900  1.5043  0.2726
  148SAPE  H19S16343   4.193   1.877   8.226  1.0400 -1.3188  0.0097
  148SAPE  C22016344   4.186   1.925   8.432 -0.4184 -0.3195  0.5834
  148SAPE  H20R16345   4.180   2.020   8.488  2.6570  0.2468  0.1552
  148SAPE  H20S16346   4.255   1.861   8.492  0.2308  0.7841  1.0396
  148SAPE  H20T16347   4.081   1.889   8.424 -0.7350  0.6525  0.2503
  148SAPE   C3316348   5.085   3.000   7.237  0.3734 -0.5545 -0.4184
  148SAPE   H3X16349   5.137   2.985   7.334 -0.7539 -2.7194 -0.0853
  148SAPE   H3Y16350   5.108   2.913   7.173 -0.7153 -1.3273  0.1934
  148SAPE   C3416351   4.941   3.016   7.274  0.0095  0.3715 -0.5342
  148SAPE   H4X16352   4.874   3.023   7.186 -0.2202 -2.1900 -0.6550
  148SAPE   H4Y16353   4.932   3.115   7.322  2.4527  0.9750 -1.2113
  148SAPE   C3516354   4.898   2.902   7.364  0.8456 -0.3342 -1.0405
  148SAPE   H5X16355   4.947   2.910   7.463 -2.4373  0.6715  0.6406
  148SAPE   H5Y16356   4.932   2.807   7.318  2.0099 -0.5817  0.2667
  148SAPE   C3616357   4.747   2.885   7.381 -0.1434  0.0790 -0.4564
  148SAPE   H6X16358   4.704   2.894   7.279 -0.0614  4.9343 -0.2920
  148SAPE   H6Y16359   4.716   2.981   7.426  0.7197  0.1978 -0.1094
  148SAPE   C3716360   4.691   2.762   7.459 -0.3934 -0.0232 -0.4170
  148SAPE   H7X16361   4.688   2.667   7.401 -0.4852 -0.4861  0.3314
  148SAPE   H7Y16362   4.586   2.785   7.486  0.5721  1.9109  2.1336
  148SAPE   C3816363   4.759   2.748   7.595 -0.4635 -0.4114 -0.3019
  148SAPE   H8X16364   4.742   2.847   7.642 -1.8427  1.1815 -3.8175
  148SAPE   H8Y16365   4.868   2.732   7.588 -0.3880  0.2900 -0.9020
  148SAPE   C3916366   4.702   2.635   7.689  0.5735 -0.4639 -0.5511
  148SAPE   H9X16367   4.671   2.546   7.630  1.0892 -0.7750 -0.3618
  148SAPE   H9Y16368   4.609   2.677   7.734  1.6319 -0.1890  1.5012
  148SAPE  C31016369   4.805   2.603   7.806 -0.1828  0.2395  0.3416
  148SAPE  H10X16370   4.837   2.694   7.860 -1.5125 -0.2344  2.0053
  148SAPE  H10Y16371   4.897   2.574   7.751 -1.1797 -1.4156 -0.5390
  148SAPE  C31116372   4.779   2.488   7.908  0.2314 -0.3475 -0.3401
  148SAPE  H11X16373   4.734   2.405   7.849  0.3152 -1.8348  1.5777
  148SAPE  H11Y16374   4.714   2.532   7.985 -0.1164 -1.3425 -0.0513
  148SAPE  C31216375   4.906   2.447   7.983 -0.3847  0.3895  0.5195
  148SAPE  H12X16376   4.994   2.436   7.916 -0.8132  1.1534 -0.1878
  148SAPE  H12Y16377   4.886   2.343   8.018 -2.1835 -0.1973 -1.9779
  148SAPE  C31316378   4.943   2.543   8.103 -0.1831  0.5209  0.0214
  148SAPE  H13X16379   4.867   2.554   8.182 -0.0781  1.7623 -0.0264
  148SAPE  H13Y16380   4.949   2.643   8.056 -1.2296  0.2653 -0.6968
  148SAPE  C31416381   5.072   2.490   8.176  0.0406 -0.0183 -0.1100
  148SAPE  H14X16382   5.162   2.504   8.112 -0.3429  0.8806 -0.4793
  148SAPE  H14Y16383   5.058   2.383   8.202  0.7910 -0.3490 -0.9896
  148SAPE  C31516384   5.099   2.566   8.311  0.6222 -0.2079  0.5642
  148SAPE  H15X16385   5.002   2.573   8.364  1.8237  2.7848  2.5862
  148SAPE  H15Y16386   5.104   2.674   8.287 -2.7683  0.3516  1.9460
  148SAPE  C31616387   5.210   2.512   8.392  0.6705  0.1987  0.8178
  148SAPE  H16X16388   5.293   2.493   8.320 -0.6543 -2.9467 -0.0555
  148SAPE  H16Y16389   5.181   2.409   8.422  1.5347 -0.6332 -1.0348
  148SAPE  C31716390   5.256   2.596   8.506  0.1899 -0.2835  0.7570
  148SAPE  H17X16391   5.170   2.613   8.574 -0.8791 -0.2416 -0.5595
  148SAPE  H17Y16392   5.294   2.694   8.471 -0.7084 -0.0388  0.4315
  148SAPE  C31816393   5.357   2.531   8.584 -0.0948 -0.3695 -0.4316
  148SAPE  H18X16394   5.389   2.598   8.667 -3.2278 -0.0927  0.7002
  148SAPE  H18Y16395   5.444   2.500   8.522 -0.6970 -2.0742 -0.4662
  148SAPE  H18Z16396   5.322   2.439   8.635 -1.6551  1.2200  1.5559
  149SAPE     N16397   4.994   3.513   6.294 -0.0015  0.2767 -0.5418
  149SAPE   HN116398   5.044   3.560   6.217  1.7393  1.8462  1.4423
  149SAPE   HN216399   5.009   3.410   6.293 -1.0728  0.1134 -1.1182
  149SAPE   HN316400   4.891   3.527   6.289  0.0402  0.7410 -0.1126
  149SAPE   C1216401   5.034   3.556   6.435 -0.5165 -0.7089 -0.0335
  149SAPE  H12A16402   5.133   3.513   6.463  0.2137  1.3667  0.7494
  149SAPE  H12B16403   4.954   3.516   6.501 -0.2882 -0.6033  0.3123
  149SAPE   C1116404   5.050   3.710   6.446  0.4004 -0.4057  0.0808
  149SAPE  H11A16405   5.108   3.733   6.537  0.2829  2.1816 -0.4351
  149SAPE  H11B16406   4.949   3.755   6.451  0.0867 -1.2019  2.3525
  149SAPE     P16407   5.168   3.908   6.327  0.2280 -0.4560  0.1739
  149SAPE   O1316408   5.318   3.899   6.314  0.4239 -0.9063  0.4206
  149SAPE   O1416409   5.100   3.973   6.213  0.2655  0.2742 -0.2321
  149SAPE   O1216410   5.112   3.763   6.329 -0.0955 -0.5318 -0.5399
  149SAPE   O1116411   5.133   3.982   6.455  0.4286  0.3658  0.2248
  149SAPE    C116412   5.025   4.079   6.459 -0.1600 -0.3503 -0.3895
  149SAPE    HA16413   5.056   4.176   6.415 -1.0901  0.4661  0.6998
  149SAPE    HB16414   4.937   4.042   6.402 -0.3583  1.0528 -1.0295
  149SAPE    C216415   4.979   4.096   6.610 -0.1772 -0.1038 -0.5660
  149SAPE    HS16416   4.956   4.205   6.623  1.1195  0.4278 -2.4985
  149SAPE   O2116417   5.087   4.055   6.699  0.0369  0.1880  0.5596
  149SAPE   C2116418   5.187   4.148   6.691  0.7459 -0.0422 -0.6344
  149SAPE   O2216419   5.177   4.260   6.648 -0.6298  0.0614  0.1420
  149SAPE   C2216420   5.313   4.084   6.736 -0.7971 -0.3290  0.4165
  149SAPE   H2R16421   5.307   4.012   6.821  0.0002  0.5434  1.2290
  149SAPE   H2S16422   5.353   4.022   6.652  2.0299 -1.5281  2.4829
  149SAPE    C316423   4.855   4.010   6.642 -0.4743 -0.1913  0.0580
  149SAPE    HX16424   4.839   3.921   6.576 -1.2381  0.9977 -1.4249
  149SAPE    HY16425   4.766   4.072   6.619 -1.7639 -0.9143  2.6978
  149SAPE   O3116426   4.849   3.990   6.790 -0.1107  0.2240  0.4905
  149SAPE   C3116427   4.896   3.866   6.824 -0.1163  0.2080 -0.2684
  149SAPE   O3216428   4.954   3.789   6.749  0.6853 -0.0214 -0.1357
  149SAPE   C3216429   4.869   3.844   6.974  0.2677 -0.1087  0.4365
  149SAPE   H2X16430   4.762   3.872   6.988 -0.6023 -2.3670 -1.0826
  149SAPE   H2Y16431   4.941   3.909   7.028 -0.7866  1.5512 -0.0661
  149SAPE   C2316432   5.431   4.175   6.783  0.4139 -0.2115 -0.2869
  149SAPE   H3R16433   5.396   4.232   6.872  0.9143 -0.8444  0.3291
  149SAPE   H3S16434   5.461   4.246   6.704  0.3414  0.3893  0.2219
  149SAPE   C2416435   5.561   4.099   6.819 -0.3417 -0.4684  0.6620
  149SAPE   H4R16436   5.616   4.069   6.728 -1.0836 -0.2843  0.1458
  149SAPE   H4S16437   5.528   4.003   6.863 -0.2965 -0.8954 -0.2160
  149SAPE   C2516438   5.652   4.173   6.914 -0.0774 -0.1583  0.4067
  149SAPE   H5R16439   5.716   4.251   6.870 -1.2321 -0.0886 -1.2325
  149SAPE   C2616440   5.660   4.164   7.047 -0.1999  0.4196 -0.5045
  149SAPE   H6R16441   5.727   4.237   7.094 -0.9951  0.8431 -0.0229
  149SAPE   C2716442   5.581   4.077   7.144 -0.3279  0.2490 -0.0868
  149SAPE   H7R16443   5.657   4.012   7.193 -0.6629  0.7288  1.0937
  149SAPE   H7S16444   5.515   4.014   7.080 -0.6692  0.1770  0.3364
  149SAPE   C2816445   5.495   4.164   7.234  0.0318  0.6429  1.2112
  149SAPE   H8R16446   5.452   4.256   7.193 -0.4880  0.4251  1.2709
  149SAPE   C2916447   5.471   4.138   7.361 -0.0082 -0.0122 -0.1303
  149SAPE   H9R16448   5.400   4.203   7.414  0.3786 -0.9923  1.6767
  149SAPE  C21016449   5.525   4.030   7.448  0.6036 -0.2853  0.1010
  149SAPE  H10R16450   5.581   4.085   7.526 -0.0944 -0.4412  0.7212
  149SAPE  H10S16451   5.590   3.954   7.398 -1.0996 -0.7450 -1.5728
  149SAPE  C21116452   5.414   3.943   7.511 -1.3889  0.8320  0.9471
  149SAPE  H11R16453   5.356   3.879   7.443  0.6436  1.2224 -1.2823
  149SAPE  C21216454   5.360   3.954   7.635 -1.1651  0.7897 -0.2582
  149SAPE  H12R16455   5.283   3.881   7.665 -0.5214  0.8911  1.7848
  149SAPE  C21316456   5.425   4.056   7.726  1.1932  1.1294 -0.0916
  149SAPE  H13R16457   5.435   4.147   7.663 -3.1326  0.1412 -2.6376
  149SAPE  H13S16458   5.518   4.021   7.777 -0.2956 -1.6954  0.9474
  149SAPE  C21416459   5.319   4.099   7.825  0.0885  1.0620 -1.1461
  149SAPE  H14R16460   5.241   4.162   7.779 -1.0897 -0.3111 -1.0696
  149SAPE  C21516461   5.311   4.070   7.957  0.1647 -0.2006 -0.5776
  149SAPE  H15R16462   5.231   4.114   8.019 -0.0797  0.7180 -1.5348
  149SAPE  C21616463   5.410   3.980   8.036  0.8986  0.4608 -0.8628
  149SAPE  H16R16464   5.489   4.044   8.081 -0.3672  1.3812  0.1112
  149SAPE  H16S16465   5.449   3.904   7.964 -1.2569 -0.8930 -0.7000
  149SAPE  C21716466   5.359   3.887   8.143 -0.1747  0.4626  0.2306
  149SAPE  H17R16467   5.447   3.829   8.177 -0.9107 -0.7780  0.0826
  149SAPE  H17S16468   5.287   3.810   8.106  0.4239 -1.0907  2.1516
  149SAPE  C21816469   5.323   3.967   8.268  0.0988 -0.0917 -0.6211
  149SAPE  H18R16470   5.249   4.043   8.235 -0.8548  0.0047  1.5929
  149SAPE  H18S16471   5.408   4.032   8.294 -2.0028  3.0499 -1.0886
  149SAPE  C21916472   5.278   3.870   8.378  0.0426 -0.0748  0.5102
  149SAPE  H19R16473   5.251   3.928   8.468 -0.6708 -2.1840  1.7352
  149SAPE  H19S16474   5.356   3.792   8.396 -0.1151 -1.5686 -3.8985
  149SAPE  C22016475   5.149   3.793   8.335  0.3447  0.3739 -0.3666
  149SAPE  H20R16476   5.084   3.860   8.276 -0.5823 -0.6821 -0.5762
  149SAPE  H20S16477   5.095   3.755   8.424 -0.9723  0.1248 -1.2541
  149SAPE  H20T16478   5.175   3.701   8.278  0.5377 -2.3000  3.6620
  149SAPE   C3316479   4.877   3.700   7.033 -0.4753 -0.5701 -0.3223
  149SAPE   H3X16480   4.980   3.661   7.013  0.8245  2.4609 -0.0096
  149SAPE   H3Y16481   4.813   3.626   6.980 -0.4902 -1.0690  0.3783
  149SAPE   C3416482   4.859   3.696   7.187  0.6003  0.3708  0.2382
  149SAPE   H4X16483   4.753   3.722   7.208  0.0852 -1.3254 -0.0273
  149SAPE   H4Y16484   4.932   3.758   7.243  0.1826  1.0228  0.0698
  149SAPE   C3516485   4.863   3.546   7.238  0.7061 -0.2413  0.5702
  149SAPE   H5X16486   4.964   3.515   7.203  1.1717  0.1383  1.5572
  149SAPE   H5Y16487   4.786   3.495   7.177  1.6825  1.5784 -2.4278
  149SAPE   C3616488   4.844   3.529   7.385 -0.0391  0.1135 -0.0196
  149SAPE   H6X16489   4.747   3.563   7.426  1.7088  2.1107  2.7933
  149SAPE   H6Y16490   4.909   3.597   7.444  0.6380 -2.1919  2.0336
  149SAPE   C3716491   4.865   3.388   7.427 -0.4120 -0.2221  0.2711
  149SAPE   H7X16492   4.969   3.353   7.408 -0.4160  0.2013 -0.5851
  149SAPE   H7Y16493   4.787   3.336   7.368 -0.1469  1.0697 -1.2923
  149SAPE   C3816494   4.830   3.378   7.578 -0.1996  0.2969 -0.4060
  149SAPE   H8X16495   4.724   3.409   7.587 -0.0841  1.0189 -1.3986
  149SAPE   H8Y16496   4.899   3.444   7.634 -0.0787 -1.2541  1.3723
  149SAPE   C3916497   4.843   3.232   7.618  0.0203 -0.6661  0.5116
  149SAPE   H9X16498   4.928   3.180   7.569 -1.4521 -1.3240 -1.4820
  149SAPE   H9Y16499   4.752   3.179   7.583 -0.0989 -0.3239  0.3042
  149SAPE  C31016500   4.851   3.221   7.772  0.2593 -0.5116  0.3161
  149SAPE  H10X16501   4.768   3.280   7.814 -0.4842 -2.2487  1.4042
  149SAPE  H10Y16502   4.944   3.276   7.800 -0.0917  0.8216 -0.9855
  149SAPE  C31116503   4.860   3.082   7.833  0.4729 -0.4144 -0.0433
  149SAPE  H11X16504   4.939   3.027   7.778  1.4725  1.3942 -0.5197
  149SAPE  H11Y16505   4.758   3.041   7.818 -0.3838  0.8072  1.9581
  149SAPE  C31216506   4.872   3.094   7.988  0.2566 -0.3522  0.7701
  149SAPE  H12X16507   4.867   2.990   8.027 -0.5526 -0.7238 -0.3006
  149SAPE  H12Y16508   4.790   3.157   8.030  0.7532  0.0048  1.2199
  149SAPE  C31316509   5.004   3.142   8.048  0.2650 -0.2198  0.5600
  149SAPE  H13X16510   5.034   3.237   7.998 -0.9892 -0.1426 -0.0914
  149SAPE  H13Y16511   5.088   3.078   8.012  0.5547  0.5190 -0.1060
  149SAPE  C31416512   5.020   3.142   8.201 -0.3781 -0.0206  0.2938
  149SAPE  H14X16513   4.991   3.243   8.237 -0.5795  0.2955 -0.6948
  149SAPE  H14Y16514   5.127   3.129   8.226 -0.1648 -0.7947 -0.9079
  149SAPE  C31516515   4.946   3.035   8.281  0.8012  0.3139  0.2828
  149SAPE  H15X16516   4.950   2.935   8.233  1.8548  0.5965 -0.2465
  149SAPE  H15Y16517   4.835   3.048   8.283  0.2986 -3.0938  1.3669
  149SAPE  C31616518   4.996   3.018   8.424 -0.0595  0.1167 -0.4172
  149SAPE  H16X16519   4.986   3.112   8.483  1.0388  0.1825 -0.3109
  149SAPE  H16Y16520   5.103   2.990   8.411 -0.7669 -1.9888 -2.2426
  149SAPE  C31716521   4.935   2.906   8.510  0.4924  1.0414  0.1070
  149SAPE  H17X16522   4.945   2.805   8.465 -0.9886  1.2586 -0.7836
  149SAPE  H17Y16523   4.828   2.930   8.526  0.0385 -0.9821  0.3298
  149SAPE  C31816524   4.997   2.888   8.648 -0.3015 -0.0864  0.2234
  149SAPE  H18X16525   5.092   2.833   8.638 -1.4239 -2.2948  1.0903
  149SAPE  H18Y16526   4.926   2.831   8.712 -0.8687 -0.7456 -0.9625
  149SAPE  H18Z16527   5.016   2.983   8.703 -1.1724  0.3676 -0.2309
  150SAPE     N16528   5.150   6.257   6.260  0.1370 -0.1664 -0.0517
  150SAPE   HN116529   5.082   6.212   6.196 -2.2892  2.0485  0.7728
  150SAPE   HN216530   5.198   6.330   6.202  0.3437 -0.6228 -0.4601
  150SAPE   HN316531   5.224   6.193   6.294 -0.6276 -1.0655 -0.0499
  150SAPE   C1216532   5.081   6.327   6.377 -0.3241  0.3400  0.4352
  150SAPE  H12A16533   5.031   6.412   6.326  0.3466  0.2268 -0.4362
  150SAPE  H12B16534   5.166   6.369   6.435  0.0219  0.8605 -0.4289
  150SAPE   C1116535   4.966   6.241   6.435  0.3004 -0.2242  0.1544
  150SAPE  H11A16536   4.908   6.303   6.507  1.0427  1.5898 -0.7412
  150SAPE  H11B16537   5.020   6.161   6.489  0.9768 -0.1131 -0.3510
  150SAPE     P16538   4.725   6.165   6.364 -0.1901  0.2033  0.1909
  150SAPE   O1316539   4.662   6.297   6.359 -0.2172  0.0691 -0.1142
  150SAPE   O1416540   4.659   6.069   6.269  0.9108  0.6778 -0.4574
  150SAPE   O1216541   4.880   6.188   6.331 -0.1135  0.6470 -0.4198
  150SAPE   O1116542   4.735   6.110   6.515 -0.4729  0.0072  0.4618
  150SAPE    C116543   4.783   5.974   6.530  0.3712 -0.0091 -0.4255
  150SAPE    HA16544   4.742   5.897   6.461  0.0627 -0.2418  0.0143
  150SAPE    HB16545   4.894   5.969   6.530  0.4638  1.2813  1.4203
  150SAPE    C216546   4.742   5.928   6.677  0.6434  0.3165 -0.8061
  150SAPE    HS16547   4.801   5.839   6.710  1.2365  0.5492 -1.2116
  150SAPE   O2116548   4.597   5.915   6.677 -0.4657 -0.9791  0.5193
  150SAPE   C2116549   4.559   5.798   6.656  1.0649 -0.3224  0.1182
  150SAPE   O2216550   4.630   5.699   6.662 -0.1061  0.1336 -0.2273
  150SAPE   C2216551   4.406   5.806   6.641 -0.3664 -0.5520  0.1205
  150SAPE   H2R16552   4.360   5.887   6.701 -1.2671  1.0009 -2.4940
  150SAPE   H2S16553   4.382   5.816   6.533  0.5695 -1.7116 -0.2185
  150SAPE    C316554   4.784   6.025   6.782 -0.2887 -0.4597  1.0946
  150SAPE    HX16555   4.714   6.111   6.768 -0.9105 -1.2604 -1.1324
  150SAPE    HY16556   4.888   6.051   6.752 -1.9720  2.8077 -2.9174
  150SAPE   O3116557   4.768   5.982   6.918 -0.0035  0.5466 -0.2664
  150SAPE   C3116558   4.872   5.932   6.980  0.1889 -0.2457 -0.3127
  150SAPE   O3216559   4.990   5.932   6.934  0.0981 -0.0985  0.1811
  150SAPE   C3216560   4.845   5.879   7.118 -0.0803 -0.3191 -1.0067
  150SAPE   H2X16561   4.768   5.799   7.109 -1.1661  0.8656 -3.3849
  150SAPE   H2Y16562   4.797   5.970   7.161 -0.1464 -0.8435  0.0512
  150SAPE   C2316563   4.348   5.669   6.679  0.1557  0.2595 -0.5288
  150SAPE   H3R16564   4.397   5.591   6.617 -1.8044 -1.9412  0.5302
  150SAPE   H3S16565   4.238   5.670   6.666  0.4019  2.2947 -3.3909
  150SAPE   C2416566   4.373   5.621   6.827 -0.8130  0.6271  0.1246
  150SAPE   H4R16567   4.482   5.604   6.839 -0.8540  0.0928 -0.2067
  150SAPE   H4S16568   4.320   5.524   6.828 -3.9681  2.2298  2.0362
  150SAPE   C2516569   4.318   5.724   6.927  0.2928  0.2133 -0.8754
  150SAPE   H5R16570   4.246   5.795   6.883 -0.2078  0.3776  0.1606
  150SAPE   C2616571   4.359   5.745   7.052  0.7624 -0.0204  0.0745
  150SAPE   H6R16572   4.320   5.840   7.091  1.4359  1.3618 -2.4020
  150SAPE   C2716573   4.468   5.683   7.133  0.3318  0.0713  0.9486
  150SAPE   H7R16574   4.551   5.750   7.165  0.0548  0.7799  0.2165
  150SAPE   H7S16575   4.525   5.614   7.067  0.4255 -0.8783  1.9861
  150SAPE   C2816576   4.411   5.598   7.240 -0.3597 -0.1345 -0.1794
  150SAPE   H8R16577   4.327   5.535   7.208 -0.8255  0.2208  0.3223
  150SAPE   C2916578   4.449   5.583   7.367 -0.1396  0.3546  0.0735
  150SAPE   H9R16579   4.402   5.508   7.433 -1.1690  1.8081  1.0461
  150SAPE  C21016580   4.558   5.657   7.437 -0.3269  0.0540  0.7217
  150SAPE  H10R16581   4.606   5.729   7.367 -0.4066 -1.7903 -1.3593
  150SAPE  H10S16582   4.637   5.585   7.469 -0.8704 -0.8550  0.0722
  150SAPE  C21116583   4.519   5.731   7.563  0.3147 -0.0617 -0.1118
  150SAPE  H11R16584   4.438   5.802   7.540 -0.7049 -0.3536  2.1989
  150SAPE  C21216585   4.556   5.709   7.688  0.1123 -0.1607 -0.0638
  150SAPE  H12R16586   4.549   5.798   7.753  0.3673  1.1358 -1.7488
  150SAPE  C21316587   4.648   5.605   7.738  0.1713 -0.3130  0.4957
  150SAPE  H13R16588   4.684   5.638   7.838  0.1379 -0.3985  0.5364
  150SAPE  H13S16589   4.743   5.616   7.680  0.4406 -1.5343  0.6666
  150SAPE  C21416590   4.590   5.468   7.743  0.0508  0.1492 -0.1286
  150SAPE  H14R16591   4.569   5.423   7.645  1.8168 -2.0190  0.4108
  150SAPE  C21516592   4.573   5.392   7.850  0.1729  0.7155  0.8602
  150SAPE  H15R16593   4.518   5.299   7.830  3.1553 -1.0250  0.2088
  150SAPE  C21616594   4.605   5.433   7.987 -0.2465  0.5268  0.3710
  150SAPE  H16R16595   4.539   5.517   8.019 -1.3336 -0.5338  1.0010
  150SAPE  H16S16596   4.707   5.474   7.997  0.6117 -1.4304  0.0226
  150SAPE  C21716597   4.596   5.318   8.091  0.0644  0.3776 -0.1370
  150SAPE  H17R16598   4.675   5.245   8.063 -1.0127 -0.1940 -1.8219
  150SAPE  H17S16599   4.497   5.267   8.089  0.7872 -1.3781  2.9659
  150SAPE  C21816600   4.610   5.368   8.236  0.2010 -0.2086 -0.1201
  150SAPE  H18R16601   4.537   5.449   8.257  0.6616  0.6212 -1.5998
  150SAPE  H18S16602   4.709   5.417   8.233  0.3779 -0.5995 -1.4862
  150SAPE  C21916603   4.620   5.258   8.347 -0.0453  0.3031  0.3436
  150SAPE  H19R16604   4.696   5.184   8.314  0.6038  1.7335 -1.5159
  150SAPE  H19S16605   4.523   5.207   8.363 -1.2628  2.8089  1.4706
  150SAPE  C22016606   4.665   5.311   8.487 -0.2361  0.9282  0.4758
  150SAPE  H20R16607   4.650   5.240   8.572 -1.2416  0.0959 -0.3570
  150SAPE  H20S16608   4.605   5.400   8.517  0.4878  2.1043 -1.4371
  150SAPE  H20T16609   4.769   5.345   8.475 -0.4709  1.1383 -1.3240
  150SAPE   C3316610   4.975   5.847   7.191 -0.4629 -0.0470  1.1932
  150SAPE   H3X16611   5.041   5.936   7.185 -2.5435  1.4904 -0.3726
  150SAPE   H3Y16612   5.029   5.756   7.157  2.2583  1.9856 -0.2158
  150SAPE   C3416613   4.926   5.830   7.339  0.6557 -0.5293  0.6021
  150SAPE   H4X16614   4.847   5.751   7.340  0.0816  0.0109  2.0543
  150SAPE   H4Y16615   4.879   5.926   7.367  0.7665 -0.3526  0.1838
  150SAPE   C3516616   5.046   5.798   7.429  0.4766  0.7959  0.3224
  150SAPE   H5X16617   5.119   5.880   7.441 -1.9080  3.1010  0.0027
  150SAPE   H5Y16618   5.090   5.706   7.386 -2.7069 -0.6027 -0.2905
  150SAPE   C3616619   5.000   5.775   7.580 -0.4897  0.1913  0.0728
  150SAPE   H6X16620   4.927   5.693   7.566  1.7360 -1.5873 -2.0573
  150SAPE   H6Y16621   4.957   5.869   7.620  2.8549  1.5088  0.9628
  150SAPE   C3716622   5.120   5.724   7.665 -0.9773 -0.7827 -0.1082
  150SAPE   H7X16623   5.214   5.770   7.629 -0.8755 -1.5147 -0.8125
  150SAPE   H7Y16624   5.141   5.616   7.650  0.4115 -0.5144 -0.1855
  150SAPE   C3816625   5.097   5.758   7.805 -0.7091  0.1374  0.2003
  150SAPE   H8X16626   4.998   5.728   7.847 -1.6410  2.7494  0.0736
  150SAPE   H8Y16627   5.089   5.869   7.812  3.6211  0.5529  1.8702
  150SAPE   C3916628   5.202   5.705   7.907 -0.0910  0.1701  0.5777
  150SAPE   H9X16629   5.301   5.734   7.867  0.0292  0.8592  1.3440
  150SAPE   H9Y16630   5.207   5.594   7.920  3.9062  0.2376  0.9279
  150SAPE  C31016631   5.196   5.769   8.040  0.4387  0.2101 -0.1286
  150SAPE  H10X16632   5.102   5.754   8.098 -0.2132  0.5070 -1.0998
  150SAPE  H10Y16633   5.192   5.879   8.031 -0.0683  0.1706 -0.4196
  150SAPE  C31116634   5.321   5.730   8.127  0.1968  0.6507  0.3029
  150SAPE  H11X16635   5.405   5.718   8.056  0.4700 -2.4352  1.0069
  150SAPE  H11Y16636   5.296   5.633   8.174 -1.2999  0.5657 -0.6016
  150SAPE  C31216637   5.344   5.823   8.250 -0.0987  0.5423 -0.1361
  150SAPE  H12X16638   5.253   5.809   8.313  0.6248  1.4788  1.1577
  150SAPE  H12Y16639   5.355   5.929   8.219  0.3270  0.5335 -0.0147
  150SAPE  C31316640   5.468   5.783   8.326 -0.3680  0.0626 -0.7239
  150SAPE  H13X16641   5.491   5.865   8.397 -1.4201 -0.4415  0.2324
  150SAPE  H13Y16642   5.547   5.776   8.249 -0.1557  0.4111 -0.5401
  150SAPE  C31416643   5.477   5.652   8.404  0.3830 -0.1356 -0.2277
  150SAPE  H14X16644   5.462   5.561   8.342 -1.7030  0.0372 -0.0610
  150SAPE  H14Y16645   5.392   5.647   8.476 -0.7693  1.0947 -1.4491
  150SAPE  C31516646   5.614   5.640   8.474  0.6581  0.3423 -0.6175
  150SAPE  H15X16647   5.628   5.730   8.536  0.2756 -0.4454  0.6522
  150SAPE  H15Y16648   5.699   5.625   8.404 -0.4012  2.2620 -2.4120
  150SAPE  C31616649   5.619   5.524   8.571  0.3214 -0.5205 -0.3173
  150SAPE  H16X16650   5.604   5.424   8.524  2.8501 -1.3908  0.5751
  150SAPE  H16Y16651   5.554   5.538   8.659  1.7092 -0.1926  0.6825
  150SAPE  C31716652   5.759   5.507   8.633  0.0380  0.4210 -0.1537
  150SAPE  H17X16653   5.747   5.427   8.708  0.2821  0.7477  0.2410
  150SAPE  H17Y16654   5.789   5.608   8.670  0.8274  0.2788 -0.3858
  150SAPE  C31816655   5.864   5.453   8.533 -0.2852  0.0644 -0.4900
  150SAPE  H18X16656   5.883   5.519   8.446  1.8396 -0.6202 -0.5987
  150SAPE  H18Y16657   5.836   5.355   8.488  0.3230  0.0086 -0.7582
  150SAPE  H18Z16658   5.962   5.440   8.582  0.4020 -0.4602 -1.9473
  151SAPE     N16659   6.799   2.713   6.128 -0.6614 -0.3108 -0.4313
  151SAPE   HN116660   6.787   2.612   6.146  0.1480 -0.6387 -1.6308
  151SAPE   HN216661   6.736   2.759   6.197  0.7857  1.6088 -0.3036
  151SAPE   HN316662   6.759   2.736   6.035 -1.1464  0.1787 -0.1183
  151SAPE   C1216663   6.946   2.754   6.144  0.6399 -0.5997  0.6572
  151SAPE  H12A16664   7.001   2.679   6.084  1.6222  0.6466 -0.0496
  151SAPE  H12B16665   6.979   2.738   6.249  1.6781 -0.5588  0.3401
  151SAPE   C1116666   6.965   2.908   6.101  0.6938 -0.1050  0.1986
  151SAPE  H11A16667   6.935   2.930   5.996 -1.8352 -0.5797  0.7438
  151SAPE  H11B16668   7.074   2.926   6.111  0.2384  3.1757  0.0811
  151SAPE     P16669   6.967   3.094   6.294  0.0613 -0.0305 -0.0760
  151SAPE   O1316670   7.094   3.151   6.243  0.5061  0.4074 -0.0368
  151SAPE   O1416671   6.878   3.181   6.366  1.0654  0.1854  0.3578
  151SAPE   O1216672   6.887   3.007   6.182  0.2760 -0.4298  0.7008
  151SAPE   O1116673   7.006   2.975   6.388 -0.4665 -0.5891  0.4492
  151SAPE    C116674   6.921   2.910   6.481 -0.0733  0.3891 -0.1279
  151SAPE    HA16675   6.819   2.952   6.471 -0.4969 -0.5103  0.2816
  151SAPE    HB16676   6.921   2.800   6.464 -1.4074  0.3594 -0.0441
  151SAPE    C216677   6.970   2.928   6.624  0.5690 -0.0611  0.4765
  151SAPE    HS16678   6.906   2.875   6.699  0.5781 -1.3297 -0.3778
  151SAPE   O2116679   6.975   3.067   6.652  0.5190 -0.4212  0.0399
  151SAPE   C2116680   6.855   3.123   6.671 -0.6518 -0.5828  0.2152
  151SAPE   O2216681   6.757   3.054   6.667 -0.1555 -0.1342  0.5836
  151SAPE   C2216682   6.870   3.274   6.698 -0.0131  0.3032  0.2133
  151SAPE   H2R16683   6.908   3.326   6.608 -0.8463 -1.7121 -1.3800
  151SAPE   H2S16684   6.768   3.312   6.716 -0.7015 -1.7350  0.9091
  151SAPE    C316685   7.111   2.867   6.634  0.5354 -0.2669  0.5974
  151SAPE    HX16686   7.170   2.923   6.558  0.1846  0.6692  1.0070
  151SAPE    HY16687   7.136   2.761   6.612  0.9614 -0.2878  1.1532
  151SAPE   O3116688   7.177   2.908   6.753  0.4378 -0.2737 -0.0332
  151SAPE   C3116689   7.124   2.844   6.856  0.1632 -0.4770  0.1698
  151SAPE   O3216690   7.050   2.747   6.855  0.7978  0.1314  0.2245
  151SAPE   C3216691   7.151   2.934   6.981 -0.3083 -0.5483  0.1046
  151SAPE   H2X16692   7.086   3.023   6.967 -0.9326 -1.1593 -1.0456
  151SAPE   H2Y16693   7.258   2.962   6.980 -0.4649  0.4878  2.9653
  151SAPE   C2316694   6.960   3.315   6.821 -0.2574 -0.4592 -0.4779
  151SAPE   H3R16695   6.967   3.424   6.840  3.9775 -0.5714 -0.5831
  151SAPE   H3S16696   7.063   3.280   6.799  0.7336  1.4881  0.8098
  151SAPE   C2416697   6.900   3.241   6.946 -0.4981  0.0938  0.4485
  151SAPE   H4R16698   6.989   3.230   7.011  0.9020  0.4606 -1.3028
  151SAPE   H4S16699   6.868   3.136   6.931  2.5254 -1.3206  2.9019
  151SAPE   C2516700   6.789   3.322   7.004 -0.4616  0.3763 -0.5910
  151SAPE   H5R16701   6.703   3.340   6.938 -1.1343 -0.2405  0.0966
  151SAPE   C2616702   6.785   3.362   7.131 -0.4383  0.0780 -0.1867
  151SAPE   H6R16703   6.698   3.424   7.155 -1.3052 -1.0759 -0.2711
  151SAPE   C2716704   6.879   3.342   7.238  0.4003  0.1285 -0.8155
  151SAPE   H7R16705   6.883   3.444   7.283  0.3850 -0.2260  0.0178
  151SAPE   H7S16706   6.981   3.312   7.205 -0.4831 -3.3636 -0.7799
  151SAPE   C2816707   6.851   3.239   7.346 -0.5417  0.5382 -0.3307
  151SAPE   H8R16708   6.851   3.136   7.307  0.4423 -0.4179  2.0267
  151SAPE   C2916709   6.836   3.262   7.477  0.6882  0.0872  0.2658
  151SAPE   H9R16710   6.826   3.172   7.540 -2.2262 -0.8291 -1.3425
  151SAPE  C21016711   6.834   3.399   7.542 -0.6504 -0.2750  0.0179
  151SAPE  H10R16712   6.736   3.416   7.591 -1.4510  0.6233 -1.7948
  151SAPE  H10S16713   6.834   3.483   7.469 -0.9573 -2.0107 -2.0751
  151SAPE  C21116714   6.951   3.419   7.642 -0.1472  0.1071  0.3820
  151SAPE  H11R16715   7.049   3.412   7.594  0.9284 -3.5204  2.6652
  151SAPE  C21216716   6.946   3.440   7.777  0.4644 -0.4972 -0.3782
  151SAPE  H12R16717   7.037   3.453   7.838  0.2979  0.0197 -0.2388
  151SAPE  C21316718   6.805   3.465   7.845 -0.0106  0.2439 -0.4130
  151SAPE  H13R16719   6.725   3.505   7.780 -0.7671 -0.6827 -0.0736
  151SAPE  H13S16720   6.804   3.545   7.922 -0.6128  1.1428 -1.3378
  151SAPE  C21416721   6.751   3.332   7.901 -0.1679  1.2648  0.1781
  151SAPE  H14R16722   6.710   3.265   7.824  1.7447  2.6812 -2.2020
  151SAPE  C21516723   6.773   3.284   8.028 -0.0092 -0.3388  0.4927
  151SAPE  H15R16724   6.719   3.193   8.057  1.1988 -1.0526  0.5491
  151SAPE  C21616725   6.837   3.344   8.146  1.1622 -0.1685  0.0454
  151SAPE  H16R16726   6.911   3.416   8.102 -0.1577  1.7859  0.8719
  151SAPE  H16S16727   6.888   3.266   8.206 -0.1497 -1.4106 -0.3997
  151SAPE  C21716728   6.734   3.419   8.232  0.2235 -0.4307  0.0129
  151SAPE  H17R16729   6.682   3.487   8.162 -2.9369 -1.5615  1.0833
  151SAPE  H17S16730   6.781   3.490   8.303 -1.5909 -0.4553  1.3256
  151SAPE  C21816731   6.616   3.346   8.295 -0.1594 -0.2525 -0.3772
  151SAPE  H18R16732   6.646   3.267   8.367  0.9260  0.1071 -0.4138
  151SAPE  H18S16733   6.559   3.297   8.213  1.3824 -0.5380 -1.3066
  151SAPE  C21916734   6.519   3.439   8.376  0.2313 -0.1233 -0.1042
  151SAPE  H19R16735   6.482   3.531   8.327 -1.9039 -0.0641  1.4730
  151SAPE  H19S16736   6.583   3.482   8.456 -0.2445  3.4147 -1.4451
  151SAPE  C22016737   6.401   3.365   8.441 -0.3227 -0.6373  0.5024
  151SAPE  H20R16738   6.372   3.419   8.534  1.1231  0.2885  0.4343
  151SAPE  H20S16739   6.317   3.348   8.370  0.4664 -2.6640 -0.0360
  151SAPE  H20T16740   6.443   3.268   8.475  0.1874 -0.9276 -0.8748
  151SAPE   C3316741   7.120   2.872   7.116 -0.5187 -0.5315  0.6808
  151SAPE   H3X16742   7.172   2.775   7.128 -1.7473 -1.3823 -0.6632
  151SAPE   H3Y16743   7.011   2.854   7.118 -0.8332  1.1535  0.9858
  151SAPE   C3416744   7.162   2.972   7.222 -0.0536 -0.4169 -0.1149
  151SAPE   H4X16745   7.095   3.059   7.206  2.1856  1.1573 -1.4042
  151SAPE   H4Y16746   7.268   3.005   7.232 -0.8093  1.5974  2.1836
  151SAPE   C3516747   7.119   2.911   7.359 -0.0281  0.0573 -0.4869
  151SAPE   H5X16748   7.165   2.813   7.385  1.9710  1.2483  0.7585
  151SAPE   H5Y16749   7.011   2.896   7.340  0.1932 -1.2038 -0.8273
  151SAPE   C3616750   7.142   2.995   7.480  0.0895 -0.3904  0.3400
  151SAPE   H6X16751   7.111   3.096   7.447  2.1015  0.0412 -0.3515
  151SAPE   H6Y16752   7.252   2.993   7.494  0.1955  0.8854 -0.2012
  151SAPE   C3716753   7.056   2.961   7.604  0.1300  1.1249 -0.3592
  151SAPE   H7X16754   7.066   2.852   7.620  1.6844  1.3054  0.0895
  151SAPE   H7Y16755   6.949   2.983   7.584 -0.2514  1.3427  1.6775
  151SAPE   C3816756   7.105   3.044   7.725  0.9979 -0.5723 -0.3443
  151SAPE   H8X16757   7.117   3.151   7.698 -4.3187  0.2134 -0.5840
  151SAPE   H8Y16758   7.202   3.004   7.764 -0.2464  0.4566  4.5239
  151SAPE   C3916759   7.003   3.035   7.839 -0.2329 -0.0808 -0.3670
  151SAPE   H9X16760   6.906   3.042   7.786 -0.8210 -1.7150  0.4088
  151SAPE   H9Y16761   7.016   3.124   7.904 -2.2865 -0.0811  0.1126
  151SAPE  C31016762   7.013   2.909   7.927 -0.0279  0.5198  0.2206
  151SAPE  H10X16763   7.124   2.897   7.932  0.0141 -0.7458 -2.1143
  151SAPE  H10Y16764   6.977   2.819   7.872  2.4747 -0.6270  0.2672
  151SAPE  C31116765   6.944   2.916   8.065  0.0556  0.8248  0.1517
  151SAPE  H11X16766   6.983   3.002   8.125 -2.4392  1.8878  0.3956
  151SAPE  H11Y16767   6.973   2.821   8.114  0.5773 -0.6850 -2.8978
  151SAPE  C31216768   6.791   2.916   8.065 -0.5119  0.1242 -0.0393
  151SAPE  H12X16769   6.759   2.818   8.022 -0.0530  0.2627 -0.7070
  151SAPE  H12Y16770   6.755   2.994   7.996  0.3317  0.2108 -0.3990
  151SAPE  C31316771   6.730   2.952   8.201 -0.5121 -0.5621 -0.2470
  151SAPE  H13X16772   6.765   3.054   8.229  0.2797 -0.6846 -0.7398
  151SAPE  H13Y16773   6.766   2.885   8.282  0.8346 -0.4480 -0.7133
  151SAPE  C31416774   6.582   2.940   8.199  0.6887  0.2465  0.0675
  151SAPE  H14X16775   6.543   2.996   8.112  0.4745  0.0501  0.0349
  151SAPE  H14Y16776   6.537   2.983   8.291  0.8795 -2.7618  1.7059
  151SAPE  C31516777   6.519   2.791   8.179 -0.2479 -0.5492  0.4784
  151SAPE  H15X16778   6.565   2.729   8.258 -1.2915 -1.1664  0.6160
  151SAPE  H15Y16779   6.543   2.746   8.080  0.4852 -0.3735  0.5714
  151SAPE  C31616780   6.368   2.792   8.198 -0.9138  0.4942 -0.6409
  151SAPE  H16X16781   6.331   2.873   8.133 -3.2163  0.7660  0.8860
  151SAPE  H16Y16782   6.343   2.813   8.305  0.5459  1.1210 -0.4070
  151SAPE  C31716783   6.295   2.657   8.148  0.4888 -0.7107 -0.0421
  151SAPE  H17X16784   6.344   2.569   8.196 -0.8864 -1.8615 -0.6835
  151SAPE  H17Y16785   6.300   2.644   8.038  1.8926  1.9931 -0.3999
  151SAPE  C31816786   6.153   2.662   8.198 -0.2296 -0.3884 -0.3465
  151SAPE  H18X16787   6.086   2.588   8.148  0.2816 -1.3468  0.3495
  151SAPE  H18Y16788   6.110   2.758   8.163  0.5969 -0.6196 -2.1291
  151SAPE  H18Z16789   6.156   2.657   8.309  1.9336  1.9230 -0.2215
  152SAPE     N16790   3.987   6.588   6.349 -0.4388  0.1648  0.2808
  152SAPE   HN116791   3.915   6.636   6.290 -1.0760 -0.1209  0.8134
  152SAPE   HN216792   3.981   6.623   6.447 -1.4353 -0.9060  0.6253
  152SAPE   HN316793   4.084   6.580   6.314 -1.2384 -1.4768 -1.8004
  152SAPE   C1216794   3.934   6.446   6.357 -0.0722  0.5803 -0.3717
  152SAPE  H12A16795   3.827   6.448   6.388 -0.3388 -3.3937 -0.4980
  152SAPE  H12B16796   3.997   6.404   6.438  1.8476  1.4466 -1.3391
  152SAPE   C1116797   3.933   6.379   6.219  0.3761 -0.4257 -0.3028
  152SAPE  H11A16798   3.898   6.447   6.138 -1.9242 -2.6087 -1.3045
  152SAPE  H11B16799   3.857   6.298   6.232 -0.6836  0.7911  1.5433
  152SAPE     P16800   4.117   6.199   6.181 -0.2862  0.0030 -0.3723
  152SAPE   O1316801   4.011   6.129   6.106  0.5330  0.0555 -0.2300
  152SAPE   O1416802   4.254   6.202   6.122  0.3907 -0.4380  0.0674
  152SAPE   O1216803   4.064   6.346   6.183  0.6843 -0.0327  0.2122
  152SAPE   O1116804   4.126   6.129   6.324  0.3932 -0.5483  0.4140
  152SAPE    C116805   4.232   6.192   6.401  0.3077 -0.6665 -0.1123
  152SAPE    HA16806   4.330   6.150   6.369  0.1714  0.2646 -1.8131
  152SAPE    HB16807   4.238   6.302   6.397 -0.1986 -0.3655  3.7877
  152SAPE    C216808   4.211   6.168   6.554 -0.3428 -0.3708 -0.2606
  152SAPE    HS16809   4.199   6.058   6.567 -2.0391 -0.0631  1.2202
  152SAPE   O2116810   4.089   6.233   6.589  0.2219  0.2874  0.0485
  152SAPE   C2116811   4.036   6.222   6.709  0.8265  0.4004 -0.2898
  152SAPE   O2216812   4.074   6.149   6.801 -0.5532 -0.4380 -0.3695
  152SAPE   C2216813   3.907   6.310   6.719  0.7650  0.4797  0.1203
  152SAPE   H2R16814   3.942   6.415   6.721 -0.3465  1.0141 -2.7892
  152SAPE   H2S16815   3.827   6.284   6.646  0.4478 -0.4065  0.7551
  152SAPE    C316816   4.336   6.212   6.639  0.3645  0.8539 -0.2036
  152SAPE    HX16817   4.308   6.317   6.662 -0.3333  0.6396 -0.0447
  152SAPE    HY16818   4.425   6.225   6.575 -0.1350  0.1108 -1.0817
  152SAPE   O3116819   4.350   6.124   6.753 -0.1848 -0.1180 -0.0657
  152SAPE   C3116820   4.434   6.184   6.847 -0.2587  0.2320  0.8787
  152SAPE   O3216821   4.479   6.295   6.838  0.0497  0.1616  0.7879
  152SAPE   C3216822   4.443   6.090   6.963 -0.3099  0.5888  0.5503
  152SAPE   H2X16823   4.545   6.046   6.960 -0.1388  1.0691 -1.2534
  152SAPE   H2Y16824   4.373   6.004   6.953  0.1871  0.3376 -0.9138
  152SAPE   C2316825   3.812   6.294   6.848 -0.7326  0.2477  0.3822
  152SAPE   H3R16826   3.860   6.353   6.930  1.9883 -0.3674 -0.6484
  152SAPE   H3S16827   3.811   6.186   6.873  0.9697  0.1120 -0.0153
  152SAPE   C2416828   3.669   6.339   6.832 -0.1714 -0.1448 -0.4751
  152SAPE   H4R16829   3.628   6.331   6.935 -1.0372  1.8508 -0.6084
  152SAPE   H4S16830   3.621   6.263   6.766 -1.4465 -0.2294  0.5125
  152SAPE   C2516831   3.656   6.482   6.783 -0.0215  0.1766 -0.1219
  152SAPE   H5R16832   3.641   6.498   6.675  0.0983 -1.5033 -0.4175
  152SAPE   C2616833   3.665   6.589   6.860  0.6601 -0.4368 -0.3272
  152SAPE   H6R16834   3.674   6.688   6.812 -0.8672 -0.4190 -0.6371
  152SAPE   C2716835   3.687   6.592   7.011  0.1193  0.4464  0.2833
  152SAPE   H7R16836   3.767   6.518   7.033 -2.4238 -2.4821  0.5590
  152SAPE   H7S16837   3.589   6.577   7.061  0.3083 -1.2114  0.2151
  152SAPE   C2816838   3.736   6.727   7.057 -0.0893 -0.3836 -0.1638
  152SAPE   H8R16839   3.758   6.799   6.976 -0.3958 -0.7001 -0.5349
  152SAPE   C2916840   3.735   6.770   7.184 -0.4992 -1.1721 -0.4336
  152SAPE   H9R16841   3.769   6.868   7.220 -0.8861 -0.6607 -1.4543
  152SAPE  C21016842   3.675   6.678   7.289 -0.1878 -0.1081  0.3290
  152SAPE  H10R16843   3.569   6.676   7.259 -0.0708  1.4500 -0.3114
  152SAPE  H10S16844   3.680   6.735   7.385 -1.1152  1.8411 -0.7116
  152SAPE  C21116845   3.727   6.543   7.324 -0.3917 -0.2319  0.2587
  152SAPE  H11R16846   3.798   6.497   7.253 -0.5428  0.4756 -0.3619
  152SAPE  C21216847   3.682   6.473   7.432  0.2845  0.1194  0.1780
  152SAPE  H12R16848   3.734   6.378   7.452  1.8397  0.7784 -0.5147
  152SAPE  C21316849   3.572   6.525   7.523  0.0993  0.2134  0.5191
  152SAPE  H13R16850   3.489   6.451   7.522 -0.3216  0.5960 -2.5764
  152SAPE  H13S16851   3.522   6.615   7.482  0.5937  0.8278  1.2492
  152SAPE  C21416852   3.611   6.567   7.661  0.3164 -0.6025 -0.0131
  152SAPE  H14R16853   3.560   6.661   7.686 -0.5500 -1.3026  0.9353
  152SAPE  C21516854   3.667   6.492   7.762 -0.3173  0.2179 -0.4090
  152SAPE  H15R16855   3.660   6.531   7.865  0.7055 -0.4419 -0.0700
  152SAPE  C21616856   3.705   6.347   7.745 -0.2669 -0.0198 -0.9450
  152SAPE  H16R16857   3.811   6.326   7.770 -0.5985  1.8166  2.5587
  152SAPE  H16S16858   3.679   6.315   7.642 -0.7744 -2.5940 -0.0822
  152SAPE  C21716859   3.638   6.257   7.842 -0.1556 -0.8543 -0.5750
  152SAPE  H17R16860   3.662   6.150   7.825 -0.0251 -1.4011  2.4395
  152SAPE  H17S16861   3.527   6.263   7.842 -0.1261 -0.1440 -0.3481
  152SAPE  C21816862   3.682   6.282   7.991  0.0570 -0.3167  0.1397
  152SAPE  H18R16863   3.661   6.385   8.025 -1.7739 -0.5113 -0.3307
  152SAPE  H18S16864   3.793   6.273   7.990  0.1472  0.6647  0.0651
  152SAPE  C21916865   3.616   6.181   8.094  0.2679 -1.4291  0.7217
  152SAPE  H19R16866   3.604   6.080   8.050 -1.1257 -0.2737 -1.8093
  152SAPE  H19S16867   3.511   6.217   8.105  0.6082 -0.1016 -0.0974
  152SAPE  C22016868   3.682   6.170   8.228  0.2210  0.2792 -0.5400
  152SAPE  H20R16869   3.698   6.271   8.272 -1.1566 -0.1323  1.0186
  152SAPE  H20S16870   3.780   6.119   8.212  0.4376  0.8569 -1.1206
  152SAPE  H20T16871   3.613   6.109   8.291  1.7258  0.2465  1.1512
  152SAPE   C3316872   4.430   6.166   7.097  0.2689 -0.2805  0.6644
  152SAPE   H3X16873   4.324   6.189   7.119  0.1938 -0.0440  0.0650
  152SAPE   H3Y16874   4.480   6.265   7.089 -1.7738  0.6431 -2.9553
  152SAPE   C3416875   4.487   6.079   7.214 -0.3606 -1.1884 -0.0697
  152SAPE   H4X16876   4.580   6.031   7.176 -0.5499 -1.7263  0.1385
  152SAPE   H4Y16877   4.417   5.995   7.232 -1.2417 -0.7477 -1.2985
  152SAPE   C3516878   4.495   6.155   7.347 -0.0922 -0.8064 -0.1607
  152SAPE   H5X16879   4.393   6.184   7.381  0.4636  0.9073  0.1125
  152SAPE   H5Y16880   4.567   6.239   7.349  0.8119 -1.5576 -0.7714
  152SAPE   C3616881   4.547   6.063   7.456  0.2237 -0.2028 -0.3082
  152SAPE   H6X16882   4.629   5.997   7.422  0.1800 -1.0231  1.1007
  152SAPE   H6Y16883   4.462   6.000   7.489 -0.5217  1.0937  0.3547
  152SAPE   C3716884   4.587   6.148   7.575  0.2289 -0.3895 -0.2939
  152SAPE   H7X16885   4.509   6.226   7.588 -0.5082 -1.3158  0.9513
  152SAPE   H7Y16886   4.683   6.196   7.546  0.3471 -0.6168 -0.2798
  152SAPE   C3816887   4.607   6.069   7.703 -0.5331  0.3669 -0.2070
  152SAPE   H8X16888   4.694   6.001   7.692  0.7746  1.5972  2.0142
  152SAPE   H8Y16889   4.507   6.021   7.715 -0.9793  1.2180 -0.3904
  152SAPE   C3916890   4.646   6.153   7.827  0.7372 -0.3799 -0.2335
  152SAPE   H9X16891   4.557   6.195   7.880 -0.4396  0.6964 -2.8614
  152SAPE   H9Y16892   4.706   6.239   7.789 -0.2908  0.1956 -0.6237
  152SAPE  C31016893   4.730   6.074   7.930  0.6744  0.6306  0.2670
  152SAPE  H10X16894   4.760   6.153   8.002 -1.4124  0.0048  1.9529
  152SAPE  H10Y16895   4.811   6.027   7.871 -2.0990 -0.9535 -2.5985
  152SAPE  C31116896   4.642   5.973   8.011  0.1884 -0.0730  0.5692
  152SAPE  H11X16897   4.577   5.911   7.946 -1.5270  1.1544  1.0403
  152SAPE  H11Y16898   4.567   6.019   8.079 -1.6830 -0.6810 -0.9786
  152SAPE  C31216899   4.721   5.884   8.105 -0.1142  0.0953  0.3164
  152SAPE  H12X16900   4.755   5.950   8.188  0.3578 -2.4224  2.2290
  152SAPE  H12Y16901   4.810   5.838   8.057 -0.4052 -1.3158  1.0898
  152SAPE  C31316902   4.635   5.781   8.169 -0.9026  0.1152  0.0524
  152SAPE  H13X16903   4.599   5.710   8.091 -2.5534  3.3439 -2.3781
  152SAPE  H13Y16904   4.546   5.831   8.213  0.2184  0.8209  1.6491
  152SAPE  C31416905   4.696   5.709   8.288  0.2892 -0.5644  0.8170
  152SAPE  H14X16906   4.782   5.645   8.261 -0.7503 -2.2049  1.2550
  152SAPE  H14Y16907   4.619   5.644   8.335 -1.6963 -0.4510 -1.9885
  152SAPE  C31516908   4.760   5.811   8.393 -0.0382 -0.0872  0.3208
  152SAPE  H15X16909   4.854   5.866   8.369  0.3480 -0.1418  1.5900
  152SAPE  H15Y16910   4.791   5.754   8.483  1.0391  2.1755  1.4648
  152SAPE  C31616911   4.650   5.910   8.440  0.7152  0.7923 -0.1914
  152SAPE  H16X16912   4.562   5.851   8.472  1.6557  0.6994  2.4868
  152SAPE  H16Y16913   4.628   5.984   8.361  0.1576 -0.1168 -0.9141
  152SAPE  C31716914   4.697   5.976   8.563  0.4344 -1.0660 -0.3298
  152SAPE  H17X16915   4.804   6.000   8.546  0.7290 -1.3564  1.0221
  152SAPE  H17Y16916   4.691   5.898   8.641 -1.3505 -0.2694  0.3923
  152SAPE  C31816917   4.619   6.103   8.608 -0.1407 -0.5800  1.1402
  152SAPE  H18X16918   4.629   6.169   8.519 -1.9490 -0.7559  0.7646
  152SAPE  H18Y16919   4.655   6.159   8.697  1.1795  3.2610 -1.5470
  152SAPE  H18Z16920   4.510   6.093   8.624 -0.4125 -1.5066 -0.9744
  153SAPE     N16921   0.142   2.301   6.208  0.3996  0.6138 -0.1602
  153SAPE   HN116922   0.172   2.398   6.230 -0.0685  0.7202  0.0332
  153SAPE   HN216923   0.176   2.296   6.110 -0.5541  0.0381 -0.4762
  153SAPE   HN316924   0.038   2.292   6.205  0.4276 -4.7496  2.0394
  153SAPE   C1216925   0.198   2.187   6.293 -0.2405  0.2967 -0.0834
  153SAPE  H12A16926   0.306   2.201   6.312  0.2279 -3.6282  0.9541
  153SAPE  H12B16927   0.178   2.092   6.239  0.2478 -0.4023  0.9246
  153SAPE   C1116928   0.129   2.167   6.430 -0.2846  0.6095  0.4162
  153SAPE  H11A16929   0.132   2.269   6.473  0.4132  1.7121 -2.0983
  153SAPE  H11B16930   0.194   2.096   6.485 -0.5158  0.0331 -0.0356
  153SAPE     P16931  -0.059   1.984   6.392 -0.5511  0.1714 -0.4455
  153SAPE   O1316932  -0.202   1.973   6.416  0.2392 -0.5445 -0.5408
  153SAPE   O1416933   0.009   1.931   6.270 -0.0078  0.2554 -0.2579
  153SAPE   O1216934  -0.006   2.134   6.411  0.0539  0.3668  0.8337
  153SAPE   O1116935   0.009   1.908   6.515 -0.2825  0.2536 -0.5111
  153SAPE    C116936   0.129   1.833   6.491  0.2240 -0.4550  0.7888
  153SAPE    HA16937   0.113   1.748   6.421 -0.7055  1.9321 -2.1349
  153SAPE    HB16938   0.210   1.894   6.444 -2.8480  2.9846 -0.4725
  153SAPE    C216939   0.192   1.763   6.619  0.1397  0.7630 -0.2269
  153SAPE    HS16940   0.293   1.730   6.590  0.8411  1.5693  1.2042
  153SAPE   O2116941   0.107   1.652   6.658 -0.5108  0.3774  0.1628
  153SAPE   C2116942   0.168   1.530   6.638  0.1281 -0.3316  0.4184
  153SAPE   O2216943   0.277   1.507   6.592 -0.2844 -0.0008 -0.2061
  153SAPE   C2216944   0.074   1.420   6.688 -0.1592  0.1029  0.4120
  153SAPE   H2R16945  -0.018   1.462   6.734 -0.9530 -0.2778 -0.7610
  153SAPE   H2S16946   0.032   1.359   6.605 -1.2480 -1.8250  2.2747
  153SAPE    C316947   0.192   1.860   6.736  0.1428  0.1521 -0.5226
  153SAPE    HX16948   0.091   1.906   6.745  0.3693  0.4609  0.6563
  153SAPE    HY16949   0.264   1.945   6.730  1.1595 -0.4888  1.6573
  153SAPE   O3116950   0.233   1.796   6.862 -0.2823  0.4085 -0.1498
  153SAPE   C3116951   0.140   1.751   6.939 -0.5172 -0.0525 -0.0215
  153SAPE   O3216952   0.021   1.778   6.924 -0.0429 -0.5638  0.3825
  153SAPE   C3216953   0.194   1.662   7.056 -0.2325 -0.0683 -0.2705
  153SAPE   H2X16954   0.222   1.725   7.143  2.7135  0.2146 -1.3275
  153SAPE   H2Y16955   0.286   1.604   7.032  1.4216  1.7383  1.3336
  153SAPE   C2316956   0.145   1.328   6.787  0.3814 -0.2940  0.1215
  153SAPE   H3R16957   0.171   1.371   6.886 -0.3800 -0.7432  0.5212
  153SAPE   H3S16958   0.238   1.291   6.739 -0.8343 -1.5303 -1.3821
  153SAPE   C2416959   0.063   1.192   6.811  0.6431 -0.3232 -0.1247
  153SAPE   H4R16960   0.125   1.123   6.873 -1.4989 -0.0165  2.5324
  153SAPE   H4S16961   0.038   1.145   6.713  3.2295  0.5561 -1.3290
  153SAPE   C2516962  -0.062   1.216   6.886  0.3255  0.6631 -0.8125
  153SAPE   H5R16963  -0.138   1.274   6.833  1.0584  2.2230 -0.2322
  153SAPE   C2616964  -0.096   1.168   7.014 -0.2113  0.1218 -0.2536
  153SAPE   H6R16965  -0.187   1.212   7.056  0.1517  0.4735  0.1867
  153SAPE   C2716966  -0.011   1.088   7.108 -0.0101  0.3170 -0.6550
  153SAPE   H7R16967   0.051   1.163   7.162 -1.2376  0.8645  0.0381
  153SAPE   H7S16968   0.063   1.022   7.058 -0.6212  0.3438 -1.6165
  153SAPE   C2816969  -0.099   1.012   7.202 -0.1867  0.1696 -0.4529
  153SAPE   H8R16970  -0.151   0.927   7.156  1.0188 -1.4134  0.9653
  153SAPE   C2916971  -0.126   1.034   7.339 -0.0595  0.2460 -0.3881
  153SAPE   H9R16972  -0.185   0.962   7.397  1.2353  0.0781  0.7739
  153SAPE  C21016973  -0.068   1.147   7.418  0.5055  0.4962 -0.2444
  153SAPE  H10R16974  -0.140   1.230   7.429  0.3443  0.2165  0.9534
  153SAPE  H10S16975   0.005   1.201   7.353 -0.6250  0.6467 -1.4241
  153SAPE  C21116976  -0.015   1.110   7.555  0.3082 -0.1173  0.2325
  153SAPE  H11R16977   0.090   1.077   7.558  0.6977  0.8146 -1.5405
  153SAPE  C21216978  -0.072   1.142   7.669  0.0171  0.7781  0.2429
  153SAPE  H12R16979  -0.023   1.090   7.753  3.2108 -0.1386 -2.0294
  153SAPE  C21316980  -0.211   1.203   7.681 -0.0910  0.4484 -0.0652
  153SAPE  H13R16981  -0.250   1.237   7.583  0.8904 -0.7791 -0.9161
  153SAPE  H13S16982  -0.186   1.288   7.749 -0.1760  0.6770 -0.3171
  153SAPE  C21416983  -0.307   1.105   7.736 -0.0145  0.7931  0.4540
  153SAPE  H14R16984  -0.328   1.024   7.664 -0.6475  1.8519 -0.6016
  153SAPE  C21516985  -0.361   1.101   7.858  0.8612 -1.0485 -0.9910
  153SAPE  H15R16986  -0.435   1.024   7.884  1.4642 -1.5884 -0.8610
  153SAPE  C21616987  -0.347   1.208   7.959 -0.6304 -0.4297  0.5005
  153SAPE  H16R16988  -0.334   1.308   7.912 -3.3760  1.4699  3.3576
  153SAPE  H16S16989  -0.266   1.188   8.032  0.3363 -1.0195 -0.6962
  153SAPE  C21716990  -0.484   1.213   8.036 -0.1666 -0.9710 -0.0738
  153SAPE  H17R16991  -0.572   1.196   7.970 -1.1845  1.8709  0.3865
  153SAPE  H17S16992  -0.484   1.318   8.072  0.2734 -1.1487  0.4486
  153SAPE  C21816993  -0.481   1.120   8.156 -0.4647 -0.3171  0.5165
  153SAPE  H18R16994  -0.398   1.151   8.223 -0.6787  0.6931  0.3344
  153SAPE  H18S16995  -0.454   1.019   8.119  0.9794  0.8140 -1.7563
  153SAPE  C21916996  -0.604   1.123   8.240  0.1335  0.1782 -0.2147
  153SAPE  H19R16997  -0.561   1.076   8.331 -0.7281  0.8426  0.5547
  153SAPE  H19S16998  -0.688   1.062   8.201  0.6283 -0.4974 -0.2335
  153SAPE  C22016999  -0.647   1.261   8.289  1.0265 -0.3201  0.2018
  153SAPE  H20R17000  -0.556   1.323   8.273  1.2781 -1.1749 -2.0279
  153SAPE  H20S17001  -0.683   1.270   8.394 -0.3577  0.8530 -0.3416
  153SAPE  H20T17002  -0.728   1.305   8.226  1.8680 -1.4212 -1.7225
  153SAPE   C3317003   0.084   1.564   7.088 -0.5017  0.8840  0.6357
  153SAPE   H3X17004   0.043   1.517   6.996  1.4814  1.9609 -0.8581
  153SAPE   H3Y17005   0.001   1.622   7.133 -0.0576  1.7305  0.3696
  153SAPE   C3417006   0.131   1.454   7.183  0.2830  0.7124 -0.2725
  153SAPE   H4X17007   0.215   1.400   7.134  2.4511  2.4876  1.2454
  153SAPE   H4Y17008   0.045   1.390   7.209  1.7129 -0.8130  0.9282
  153SAPE   C3517009   0.183   1.501   7.319 -0.7792 -0.4174 -0.0048
  153SAPE   H5X17010   0.268   1.571   7.305 -1.5247  0.3469 -0.7950
  153SAPE   H5Y17011   0.224   1.413   7.374  1.5937  0.0312 -0.9058
  153SAPE   C3617012   0.081   1.576   7.407 -0.3904 -0.5089  0.9088
  153SAPE   H6X17013  -0.007   1.509   7.420 -0.1858 -0.5523  2.1952
  153SAPE   H6Y17014   0.052   1.676   7.369  2.8118  1.3824  2.9357
  153SAPE   C3717015   0.119   1.602   7.550  0.1284 -0.1270 -0.5908
  153SAPE   H7X17016   0.037   1.651   7.606  1.4963  1.4160  0.1529
  153SAPE   H7Y17017   0.206   1.671   7.558  0.9320 -1.2640  1.5207
  153SAPE   C3817018   0.152   1.485   7.643 -0.1889 -0.0591  0.5890
  153SAPE   H8X17019   0.259   1.461   7.628 -0.0365  0.0725  1.4345
  153SAPE   H8Y17020   0.095   1.395   7.610 -2.0884  1.2687  0.0933
  153SAPE   C3917021   0.111   1.528   7.787  0.4666  0.1266 -0.1185
  153SAPE   H9X17022   0.003   1.553   7.796  0.4271 -0.5436  1.7451
  153SAPE   H9Y17023   0.180   1.613   7.810  2.2581 -0.7799 -1.8152
  153SAPE  C31017024   0.137   1.420   7.891  0.3827  0.0540 -0.7114
  153SAPE  H10X17025   0.231   1.362   7.876 -1.6873 -3.6086 -0.6332
  153SAPE  H10Y17026   0.054   1.350   7.867 -1.3539  1.0500  1.9445
  153SAPE  C31117027   0.130   1.468   8.033 -0.2534 -0.1501 -0.3159
  153SAPE  H11X17028   0.109   1.381   8.099 -0.1083  0.5988  0.7448
  153SAPE  H11Y17029   0.035   1.526   8.036  1.0594  2.1266 -0.9056
  153SAPE  C31217030   0.226   1.573   8.076  0.1756 -0.1366 -0.9042
  153SAPE  H12X17031   0.214   1.664   8.014 -0.3293 -0.7194 -1.6868
  153SAPE  H12Y17032   0.333   1.540   8.072  0.6595  1.2519 -0.0330
  153SAPE  C31317033   0.210   1.604   8.231  0.2690 -0.2569 -0.3731
  153SAPE  H13X17034   0.207   1.508   8.287  2.1659  1.6107  3.2285
  153SAPE  H13Y17035   0.109   1.649   8.246  0.6174  1.1415 -1.9396
  153SAPE  C31417036   0.324   1.692   8.277  0.8982 -0.2823  0.0836
  153SAPE  H14X17037   0.417   1.636   8.255 -0.4714 -2.0243 -1.6896
  153SAPE  H14Y17038   0.323   1.711   8.387 -0.3933  0.0312  0.0396
  153SAPE  C31517039   0.324   1.829   8.219  0.2294 -0.2255  0.4166
  153SAPE  H15X17040   0.222   1.866   8.242  0.4092  0.8166 -0.3907
  153SAPE  H15Y17041   0.338   1.820   8.109  0.8464  0.4267  0.4385
  153SAPE  C31617042   0.441   1.915   8.261  0.3508  0.2630  0.1100
  153SAPE  H16X17043   0.528   1.854   8.228 -0.1598  0.5382 -1.8869
  153SAPE  H16Y17044   0.447   1.927   8.371 -0.7203  1.0306  0.1024
  153SAPE  C31717045   0.451   2.049   8.189  0.2481  0.8501 -0.0966
  153SAPE  H17X17046   0.385   2.126   8.235  0.5149  0.7850  0.4031
  153SAPE  H17Y17047   0.423   2.032   8.083  0.7073  0.1150 -0.1097
  153SAPE  C31817048   0.596   2.100   8.203 -0.6310 -0.3665 -0.1350
  153SAPE  H18X17049   0.624   2.188   8.141  0.2424  0.1295  0.9268
  153SAPE  H18Y17050   0.664   2.025   8.157  0.0414 -0.4915  1.0397
  153SAPE  H18Z17051   0.632   2.131   8.304 -2.5092  2.6563 -0.2580
  154SAPE     N17052   5.090   5.566   5.972  0.2243  0.4967 -0.0716
  154SAPE   HN117053   5.031   5.481   5.962  0.0589  0.4095  1.4329
  154SAPE   HN217054   5.030   5.647   5.946  2.0612  1.8559 -0.3038
  154SAPE   HN317055   5.172   5.555   5.908 -0.8641 -0.0636 -1.4290
  154SAPE   C1217056   5.117   5.580   6.122  0.9049  0.5020  1.1698
  154SAPE  H12A17057   5.014   5.569   6.163 -0.0006 -0.9744 -1.2729
  154SAPE  H12B17058   5.136   5.689   6.130  0.1283  0.7276  0.1833
  154SAPE   C1117059   5.212   5.478   6.166 -0.6443  0.3430 -0.1354
  154SAPE  H11A17060   5.202   5.480   6.277  0.7112  1.2724 -0.0021
  154SAPE  H11B17061   5.308   5.517   6.126 -0.4459 -0.7640 -0.7557
  154SAPE     P17062   5.282   5.233   6.161  0.1863 -0.3715 -0.0614
  154SAPE   O1317063   5.326   5.182   6.030  0.0550  0.5341  0.3728
  154SAPE   O1417064   5.392   5.278   6.246 -0.1134  0.0157  0.0940
  154SAPE   O1217065   5.173   5.345   6.130  0.2647 -0.3121 -0.0578
  154SAPE   O1117066   5.195   5.118   6.230  0.7607 -0.2336  0.1017
  154SAPE    C117067   5.062   5.147   6.274  0.7878 -0.0198  0.4145
  154SAPE    HA17068   5.003   5.201   6.196  0.4015 -0.3183  0.4999
  154SAPE    HB17069   5.017   5.049   6.299  2.7781 -0.9920  0.3480
  154SAPE    C217070   5.054   5.242   6.398  0.1867 -0.0724  0.5827
  154SAPE    HS17071   5.124   5.327   6.385  1.9235 -1.6958 -1.3097
  154SAPE   O2117072   5.096   5.159   6.506  0.1707  0.5416 -0.5131
  154SAPE   C2117073   5.190   5.213   6.586  1.2571  0.1365 -0.9945
  154SAPE   O2217074   5.239   5.325   6.585 -0.2745 -0.1339 -0.1867
  154SAPE   C2217075   5.208   5.112   6.700 -1.0544  0.1297  0.2107
  154SAPE   H2R17076   5.166   5.016   6.665 -0.7570  0.8021 -2.2261
  154SAPE   H2S17077   5.316   5.102   6.724 -1.0511  1.7699  1.0854
  154SAPE    C317078   4.904   5.287   6.427 -0.5584 -0.6873  0.0163
  154SAPE    HX17079   4.837   5.199   6.416 -0.3371 -0.5814 -3.3290
  154SAPE    HY17080   4.888   5.342   6.331  0.5533 -2.6228 -1.3389
  154SAPE   O3117081   4.889   5.370   6.544  0.4755 -0.0003  0.4376
  154SAPE   C3117082   4.945   5.494   6.546 -0.0192  0.2150  0.4862
  154SAPE   O3217083   4.986   5.559   6.451  0.2842 -0.1630 -0.4635
  154SAPE   C3217084   4.950   5.540   6.691  0.3275 -0.6805 -0.2416
  154SAPE   H2X17085   4.889   5.632   6.694  0.8852 -0.3065 -0.2617
  154SAPE   H2Y17086   5.056   5.554   6.719 -0.1032  0.9270  0.6798
  154SAPE   C2317087   5.126   5.153   6.829 -0.5593 -0.6259  0.5099
  154SAPE   H3R17088   5.019   5.163   6.798 -0.9021  0.0070  1.8145
  154SAPE   H3S17089   5.161   5.254   6.858 -1.2911 -0.0550 -0.5211
  154SAPE   C2417090   5.140   5.038   6.931  0.5860 -0.1888  0.1075
  154SAPE   H4R17091   5.163   4.951   6.867 -0.1902  2.8163 -4.8373
  154SAPE   H4S17092   5.039   5.034   6.979 -0.2813  2.7721 -1.2207
  154SAPE   C2517093   5.246   5.051   7.031 -0.4835 -0.1328  0.3556
  154SAPE   H5R17094   5.344   5.040   6.982 -2.0630 -0.1477 -3.1468
  154SAPE   C2617095   5.227   5.082   7.156 -0.3871  1.1387 -0.9289
  154SAPE   H6R17096   5.310   5.096   7.227 -0.1203 -1.3335 -0.6618
  154SAPE   C2717097   5.093   5.099   7.231 -0.5599 -0.0916  0.3205
  154SAPE   H7R17098   5.018   5.135   7.157  0.9937  1.0513 -0.7622
  154SAPE   H7S17099   5.100   5.191   7.292  0.3815 -2.1203  3.4828
  154SAPE   C2817100   5.048   4.983   7.313  0.1917 -0.1273  0.7453
  154SAPE   H8R17101   4.973   4.916   7.269  2.9279 -2.9763  0.0130
  154SAPE   C2917102   5.089   4.950   7.441  0.5084 -0.1287 -0.3488
  154SAPE   H9R17103   5.042   4.868   7.498  0.6837 -0.2579 -0.3889
  154SAPE  C21017104   5.197   5.019   7.518  0.2569  0.0122 -0.0576
  154SAPE  H10R17105   5.158   5.074   7.606 -3.4967 -0.0385 -1.5245
  154SAPE  H10S17106   5.246   5.092   7.451  1.3627  0.2098  0.9355
  154SAPE  C21117107   5.317   4.932   7.549 -0.3517  0.1900  0.6084
  154SAPE  H11R17108   5.348   4.890   7.452 -0.2559  1.2086  0.1815
  154SAPE  C21217109   5.361   4.884   7.667 -0.0394 -0.1097  1.3206
  154SAPE  H12R17110   5.445   4.814   7.668  0.3722  0.2568 -1.1746
  154SAPE  C21317111   5.311   4.933   7.794 -0.0989  0.1585 -0.9904
  154SAPE  H13R17112   5.259   4.853   7.853  0.9323  0.6996  0.7364
  154SAPE  H13S17113   5.239   5.017   7.787  0.5656  1.4193  3.7719
  154SAPE  C21417114   5.425   4.996   7.875  0.0371  0.0117 -0.1218
  154SAPE  H14R17115   5.455   5.094   7.834 -0.0259  0.1076  0.0611
  154SAPE  C21517116   5.475   4.955   7.989 -0.6095  0.3041  0.0192
  154SAPE  H15R17117   5.553   5.015   8.038 -0.6847  0.7421 -0.3977
  154SAPE  C21617118   5.452   4.835   8.076 -0.5862  0.6994 -0.0276
  154SAPE  H16R17119   5.398   4.763   8.012  1.6842 -1.1320 -0.0119
  154SAPE  H16S17120   5.379   4.876   8.150  1.5195 -0.2190  2.7374
  154SAPE  C21717121   5.565   4.769   8.151  0.0216  0.5544  0.8778
  154SAPE  H17R17122   5.533   4.706   8.237  1.1565  0.3937  1.2035
  154SAPE  H17S17123   5.633   4.848   8.188 -0.4782  1.1039  0.6281
  154SAPE  C21817124   5.646   4.676   8.064  0.0362 -0.5396 -0.5415
  154SAPE  H18R17125   5.678   4.734   7.974 -1.1976 -0.8188 -1.1976
  154SAPE  H18S17126   5.573   4.597   8.034 -1.9615 -0.6895  3.9919
  154SAPE  C21917127   5.772   4.609   8.129 -0.6872  0.7684 -0.1607
  154SAPE  H19R17128   5.825   4.689   8.185 -0.9817 -0.4294  1.9057
  154SAPE  H19S17129   5.834   4.587   8.039 -1.1736  2.8817 -1.0800
  154SAPE  C22017130   5.741   4.497   8.237 -0.5430 -0.3058 -0.1438
  154SAPE  H20R17131   5.704   4.405   8.187 -1.1015  0.5297 -1.3096
  154SAPE  H20S17132   5.681   4.536   8.322  2.5573  1.5633  1.3954
  154SAPE  H20T17133   5.840   4.477   8.285  0.6331  2.2857 -1.2751
  154SAPE   C3317134   4.889   5.452   6.804  0.1379  1.2153  0.3137
  154SAPE   H3X17135   4.894   5.343   6.786 -1.2852  1.4173 -1.6153
  154SAPE   H3Y17136   4.778   5.464   6.803 -0.0252  0.7258  2.9796
  154SAPE   C3417137   4.948   5.490   6.943 -0.1295  0.0973  0.7220
  154SAPE   H4X17138   4.938   5.598   6.964 -0.4076 -0.2101  2.2908
  154SAPE   H4Y17139   5.058   5.479   6.938 -0.2805 -1.8181  0.8534
  154SAPE   C3517140   4.896   5.410   7.061 -0.0799  0.9838  0.0314
  154SAPE   H5X17141   4.911   5.304   7.033 -2.8065  0.6820 -0.5453
  154SAPE   H5Y17142   4.786   5.428   7.063 -0.8122 -2.5714 -1.0157
  154SAPE   C3617143   4.955   5.442   7.200 -0.5601 -0.5896  0.2455
  154SAPE   H6X17144   4.959   5.551   7.219 -1.7071 -0.2992 -1.0373
  154SAPE   H6Y17145   5.056   5.396   7.209 -0.9494 -1.2647  1.4098
  154SAPE   C3717146   4.873   5.377   7.314 -0.1299 -0.3987  0.5077
  154SAPE   H7X17147   4.861   5.271   7.285 -2.5053  0.1707 -0.8558
  154SAPE   H7Y17148   4.773   5.426   7.319 -0.6424 -1.4594  0.7335
  154SAPE   C3817149   4.950   5.390   7.441  0.0289 -0.5449  0.5001
  154SAPE   H8X17150   4.957   5.498   7.467 -0.7002  0.0328 -1.5530
  154SAPE   H8Y17151   5.053   5.348   7.434 -0.1882 -1.4481  2.0793
  154SAPE   C3917152   4.890   5.311   7.561  1.0023 -0.5443  0.1320
  154SAPE   H9X17153   4.885   5.204   7.532  1.0723 -0.6934  0.6547
  154SAPE   H9Y17154   4.784   5.338   7.579  0.6612 -0.2399 -2.0071
  154SAPE  C31017155   4.960   5.319   7.692  0.1407 -1.0037 -0.1161
  154SAPE  H10X17156   4.943   5.412   7.749  0.4645 -0.3782 -1.0200
  154SAPE  H10Y17157   5.069   5.318   7.674  0.3874 -1.8308  1.3277
  154SAPE  C31117158   4.913   5.212   7.792  0.2083  1.0951 -0.1511
  154SAPE  H11X17159   4.944   5.120   7.738  0.2004  0.4370  0.9383
  154SAPE  H11Y17160   4.802   5.218   7.785  0.0141 -2.0080 -1.1900
  154SAPE  C31217161   4.964   5.223   7.931 -0.5147 -0.5006 -0.2366
  154SAPE  H12X17162   4.951   5.124   7.979  0.7709 -0.6191 -0.0985
  154SAPE  H12Y17163   4.900   5.299   7.980 -0.6145 -0.8286  0.1484
  154SAPE  C31317164   5.118   5.248   7.943  0.3595  0.0814 -0.4526
  154SAPE  H13X17165   5.115   5.359   7.936  0.0564  0.1874  1.0902
  154SAPE  H13Y17166   5.166   5.199   7.855  0.2611 -2.5927  0.8879
  154SAPE  C31417167   5.182   5.175   8.066 -0.0188 -0.6503  0.3891
  154SAPE  H14X17168   5.285   5.216   8.062  0.1995 -1.1713  0.5591
  154SAPE  H14Y17169   5.187   5.066   8.047 -0.9955 -0.6402  0.0345
  154SAPE  C31517170   5.125   5.211   8.204  0.1409  0.0681 -0.0505
  154SAPE  H15X17171   5.185   5.141   8.266  1.4525  0.6989 -0.5793
  154SAPE  H15Y17172   5.018   5.179   8.201 -0.0283  0.5489  0.5705
  154SAPE  C31617173   5.140   5.358   8.242 -0.9992  0.3837 -0.2563
  154SAPE  H16X17174   5.091   5.419   8.164 -2.6824  0.5422  0.8611
  154SAPE  H16Y17175   5.248   5.382   8.248 -1.4473  2.3528  0.9846
  154SAPE  C31717176   5.079   5.392   8.379  0.8663  0.4273  0.6830
  154SAPE  H17X17177   5.128   5.332   8.459 -0.6847 -1.0829  0.5641
  154SAPE  H17Y17178   4.975   5.354   8.379  0.8826  0.1058 -2.7406
  154SAPE  C31817179   5.080   5.540   8.405  0.0446  0.0577 -0.4205
  154SAPE  H18X17180   5.185   5.574   8.418  0.0342 -0.3481  0.9262
  154SAPE  H18Y17181   5.019   5.563   8.495  0.0012 -0.0383 -0.4256
  154SAPE  H18Z17182   5.041   5.594   8.316  0.6111  1.3429  0.0875
  155SAPE     N17183   5.354   0.590   6.179 -0.1277 -0.2344  0.9780
  155SAPE   HN117184   5.449   0.547   6.186 -0.5522 -1.1161  1.3514
  155SAPE   HN217185   5.353   0.665   6.106 -1.0424  0.0600  1.2915
  155SAPE   HN317186   5.329   0.619   6.275 -0.9059 -0.0404  0.7200
  155SAPE   C1217187   5.272   0.470   6.133 -0.0944 -0.8044 -0.2916
  155SAPE  H12A17188   5.234   0.498   6.033 -0.6101  0.1053  0.1468
  155SAPE  H12B17189   5.186   0.465   6.203  0.7095  1.5578  0.9494
  155SAPE   C1117190   5.340   0.329   6.122 -0.4759  0.5553  0.3950
  155SAPE  H11A17191   5.425   0.346   6.053 -0.2624 -1.0087  0.2297
  155SAPE  H11B17192   5.285   0.255   6.060  1.0508  1.9161 -2.8401
  155SAPE     P17193   5.416   0.119   6.278 -0.1042 -0.3005  0.0652
  155SAPE   O1317194   5.378   0.036   6.157 -0.4466  0.4320 -0.2147
  155SAPE   O1417195   5.558   0.100   6.333 -0.2775 -0.1168  0.0327
  155SAPE   O1217196   5.393   0.282   6.247 -0.4040 -0.1950  0.0517
  155SAPE   O1117197   5.306   0.082   6.388 -0.1231  0.2552  0.3174
  155SAPE    C117198   5.326   0.150   6.518 -0.0066 -0.3546  0.4104
  155SAPE    HA17199   5.377   0.249   6.514  0.6732 -0.5561  2.6628
  155SAPE    HB17200   5.231   0.162   6.575  0.1718 -2.2187  1.1606
  155SAPE    C217201   5.414   0.072   6.614  0.3560 -0.2103  0.0386
  155SAPE    HS17202   5.516   0.059   6.571 -0.0525  1.0858 -1.4100
  155SAPE   O2117203   5.354  -0.052   6.658 -0.1395  0.0645 -0.7052
  155SAPE   C2117204   5.370  -0.153   6.570  0.1364 -0.6281 -0.3307
  155SAPE   O2217205   5.422  -0.152   6.464 -0.2744 -0.3632 -0.2177
  155SAPE   C2217206   5.323  -0.282   6.639 -0.0253 -0.3769  0.1879
  155SAPE   H2R17207   5.238  -0.270   6.709  0.2690 -0.6910  0.6075
  155SAPE   H2S17208   5.286  -0.343   6.553 -4.8694  0.0314  1.6638
  155SAPE    C317209   5.443   0.148   6.746 -1.1698  0.1113 -0.4050
  155SAPE    HX17210   5.346   0.163   6.798 -0.0729 -0.0880  1.7999
  155SAPE    HY17211   5.493   0.245   6.721  0.4099  0.8226  4.4517
  155SAPE   O3117212   5.540   0.079   6.829  0.0906  0.4912 -0.9547
  155SAPE   C3117213   5.561   0.143   6.944 -0.0654 -0.8832  0.3713
  155SAPE   O3217214   5.515   0.253   6.976 -0.1307  0.2904 -0.4091
  155SAPE   C3217215   5.665   0.067   7.020 -0.2765 -0.5498 -0.5046
  155SAPE   H2X17216   5.762   0.078   6.967 -0.7100  2.1431 -0.9063
  155SAPE   H2Y17217   5.633  -0.038   7.032  0.4458 -0.7622 -0.4060
  155SAPE   C2317218   5.428  -0.360   6.724 -1.0514  0.3851  0.0326
  155SAPE   H3R17219   5.506  -0.401   6.656 -1.2552 -0.0859  0.0860
  155SAPE   H3S17220   5.376  -0.447   6.768  2.1953 -1.1341  1.2120
  155SAPE   C2417221   5.508  -0.279   6.831 -0.1628 -0.2537 -0.2800
  155SAPE   H4R17222   5.570  -0.203   6.779  2.1935 -1.6527  0.3195
  155SAPE   H4S17223   5.589  -0.341   6.876  0.4449 -1.2739 -2.6484
  155SAPE   C2517224   5.426  -0.204   6.938  0.2016  0.1353  0.5778
  155SAPE   H5R17225   5.383  -0.117   6.887 -0.0783  0.1844  0.8908
  155SAPE   C2617226   5.411  -0.220   7.070  0.1704  1.1842 -0.5904
  155SAPE   H6R17227   5.327  -0.164   7.114 -0.5044  0.5994 -1.1081
  155SAPE   C2717228   5.475  -0.331   7.154 -0.0710  0.0725  0.6263
  155SAPE   H7R17229   5.501  -0.417   7.089  0.0773  0.5523  0.0423
  155SAPE   H7S17230   5.396  -0.371   7.221 -2.2117  3.2734  0.2558
  155SAPE   C2817231   5.600  -0.277   7.225  0.3234  0.3163 -0.3057
  155SAPE   H8R17232   5.668  -0.226   7.154  1.1061 -0.7607 -0.3593
  155SAPE   C2917233   5.630  -0.296   7.354  0.1545  0.4876 -0.0250
  155SAPE   H9R17234   5.700  -0.227   7.403  0.5950  0.5148 -0.6837
  155SAPE  C21017235   5.536  -0.363   7.459 -0.7070 -0.2598 -0.6966
  155SAPE  H10R17236   5.454  -0.420   7.410 -0.5266 -1.2153  0.0759
  155SAPE  H10S17237   5.492  -0.285   7.523  3.1555  0.4794  1.3773
  155SAPE  C21117238   5.618  -0.449   7.549 -0.6799  0.1285  0.8527
  155SAPE  H11R17239   5.637  -0.549   7.509  0.6266 -0.0915  1.9540
  155SAPE  C21217240   5.646  -0.425   7.678 -0.6909  0.8338 -0.7227
  155SAPE  H12R17241   5.715  -0.493   7.728 -1.7300 -0.0216 -0.4132
  155SAPE  C21317242   5.589  -0.307   7.751  0.3657 -0.1848 -0.4281
  155SAPE  H13R17243   5.609  -0.221   7.683 -1.0527 -1.5515 -2.7443
  155SAPE  H13S17244   5.649  -0.296   7.844 -0.6723  0.1587  0.2194
  155SAPE  C21417245   5.444  -0.307   7.792 -0.1404 -0.3562  0.6316
  155SAPE  H14R17246   5.386  -0.362   7.717  2.4533  0.0951 -1.8530
  155SAPE  C21517247   5.390  -0.246   7.902 -0.6452 -0.3367  0.0341
  155SAPE  H15R17248   5.282  -0.250   7.920 -0.6062 -2.2803  0.0285
  155SAPE  C21617249   5.471  -0.160   8.001 -0.0640 -0.3586  0.6534
  155SAPE  H16R17250   5.496  -0.079   7.930 -2.4009 -0.7383 -0.7135
  155SAPE  H16S17251   5.568  -0.200   8.039  0.6458 -1.6541 -2.2473
  155SAPE  C21717252   5.391  -0.113   8.119 -0.2739  0.5801  0.9517
  155SAPE  H17R17253   5.294  -0.073   8.082  0.3768  0.5318 -0.8982
  155SAPE  H17S17254   5.445  -0.021   8.148 -0.7611  1.5482 -1.0638
  155SAPE  C21817255   5.376  -0.226   8.222  0.5662 -0.0243 -0.2736
  155SAPE  H18R17256   5.470  -0.227   8.282  0.8084 -1.3230 -0.6395
  155SAPE  H18S17257   5.362  -0.326   8.177  3.7836  0.0513 -1.7016
  155SAPE  C21917258   5.260  -0.204   8.327 -0.0571 -0.2932 -0.7297
  155SAPE  H19R17259   5.280  -0.280   8.406  1.1639 -0.3161 -1.0335
  155SAPE  H19S17260   5.165  -0.220   8.271 -0.1856 -1.2888 -0.2533
  155SAPE  C22017261   5.266  -0.070   8.398  0.7436 -0.0638  0.3717
  155SAPE  H20R17262   5.190  -0.058   8.479  0.2024  1.0215 -0.2797
  155SAPE  H20S17263   5.253   0.012   8.325  0.0893 -0.0640  0.4797
  155SAPE  H20T17264   5.362  -0.055   8.451  1.3711  1.0993 -1.0306
  155SAPE   C3317265   5.678   0.115   7.164  0.0163  0.0448  0.4984
  155SAPE   H3X17266   5.701   0.224   7.159  0.2902 -0.0376 -0.1728
  155SAPE   H3Y17267   5.766   0.064   7.208 -0.5569  0.1683  1.8287
  155SAPE   C3417268   5.544   0.102   7.246  0.2515  0.4446  0.7692
  155SAPE   H4X17269   5.478   0.020   7.210  0.1655  1.1865 -0.8616
  155SAPE   H4Y17270   5.475   0.186   7.222 -0.4682 -0.5507 -0.7970
  155SAPE   C3517271   5.563   0.100   7.393 -0.1950  0.2624  0.3842
  155SAPE   H5X17272   5.623   0.015   7.432  0.9009  1.1091  0.5996
  155SAPE   H5Y17273   5.460   0.082   7.431 -1.2881  0.1896 -2.3932
  155SAPE   C3617274   5.615   0.236   7.456 -0.1187  0.6129 -0.0444
  155SAPE   H6X17275   5.546   0.313   7.416 -0.4781 -0.6170 -1.9412
  155SAPE   H6Y17276   5.714   0.267   7.418  1.2897 -0.7846  2.2352
  155SAPE   C3717277   5.620   0.239   7.610 -0.5097  0.2277  0.4405
  155SAPE   H7X17278   5.520   0.219   7.654 -0.2642  0.2021  0.9891
  155SAPE   H7Y17279   5.636   0.341   7.649 -1.3399  0.2882  0.6364
  155SAPE   C3817280   5.714   0.130   7.670  0.1881  0.0833  0.1260
  155SAPE   H8X17281   5.815   0.146   7.626 -0.7004  2.8256 -1.0770
  155SAPE   H8Y17282   5.676   0.030   7.639  3.0988 -0.8298 -0.8154
  155SAPE   C3917283   5.732   0.136   7.822  0.2301 -0.0757  0.9385
  155SAPE   H9X17284   5.633   0.112   7.866  0.0486 -0.1208  0.5173
  155SAPE   H9Y17285   5.763   0.236   7.859  0.8045 -0.4180  1.3898
  155SAPE  C31017286   5.841   0.032   7.868 -0.6308 -0.0792  0.4170
  155SAPE  H10X17287   5.946   0.061   7.845 -0.5524 -2.0440 -2.3320
  155SAPE  H10Y17288   5.837  -0.063   7.810 -0.4856  0.5864 -0.7288
  155SAPE  C31117289   5.829  -0.000   8.013 -0.0537  0.1017  0.0800
  155SAPE  H11X17290   5.726  -0.019   8.050  0.3266  0.1032  1.1888
  155SAPE  H11Y17291   5.875   0.085   8.068  2.3536  0.2337 -1.9569
  155SAPE  C31217292   5.914  -0.124   8.054 -0.3331  0.0544  0.2803
  155SAPE  H12X17293   5.883  -0.212   7.995 -2.6673  2.0840 -1.7294
  155SAPE  H12Y17294   5.880  -0.138   8.159 -0.3245  1.4592  0.4896
  155SAPE  C31317295   6.073  -0.108   8.061 -0.4467 -0.0498  0.5060
  155SAPE  H13X17296   6.094  -0.011   8.112  2.8630 -0.3293 -0.1486
  155SAPE  H13Y17297   6.093  -0.083   7.955 -1.8309  0.7344  0.4072
  155SAPE  C31417298   6.149  -0.216   8.128  0.5182  0.0979 -0.0437
  155SAPE  H14X17299   6.128  -0.307   8.068  0.3038  0.3587 -0.3671
  155SAPE  H14Y17300   6.103  -0.232   8.228 -1.8577  1.6809 -0.7908
  155SAPE  C31517301   6.299  -0.188   8.147  0.1227 -0.2393 -0.6098
  155SAPE  H15X17302   6.318  -0.120   8.233 -1.1810  0.0971 -0.5559
  155SAPE  H15Y17303   6.337  -0.137   8.056 -0.3200 -0.5054 -0.9503
  155SAPE  C31617304   6.381  -0.317   8.165 -1.6884 -0.5575  0.1242
  155SAPE  H16X17305   6.363  -0.363   8.265 -1.9726 -2.3635 -0.7179
  155SAPE  H16Y17306   6.488  -0.288   8.167 -1.3811 -1.1204 -2.8697
  155SAPE  C31717307   6.375  -0.431   8.066 -0.8858  0.9153  0.4106
  155SAPE  H17X17308   6.411  -0.395   7.968 -0.3991 -0.3997  0.0819
  155SAPE  H17Y17309   6.270  -0.468   8.061 -1.1386  1.4313  1.4746
  155SAPE  C31817310   6.471  -0.549   8.100  0.0852 -0.5894  0.2555
  155SAPE  H18X17311   6.577  -0.513   8.105  0.5512 -1.9768  0.8164
  155SAPE  H18Y17312   6.472  -0.629   8.023 -0.8234 -1.1005  0.7576
  155SAPE  H18Z17313   6.457  -0.585   8.204 -1.2230  1.8119  0.9826
  156SAPE     N17314   3.115   2.399   6.216 -0.1274  0.5955 -0.2826
  156SAPE   HN117315   3.130   2.325   6.287 -0.9977  0.2850 -0.4161
  156SAPE   HN217316   3.212   2.411   6.179  1.7802 -1.7581  3.3917
  156SAPE   HN317317   3.099   2.487   6.270  0.9225 -0.1038  1.2330
  156SAPE   C1217318   3.008   2.369   6.126  0.6033  0.1481  0.0296
  156SAPE  H12A17319   2.988   2.261   6.112  0.2975  0.0864  0.8879
  156SAPE  H12B17320   3.042   2.413   6.030  3.2297 -3.1351 -0.7370
  156SAPE   C1117321   2.885   2.446   6.167 -0.0313 -0.3646 -0.3905
  156SAPE  H11A17322   2.803   2.431   6.093  1.5744  0.2634 -2.4273
  156SAPE  H11B17323   2.899   2.556   6.153  2.4161 -0.5860  0.0184
  156SAPE     P17324   2.752   2.299   6.336  0.0736 -0.2970 -0.0754
  156SAPE   O1317325   2.608   2.339   6.341  0.1245  0.8661  0.1270
  156SAPE   O1417326   2.787   2.191   6.247 -0.3364 -0.4614  0.4193
  156SAPE   O1217327   2.841   2.426   6.302 -0.2985  0.7647 -0.4417
  156SAPE   O1117328   2.794   2.264   6.482  0.1221 -0.1673  0.0781
  156SAPE    C117329   2.932   2.274   6.524 -0.6406  0.2496 -0.0791
  156SAPE    HA17330   2.996   2.194   6.481  0.0015 -0.1341  1.4885
  156SAPE    HB17331   2.972   2.377   6.509  0.0175 -0.0757 -0.5783
  156SAPE    C217332   2.960   2.260   6.682 -0.0484  0.3020  0.8202
  156SAPE    HS17333   3.064   2.293   6.705  0.9170 -0.8905 -1.4749
  156SAPE   O2117334   2.946   2.119   6.711 -0.5366 -0.1040  0.1117
  156SAPE   C2117335   3.026   2.068   6.794 -0.7449  0.1013  0.2356
  156SAPE   O2217336   3.131   2.124   6.832  0.2142  0.4344  0.2660
  156SAPE   C2217337   2.975   1.926   6.822  0.0329 -0.6771  0.4776
  156SAPE   H2R17338   2.940   1.878   6.728 -0.8846  0.8077  0.0164
  156SAPE   H2S17339   3.061   1.871   6.865  0.3122 -0.5576  0.0844
  156SAPE    C317340   2.854   2.339   6.762 -0.7858  0.2461 -0.4728
  156SAPE    HX17341   2.755   2.298   6.732  0.3338 -3.4612  0.3342
  156SAPE    HY17342   2.884   2.444   6.742  1.9279 -0.5951 -1.2483
  156SAPE   O3117343   2.864   2.311   6.905 -0.5050 -0.0869 -0.2220
  156SAPE   C3117344   2.815   2.400   6.987  0.2293  0.2903 -0.0013
  156SAPE   O3217345   2.755   2.499   6.950 -0.2848 -0.2112 -0.0058
  156SAPE   C3217346   2.838   2.366   7.133 -0.8643  0.0742  0.1114
  156SAPE   H2X17347   2.818   2.457   7.193  0.0347 -1.5241  3.0563
  156SAPE   H2Y17348   2.947   2.346   7.145 -0.3568  1.3399 -1.8118
  156SAPE   C2317349   2.860   1.928   6.925 -0.1990  0.1891  0.1699
  156SAPE   H3R17350   2.785   1.996   6.881  1.5483  1.8041 -0.4099
  156SAPE   H3S17351   2.892   1.958   7.027 -0.5694  1.2248 -0.0104
  156SAPE   C2417352   2.786   1.792   6.931 -0.0698  0.2638  0.5517
  156SAPE   H4R17353   2.756   1.759   6.829 -1.5814 -3.3588  2.0338
  156SAPE   H4S17354   2.691   1.810   6.985 -0.8200  0.0418 -0.6663
  156SAPE   C2517355   2.876   1.686   6.994 -0.8472  0.6403  0.2462
  156SAPE   H5R17356   2.953   1.642   6.929 -1.3216 -0.4380  0.3883
  156SAPE   C2617357   2.874   1.638   7.118 -0.3303  1.0240 -1.0296
  156SAPE   H6R17358   2.946   1.561   7.148 -1.1715  1.0783  1.3061
  156SAPE   C2717359   2.776   1.679   7.225 -0.1966  0.7765  0.2698
  156SAPE   H7R17360   2.687   1.613   7.234  0.4877 -0.3865 -1.0398
  156SAPE   H7S17361   2.728   1.775   7.195  0.1141  1.1192  0.8644
  156SAPE   C2817362   2.849   1.693   7.358 -0.0036 -0.4830 -0.8049
  156SAPE   H8R17363   2.902   1.789   7.359  0.6255 -0.8278 -0.1084
  156SAPE   C2917364   2.854   1.607   7.467 -0.2603  0.4222  0.0332
  156SAPE   H9R17365   2.907   1.644   7.556  0.1953  2.1676 -0.9299
  156SAPE  C21017366   2.794   1.472   7.482  0.0010  0.1623 -0.1870
  156SAPE  H10R17367   2.866   1.388   7.474 -1.3858 -0.9308 -2.5316
  156SAPE  H10S17368   2.735   1.449   7.390 -0.2811  2.1549 -0.5529
  156SAPE  C21117369   2.706   1.467   7.604  0.4201 -1.0882 -0.4131
  156SAPE  H11R17370   2.635   1.550   7.616  0.8191 -0.8832  0.5898
  156SAPE  C21217371   2.716   1.384   7.709 -0.1447 -0.3625 -0.4254
  156SAPE  H12R17372   2.647   1.397   7.794  0.8531 -2.0733  0.6961
  156SAPE  C21317373   2.817   1.271   7.723 -0.0137 -0.0174  0.1134
  156SAPE  H13R17374   2.852   1.233   7.625 -2.4141 -1.9635 -0.0704
  156SAPE  H13S17375   2.771   1.189   7.783 -0.7939 -0.8575 -1.5654
  156SAPE  C21417376   2.937   1.328   7.795  0.3331  0.4769  0.1720
  156SAPE  H14R17377   2.973   1.428   7.766 -1.0998  0.9546 -0.0037
  156SAPE  C21517378   2.993   1.274   7.903  0.4974  0.2544  0.2193
  156SAPE  H15R17379   3.079   1.334   7.935 -1.0176  4.2050 -2.3489
  156SAPE  C21617380   2.966   1.154   7.989 -0.4828  1.1994 -0.0700
  156SAPE  H16R17381   3.049   1.080   7.979 -1.6049 -0.4926  2.2264
  156SAPE  H16S17382   2.875   1.097   7.959  0.6090  0.0494 -1.4060
  156SAPE  C21717383   2.944   1.171   8.140  0.5195 -0.1673 -0.0872
  156SAPE  H17R17384   3.028   1.228   8.185  1.8307 -2.6249  0.7909
  156SAPE  H17S17385   2.946   1.065   8.176 -2.3920 -0.7879 -1.4681
  156SAPE  C21817386   2.817   1.254   8.171 -0.3886  0.3507  0.2834
  156SAPE  H18R17387   2.810   1.338   8.100  0.0998  0.0336 -0.1482
  156SAPE  H18S17388   2.820   1.307   8.269 -1.1249  0.3546  0.3090
  156SAPE  C21917389   2.694   1.168   8.148 -0.1328 -0.4686  0.2531
  156SAPE  H19R17390   2.663   1.108   8.237 -0.4290  0.2328  0.6308
  156SAPE  H19S17391   2.695   1.088   8.071  0.3652 -2.3017  2.0806
  156SAPE  C22017392   2.575   1.252   8.106 -0.0173  0.1674 -1.0098
  156SAPE  H20R17393   2.536   1.300   8.198  1.7400 -0.5227  0.1441
  156SAPE  H20S17394   2.503   1.198   8.040 -2.5611  1.9372  0.1665
  156SAPE  H20T17395   2.612   1.329   8.036  1.4352  1.7098  1.3102
  156SAPE   C3317396   2.743   2.253   7.177  0.6929  0.0099 -0.4588
  156SAPE   H3X17397   2.734   2.178   7.095 -0.5232 -0.2019 -0.1459
  156SAPE   H3Y17398   2.644   2.301   7.192  1.8248  1.8012  1.9281
  156SAPE   C3417399   2.788   2.182   7.303  0.2680  0.0691  0.2824
  156SAPE   H4X17400   2.894   2.151   7.287  0.4633  0.4900  0.7501
  156SAPE   H4Y17401   2.741   2.081   7.312  0.6776 -0.1053  0.5156
  156SAPE   C3517402   2.770   2.260   7.430 -0.9153 -0.7543  0.5979
  156SAPE   H5X17403   2.660   2.277   7.438 -0.9718 -0.8688  0.0991
  156SAPE   H5Y17404   2.824   2.357   7.421  2.4569 -2.1186  3.6752
  156SAPE   C3617405   2.820   2.192   7.560  0.9229 -0.0215 -0.2215
  156SAPE   H6X17406   2.820   2.263   7.645 -0.1432  1.2942 -1.2792
  156SAPE   H6Y17407   2.926   2.160   7.542 -0.0657 -3.1149 -1.2573
  156SAPE   C3717408   2.738   2.072   7.595  0.4154  0.4696 -0.0885
  156SAPE   H7X17409   2.758   1.984   7.531  1.8954  1.5653 -1.2280
  156SAPE   H7Y17410   2.635   2.111   7.581  0.4825  1.7102  2.2809
  156SAPE   C3817411   2.765   2.026   7.740  0.0741  0.6060  0.1614
  156SAPE   H8X17412   2.696   1.946   7.775  0.0655 -0.1418 -1.4667
  156SAPE   H8Y17413   2.759   2.118   7.802  1.2561 -0.0703  1.3408
  156SAPE   C3917414   2.909   1.964   7.765 -0.0845  0.0911 -0.0756
  156SAPE   H9X17415   2.989   2.028   7.724  1.4432 -2.8372 -2.0101
  156SAPE   H9Y17416   2.924   1.871   7.706 -0.3342 -0.2745  0.4293
  156SAPE  C31017417   2.937   1.942   7.913 -0.2757  0.0157 -0.3013
  156SAPE  H10X17418   2.906   2.029   7.974  1.1192  0.1608  0.2224
  156SAPE  H10Y17419   3.046   1.930   7.930 -0.4306 -4.5224 -1.1976
  156SAPE  C31117420   2.884   1.810   7.978  0.2648  0.5281 -0.2783
  156SAPE  H11X17421   2.937   1.734   7.916 -1.7591 -0.9273 -0.2976
  156SAPE  H11Y17422   2.775   1.802   7.959  0.0752 -4.4514  1.4969
  156SAPE  C31217423   2.909   1.802   8.131 -0.1585 -0.1367  0.1775
  156SAPE  H12X17424   2.843   1.868   8.192 -3.6686 -2.1843 -1.0979
  156SAPE  H12Y17425   3.012   1.842   8.133 -0.2612  0.3985 -2.2328
  156SAPE  C31317426   2.899   1.654   8.192 -0.0949  0.2685 -0.3296
  156SAPE  H13X17427   2.964   1.661   8.282  0.9946  1.2693 -1.1609
  156SAPE  H13Y17428   2.938   1.581   8.118 -0.4686  1.8692 -2.2034
  156SAPE  C31417429   2.758   1.609   8.231  0.4053 -0.1801 -0.2014
  156SAPE  H14X17430   2.736   1.501   8.216  2.3421 -1.0760  2.6895
  156SAPE  H14Y17431   2.686   1.669   8.171  0.9221  0.5925 -0.0525
  156SAPE  C31517432   2.736   1.632   8.384  0.2136  0.3331 -0.0042
  156SAPE  H15X17433   2.760   1.739   8.405  1.7946 -0.3030  1.7460
  156SAPE  H15Y17434   2.809   1.581   8.451  1.2180  3.0839  1.1963
  156SAPE  C31617435   2.592   1.603   8.420  0.6358 -0.5059  0.0801
  156SAPE  H16X17436   2.531   1.626   8.330 -1.0733 -0.0965  1.2816
  156SAPE  H16Y17437   2.562   1.683   8.492  1.4052  0.7004 -0.8987
  156SAPE  C31717438   2.556   1.459   8.450  0.0471 -0.0601 -0.2961
  156SAPE  H17X17439   2.600   1.395   8.371 -1.9292 -0.3094 -1.2757
  156SAPE  H17Y17440   2.445   1.445   8.450  0.0980 -0.9031  2.2111
  156SAPE  C31817441   2.599   1.407   8.584 -0.4070 -0.0407  0.4309
  156SAPE  H18X17442   2.613   1.297   8.587  0.6940  0.0739  0.2554
  156SAPE  H18Y17443   2.533   1.434   8.668 -1.1906 -0.7924  0.0715
  156SAPE  H18Z17444   2.706   1.429   8.607  0.6305 -2.9067 -1.0756
  157SAPE     N17445   1.189   2.368   6.164 -0.9235 -0.0166 -0.0628
  157SAPE   HN117446   1.257   2.434   6.121 -2.3727  2.6297  1.4419
  157SAPE   HN217447   1.171   2.396   6.262 -1.3496  0.1017 -0.1724
  157SAPE   HN317448   1.234   2.274   6.167 -0.9330 -0.2888 -3.8341
  157SAPE   C1217449   1.058   2.376   6.098 -0.1494  0.0790 -0.6570
  157SAPE  H12A17450   0.987   2.300   6.138  1.0712  0.1858  1.9217
  157SAPE  H12B17451   1.067   2.368   5.988 -2.7692 -0.7243 -0.8819
  157SAPE   C1117452   1.002   2.520   6.136 -0.1485  0.0681  0.2245
  157SAPE  H11A17453   0.967   2.508   6.241  0.7571 -2.3976  0.3135
  157SAPE  H11B17454   0.920   2.547   6.065  1.3540  3.4105 -0.4592
  157SAPE     P17455   1.040   2.774   6.149  0.2618 -0.0420 -0.4864
  157SAPE   O1317456   1.150   2.870   6.160  0.3369  0.3486 -0.1716
  157SAPE   O1417457   0.932   2.801   6.052  0.2400 -0.1324 -0.4218
  157SAPE   O1217458   1.094   2.628   6.125 -0.1977 -0.3432  0.2777
  157SAPE   O1117459   0.971   2.767   6.292 -0.4723 -0.3167  0.1396
  157SAPE    C117460   1.064   2.772   6.411  0.2228 -0.7351  0.3969
  157SAPE    HA17461   1.040   2.684   6.475 -0.8345  0.7053  2.0751
  157SAPE    HB17462   1.168   2.752   6.378  0.1303  1.6043 -1.6572
  157SAPE    C217463   1.068   2.900   6.503  0.6151  0.5018 -0.4528
  157SAPE    HS17464   1.113   2.866   6.599 -0.8700 -1.0662 -0.2644
  157SAPE   O2117465   0.937   2.955   6.529 -0.5461 -0.2874 -0.0376
  157SAPE   C2117466   0.856   2.878   6.610 -1.0197 -0.3135 -0.0123
  157SAPE   O2217467   0.903   2.782   6.676  0.1529 -0.4176  0.3294
  157SAPE   C2217468   0.717   2.928   6.620  0.2955 -0.2920 -0.5058
  157SAPE   H2R17469   0.714   3.030   6.576 -0.3724  0.2021  0.6211
  157SAPE   H2S17470   0.645   2.862   6.567 -0.8937 -1.4800  2.3810
  157SAPE    C317471   1.151   3.009   6.435  0.1128  0.0126 -0.4141
  157SAPE    HX17472   1.112   3.026   6.332  2.3928  2.3576 -0.9987
  157SAPE    HY17473   1.244   2.950   6.419  0.2970 -0.3291  1.6502
  157SAPE   O3117474   1.184   3.131   6.511  0.2211 -0.2339  0.6162
  157SAPE   C3117475   1.109   3.237   6.479  1.0046 -0.0154  0.0403
  157SAPE   O3217476   1.007   3.228   6.411  0.6713  0.0807  0.2662
  157SAPE   C3217477   1.173   3.367   6.521 -0.0678 -0.1926  0.3562
  157SAPE   H2X17478   1.149   3.440   6.442 -0.9858  0.4774  1.2335
  157SAPE   H2Y17479   1.283   3.362   6.531  0.0185 -0.9275 -0.7723
  157SAPE   C2317480   0.660   2.931   6.762 -0.9223  1.2148  0.3151
  157SAPE   H3R17481   0.682   2.841   6.822 -0.4430 -0.0562 -1.6789
  157SAPE   H3S17482   0.553   2.961   6.760 -0.9021  1.2686 -1.0193
  157SAPE   C2417483   0.710   3.050   6.844 -0.1569 -0.8716  0.5080
  157SAPE   H4R17484   0.646   3.056   6.935  1.6106  0.2825  1.7301
  157SAPE   H4S17485   0.688   3.147   6.793  0.6814  0.0677  1.8695
  157SAPE   C2517486   0.854   3.040   6.876 -0.0736 -0.1305 -0.0785
  157SAPE   H5R17487   0.923   3.071   6.797  1.1857  1.1072  1.4309
  157SAPE   C2617488   0.897   3.015   6.999 -0.3825 -0.0502 -0.1183
  157SAPE   H6R17489   1.006   3.006   7.016 -0.3513  2.1700  1.3616
  157SAPE   C2717490   0.816   2.991   7.123 -0.3794  0.5302  0.9124
  157SAPE   H7R17491   0.875   2.926   7.190  0.5325 -0.4651 -0.7841
  157SAPE   H7S17492   0.719   2.943   7.094 -0.0457  0.6786 -0.5499
  157SAPE   C2817493   0.793   3.119   7.186 -0.2800 -0.4241  0.2955
  157SAPE   H8R17494   0.777   3.200   7.113  0.7325 -0.6147 -0.1594
  157SAPE   C2917495   0.799   3.149   7.315  0.6304  0.6787 -0.3138
  157SAPE   H9R17496   0.793   3.252   7.351  1.2065  0.7304 -0.3504
  157SAPE  C21017497   0.815   3.062   7.436  0.3446  0.2014  0.3133
  157SAPE  H10R17498   0.763   2.966   7.415  0.6362  0.5064 -2.0941
  157SAPE  H10S17499   0.764   3.106   7.525  0.5705  1.7263 -0.2847
  157SAPE  C21117500   0.955   3.023   7.474  0.3870  0.6634 -0.4962
  157SAPE  H11R17501   1.018   3.010   7.385  0.1320  0.1583 -0.6057
  157SAPE  C21217502   1.006   3.014   7.602  0.6794 -0.1103  0.4107
  157SAPE  H12R17503   1.111   2.989   7.625  0.8849 -0.1450 -0.4979
  157SAPE  C21317504   0.916   3.022   7.726  0.5480  0.0555 -0.0393
  157SAPE  H13R17505   0.814   3.059   7.702  0.3181 -1.5594 -1.8627
  157SAPE  H13S17506   0.971   3.093   7.791  0.4942  0.1122 -0.0560
  157SAPE  C21417507   0.899   2.880   7.790  0.2413 -0.0204  0.7171
  157SAPE  H14R17508   0.963   2.796   7.758  0.2671  1.0133 -2.2193
  157SAPE  C21517509   0.806   2.855   7.880 -0.0140  0.1532  0.0440
  157SAPE  H15R17510   0.798   2.751   7.916  1.5216  0.7787  2.4880
  157SAPE  C21617511   0.710   2.958   7.939  0.4461 -0.0975 -0.9829
  157SAPE  H16R17512   0.624   2.905   7.985  0.6017  0.8008  0.3868
  157SAPE  H16S17513   0.667   3.037   7.874  0.4404  0.2208 -0.5959
  157SAPE  C21717514   0.789   3.037   8.047  0.3902 -0.2490 -0.0322
  157SAPE  H17R17515   0.722   3.114   8.091  0.8160 -0.0303  0.2466
  157SAPE  H17S17516   0.876   3.087   8.000 -1.5112  0.4303 -3.1194
  157SAPE  C21817517   0.844   2.952   8.166 -0.3473  0.1526  0.7233
  157SAPE  H18R17518   0.891   3.030   8.230 -0.2291  2.0373 -1.5414
  157SAPE  H18S17519   0.919   2.877   8.133  1.7477  2.6674 -0.6013
  157SAPE  C21917520   0.737   2.876   8.249  0.6316 -0.1542 -0.2590
  157SAPE  H19R17521   0.708   2.788   8.186  0.2702  0.1758 -0.5593
  157SAPE  H19S17522   0.645   2.936   8.261  0.9651  0.7111 -1.7968
  157SAPE  C22017523   0.794   2.850   8.389  0.1177  0.3788 -0.9307
  157SAPE  H20R17524   0.733   2.785   8.456  0.4857  1.9456  1.0194
  157SAPE  H20S17525   0.784   2.943   8.450  1.0318  1.7389 -2.7726
  157SAPE  H20T17526   0.902   2.827   8.384  0.4439  1.8940 -1.0596
  157SAPE   C3317527   1.119   3.419   6.659 -0.1028 -0.5278 -0.6148
  157SAPE   H3X17528   1.008   3.421   6.661 -0.0759  0.9592  0.5280
  157SAPE   H3Y17529   1.148   3.525   6.670 -0.3161 -0.5272 -0.0729
  157SAPE   C3417530   1.172   3.337   6.778  0.1173 -0.0988 -0.0887
  157SAPE   H4X17531   1.282   3.325   6.760  0.4073  1.2325  0.6905
  157SAPE   H4Y17532   1.121   3.238   6.777 -1.0969  0.5107 -0.1073
  157SAPE   C3517533   1.162   3.409   6.916  0.3860  1.2341 -0.1408
  157SAPE   H5X17534   1.151   3.519   6.909 -0.5679  1.1692  0.1814
  157SAPE   H5Y17535   1.255   3.388   6.974 -0.8578  0.6703  1.7280
  157SAPE   C3617536   1.047   3.343   6.998 -0.9695  0.3785  0.0487
  157SAPE   H6X17537   1.075   3.248   7.047 -1.3325  0.1685 -0.1427
  157SAPE   H6Y17538   0.978   3.318   6.914  3.4203  1.2691 -4.3467
  157SAPE   C3717539   0.995   3.436   7.107  0.1744  0.2391 -0.0976
  157SAPE   H7X17540   0.890   3.409   7.132  0.0311  0.8524 -0.0328
  157SAPE   H7Y17541   1.003   3.533   7.054 -2.2641  0.5905  0.0589
  157SAPE   C3817542   1.076   3.414   7.236  0.6617 -0.0570 -0.2277
  157SAPE   H8X17543   1.185   3.436   7.227  1.4869 -1.0349  4.6211
  157SAPE   H8Y17544   1.079   3.307   7.266  1.2978 -0.3343 -1.1930
  157SAPE   C3917545   1.015   3.498   7.353 -0.2935 -0.2405  0.8394
  157SAPE   H9X17546   0.909   3.465   7.358 -0.1305 -1.1808 -0.9724
  157SAPE   H9Y17547   1.018   3.604   7.319  0.7337 -0.9411 -1.4379
  157SAPE  C31017548   1.085   3.475   7.481 -0.2455 -0.4119  0.9489
  157SAPE  H10X17549   1.185   3.524   7.483 -1.1908  1.8162 -1.4518
  157SAPE  H10Y17550   1.102   3.365   7.477  1.6933 -0.1577  1.2505
  157SAPE  C31117551   1.007   3.515   7.603  0.3614  0.6049  0.0670
  157SAPE  H11X17552   0.904   3.474   7.607 -0.1856  1.8276 -0.7267
  157SAPE  H11Y17553   0.986   3.623   7.622 -2.0560  0.3744 -1.0288
  157SAPE  C31217554   1.071   3.465   7.729 -0.3055  0.4985  0.4006
  157SAPE  H12X17555   1.175   3.504   7.726 -0.0759 -0.1346 -0.2066
  157SAPE  H12Y17556   1.076   3.354   7.727  0.9110  0.5472  0.2919
  157SAPE  C31317557   0.999   3.506   7.862  0.2280 -0.0639  0.6946
  157SAPE  H13X17558   0.888   3.503   7.858  0.2709 -1.4008 -2.0032
  157SAPE  H13Y17559   1.031   3.612   7.873  2.1357 -0.6026  0.7634
  157SAPE  C31417560   1.056   3.420   7.974  0.7060  0.2112 -0.0863
  157SAPE  H14X17561   1.163   3.444   7.993  1.3220 -2.2255 -0.2072
  157SAPE  H14Y17562   1.050   3.314   7.942  1.7598 -0.6944  2.4122
  157SAPE  C31517563   0.987   3.444   8.114 -0.0138 -0.2149  0.7272
  157SAPE  H15X17564   1.009   3.357   8.179 -1.8601 -2.1590 -1.0785
  157SAPE  H15Y17565   0.877   3.436   8.099  0.1992 -0.7532 -0.7955
  157SAPE  C31617566   1.024   3.575   8.189  0.2717 -0.4276  0.3982
  157SAPE  H16X17567   0.953   3.576   8.275  0.8300  1.6553  0.8812
  157SAPE  H16Y17568   1.012   3.658   8.117 -1.3807  0.4923  1.6596
  157SAPE  C31717569   1.170   3.572   8.248  0.6393  1.4497  0.4520
  157SAPE  H17X17570   1.238   3.608   8.168  0.5179  1.0846  0.1834
  157SAPE  H17Y17571   1.206   3.472   8.279 -1.4029  1.0838  1.8321
  157SAPE  C31817572   1.185   3.674   8.361  0.5192 -0.5120  0.1443
  157SAPE  H18X17573   1.162   3.779   8.333 -0.0147 -0.5351  0.4824
  157SAPE  H18Y17574   1.284   3.660   8.409  0.3993 -0.1186  0.5133
  157SAPE  H18Z17575   1.103   3.665   8.435  0.9077  1.0726  0.8143
  158SAPE     N17576   2.777   1.910   6.464 -0.3487  0.7999 -0.0069
  158SAPE   HN117577   2.880   1.916   6.471  0.0871 -4.0448  1.2769
  158SAPE   HN217578   2.738   2.001   6.497  0.6523  1.0014  0.6637
  158SAPE   HN317579   2.745   1.835   6.529  1.4678  1.0293  1.2269
  158SAPE   C1217580   2.760   1.875   6.318 -0.2413  0.7114 -0.1400
  158SAPE  H12A17581   2.818   1.782   6.300 -0.1518  0.5380  1.0014
  158SAPE  H12B17582   2.796   1.961   6.257  1.5765  0.3660  0.3918
  158SAPE   C1117583   2.612   1.852   6.294 -0.3557  0.7274 -0.2513
  158SAPE  H11A17584   2.576   1.753   6.329 -0.9271  0.7452 -0.7693
  158SAPE  H11B17585   2.605   1.845   6.183 -0.9595 -0.7404 -0.1427
  158SAPE     P17586   2.379   1.948   6.329 -0.3975  0.1952 -0.0323
  158SAPE   O1317587   2.316   2.075   6.373  0.6439  0.1186  0.0072
  158SAPE   O1417588   2.340   1.903   6.193  0.1138  0.4289 -0.3113
  158SAPE   O1217589   2.532   1.959   6.348 -0.4341  0.3583  0.6467
  158SAPE   O1117590   2.334   1.833   6.430 -0.0380  0.2924 -0.4476
  158SAPE    C117591   2.337   1.861   6.566 -0.2778  0.4543  0.1457
  158SAPE    HA17592   2.326   1.967   6.597 -2.8429  0.7893 -1.6477
  158SAPE    HB17593   2.250   1.811   6.614 -0.5907  0.5124 -0.3597
  158SAPE    C217594   2.468   1.799   6.636  0.1446 -0.2896  0.5797
  158SAPE    HS17595   2.551   1.864   6.602 -1.4197  1.8472  0.6797
  158SAPE   O2117596   2.469   1.657   6.597 -0.0356 -0.5337 -0.2166
  158SAPE   C2117597   2.588   1.603   6.590  0.0186 -0.0488 -0.1591
  158SAPE   O2217598   2.692   1.664   6.609 -0.1048  0.3098 -0.4538
  158SAPE   C2217599   2.558   1.455   6.556 -0.9378 -0.4867 -1.3679
  158SAPE   H2R17600   2.454   1.417   6.545 -1.5041  0.4809  0.2491
  158SAPE   H2S17601   2.603   1.454   6.454 -1.0611  3.7176 -1.6456
  158SAPE    C317602   2.465   1.808   6.796  0.1981  1.4728 -0.3947
  158SAPE    HX17603   2.545   1.748   6.845 -0.3764  0.7475 -0.3269
  158SAPE    HY17604   2.371   1.757   6.826 -0.2691  2.9812  0.8015
  158SAPE   O3117605   2.456   1.941   6.842 -0.0207  0.0074 -0.4347
  158SAPE   C3117606   2.428   1.952   6.969 -0.0452  0.7330 -0.6360
  158SAPE   O3217607   2.434   1.860   7.050 -0.0976  0.2863 -0.0897
  158SAPE   C3217608   2.397   2.095   6.996 -0.4216 -0.1291  0.4436
  158SAPE   H2X17609   2.316   2.140   6.936  0.4961  1.6358  0.4593
  158SAPE   H2Y17610   2.484   2.150   6.953 -0.0669  0.1767  1.5334
  158SAPE   C2317611   2.633   1.356   6.653 -0.2991 -0.6428 -0.7813
  158SAPE   H3R17612   2.739   1.388   6.669 -0.4669 -0.2719 -0.3935
  158SAPE   H3S17613   2.636   1.261   6.596  0.8685 -2.0058  1.4118
  158SAPE   C2417614   2.563   1.328   6.786  1.1353 -0.0383 -0.3084
  158SAPE   H4R17615   2.614   1.238   6.828  0.1677 -0.1140  0.7497
  158SAPE   H4S17616   2.457   1.298   6.773  0.7659  0.0530  2.0294
  158SAPE   C2517617   2.565   1.449   6.886 -0.9345 -0.3234  0.4508
  158SAPE   H5R17618   2.666   1.491   6.893 -0.6630 -0.2836 -2.4163
  158SAPE   C2617619   2.462   1.497   6.961  0.7743 -0.8871  1.8334
  158SAPE   H6R17620   2.489   1.583   7.025  2.9807 -0.0698 -0.0945
  158SAPE   C2717621   2.319   1.445   6.966 -0.7563  0.7599  0.2010
  158SAPE   H7R17622   2.310   1.372   7.049 -0.3803  1.1373  0.5818
  158SAPE   H7S17623   2.300   1.388   6.872  3.1156  1.8416 -1.4352
  158SAPE   C2817624   2.208   1.548   6.982 -0.3591 -0.5115 -0.3968
  158SAPE   H8R17625   2.190   1.613   6.895 -2.5753  0.2815  0.5788
  158SAPE   C2917626   2.108   1.552   7.070 -0.2007 -0.3194  0.4606
  158SAPE   H9R17627   2.030   1.628   7.053 -0.3627 -0.2727  1.3421
  158SAPE  C21017628   2.087   1.450   7.182 -0.3392  0.0185 -0.1967
  158SAPE  H10R17629   2.186   1.406   7.209  0.0185 -0.2790 -1.8543
  158SAPE  H10S17630   2.026   1.365   7.146 -1.2840  0.2036  0.9180
  158SAPE  C21117631   2.025   1.512   7.302  0.5447 -0.2018  0.1818
  158SAPE  H11R17632   1.917   1.496   7.308  0.5795 -0.8158 -0.6955
  158SAPE  C21217633   2.090   1.575   7.398 -0.2683 -0.3641 -0.4767
  158SAPE  H12R17634   2.040   1.612   7.489 -1.5423  0.1169 -1.3282
  158SAPE  C21317635   2.242   1.603   7.393 -0.0190  0.1038 -0.7838
  158SAPE  H13R17636   2.298   1.535   7.325 -0.6120 -1.6757  0.4453
  158SAPE  H13S17637   2.296   1.575   7.486 -0.2312  0.6739 -0.4847
  158SAPE  C21417638   2.278   1.736   7.331  0.1415  0.0479 -1.2527
  158SAPE  H14R17639   2.234   1.753   7.231  1.7231  1.7589 -1.7131
  158SAPE  C21517640   2.378   1.817   7.367  0.1038 -0.4069  0.0780
  158SAPE  H15R17641   2.398   1.915   7.321  0.8860  0.3692  1.9367
  158SAPE  C21617642   2.467   1.799   7.480 -0.8384  0.6027 -0.6766
  158SAPE  H16R17643   2.563   1.853   7.464 -0.1685  0.1356  1.3616
  158SAPE  H16S17644   2.496   1.695   7.508 -0.1569  0.9547 -0.0347
  158SAPE  C21717645   2.390   1.850   7.606  0.0005  0.9378 -0.4161
  158SAPE  H17R17646   2.283   1.823   7.602  0.0703  0.7360 -1.1140
  158SAPE  H17S17647   2.405   1.960   7.613  0.8619  0.8310 -0.4924
  158SAPE  C21817648   2.447   1.791   7.731 -0.4422  0.5655  0.4298
  158SAPE  H18R17649   2.558   1.790   7.744 -0.7499 -0.9591  3.8775
  158SAPE  H18S17650   2.420   1.685   7.747  3.2777 -0.5779  0.0558
  158SAPE  C21917651   2.402   1.863   7.867 -0.4477 -0.7280  0.6417
  158SAPE  H19R17652   2.295   1.838   7.853 -0.3642 -1.0251  0.5479
  158SAPE  H19S17653   2.423   1.972   7.859 -2.2864 -0.5084 -3.5809
  158SAPE  C22017654   2.456   1.802   7.999 -0.1371  0.0551  0.1720
  158SAPE  H20R17655   2.429   1.694   7.999  0.2410 -0.0466 -0.5785
  158SAPE  H20S17656   2.417   1.861   8.085  1.8213 -0.8104  1.7277
  158SAPE  H20T17657   2.567   1.803   7.996 -0.1329 -0.2692  0.1726
  158SAPE   C3317658   2.386   2.127   7.144 -0.1909  0.9320  0.7396
  158SAPE   H3X17659   2.485   2.107   7.188  0.2603  1.7301  0.1164
  158SAPE   H3Y17660   2.308   2.061   7.188 -0.2515  0.9141  0.6066
  158SAPE   C3417661   2.336   2.279   7.147 -0.3796  0.3900 -0.1423
  158SAPE   H4X17662   2.254   2.297   7.074 -0.0864 -0.5745 -0.7371
  158SAPE   H4Y17663   2.422   2.344   7.119  0.8199 -1.2677 -0.5198
  158SAPE   C3517664   2.275   2.326   7.280 -0.6642 -0.8142 -0.2095
  158SAPE   H5X17665   2.354   2.305   7.355  0.6914  0.5742 -1.1849
  158SAPE   H5Y17666   2.184   2.266   7.299 -0.8138 -0.5524 -0.1004
  158SAPE   C3617667   2.241   2.472   7.272  0.5402 -0.0612 -0.4110
  158SAPE   H6X17668   2.165   2.489   7.193 -1.1822  0.8326  1.3877
  158SAPE   H6Y17669   2.326   2.534   7.234 -0.0242  1.2867  0.4762
  158SAPE   C3717670   2.193   2.524   7.410 -0.3149  0.5425  0.2183
  158SAPE   H7X17671   2.177   2.634   7.402 -1.4283  0.6148  2.5926
  158SAPE   H7Y17672   2.092   2.484   7.432 -0.9401  2.5403  1.2599
  158SAPE   C3817673   2.292   2.498   7.525  0.1484 -0.5431 -0.5844
  158SAPE   H8X17674   2.395   2.526   7.495  0.4921 -0.3827  0.6576
  158SAPE   H8Y17675   2.295   2.387   7.538 -1.2908 -0.7719 -1.9593
  158SAPE   C3917676   2.225   2.547   7.655 -0.2588  0.3009 -0.0385
  158SAPE   H9X17677   2.134   2.485   7.668  1.2608 -1.9874  0.1947
  158SAPE   H9Y17678   2.189   2.652   7.651 -1.3812 -0.0280  0.9713
  158SAPE  C31017679   2.303   2.531   7.777  0.0999  0.5450 -0.3120
  158SAPE  H10X17680   2.393   2.595   7.774  1.5700 -1.4679 -2.5913
  158SAPE  H10Y17681   2.339   2.427   7.777 -0.1771  0.4350  1.0268
  158SAPE  C31117682   2.213   2.543   7.905 -0.2348  0.4503 -0.0896
  158SAPE  H11X17683   2.131   2.470   7.883  2.8354 -3.1101 -0.6732
  158SAPE  H11Y17684   2.173   2.646   7.915 -1.5711 -0.1948  1.6983
  158SAPE  C31217685   2.279   2.500   8.036 -0.6271  0.3544 -0.5165
  158SAPE  H12X17686   2.364   2.571   8.044 -1.0418  0.8238 -0.1885
  158SAPE  H12Y17687   2.318   2.398   8.018  1.5052  0.8245  1.1100
  158SAPE  C31317688   2.195   2.503   8.163  0.6948  0.8359  1.0998
  158SAPE  H13X17689   2.112   2.430   8.149  1.7211 -0.1469  0.0030
  158SAPE  H13Y17690   2.155   2.601   8.198 -2.5174 -0.9024  2.8888
  158SAPE  C31417691   2.283   2.458   8.280 -0.0909 -0.0326 -0.6679
  158SAPE  H14X17692   2.370   2.528   8.281  0.2910 -0.4697 -1.6220
  158SAPE  H14Y17693   2.310   2.353   8.256  3.5172  0.2389  1.5510
  158SAPE  C31517694   2.200   2.450   8.411 -0.3012  0.5744 -0.0449
  158SAPE  H15X17695   2.109   2.390   8.390  0.3960 -1.4870  2.2795
  158SAPE  H15Y17696   2.166   2.551   8.440 -2.1511 -0.1084  0.2947
  158SAPE  C31617697   2.271   2.387   8.532  0.2454  0.0094  0.3119
  158SAPE  H16X17698   2.362   2.445   8.556 -0.3303  0.9049  0.3738
  158SAPE  H16Y17699   2.291   2.279   8.515 -4.0764 -1.0262  0.6928
  158SAPE  C31717700   2.186   2.395   8.658  0.4486  0.4880 -0.1659
  158SAPE  H17X17701   2.107   2.472   8.654  0.8914  0.9838  0.4831
  158SAPE  H17Y17702   2.243   2.410   8.752  0.0112  1.3724 -0.0376
  158SAPE  C31817703   2.106   2.259   8.672  0.1866  0.4527 -0.2081
  158SAPE  H18X17704   2.032   2.247   8.590  1.8523 -1.7940 -1.5172
  158SAPE  H18Y17705   2.059   2.247   8.772  0.2320 -0.7095 -0.3142
  158SAPE  H18Z17706   2.174   2.171   8.664  0.5042  0.5240  1.3108
  159SAPE     N17707   1.679   4.237   5.943 -0.0993  0.5248  0.3539
  159SAPE   HN117708   1.782   4.221   5.939  0.2431  2.6102  0.0517
  159SAPE   HN217709   1.628   4.166   5.887 -2.0301  1.1668  1.2291
  159SAPE   HN317710   1.673   4.320   5.881  2.7730 -1.3470 -2.8705
  159SAPE   C1217711   1.626   4.223   6.080  0.5532 -0.3275 -0.3415
  159SAPE  H12A17712   1.695   4.273   6.151  0.0936  0.8160 -0.6766
  159SAPE  H12B17713   1.628   4.115   6.109  1.0247 -0.8263 -2.1360
  159SAPE   C1117714   1.481   4.282   6.092  0.3185 -0.8403  0.1492
  159SAPE  H11A17715   1.428   4.276   6.190 -0.5111  0.3664 -0.1988
  159SAPE  H11B17716   1.414   4.236   6.016 -0.2917 -0.7995  0.6549
  159SAPE     P17717   1.545   4.541   6.142  0.2736  0.0560  0.2434
  159SAPE   O1317718   1.687   4.524   6.176 -1.0108  0.4337 -0.6518
  159SAPE   O1417719   1.510   4.672   6.080 -0.3670 -0.1512 -0.1808
  159SAPE   O1217720   1.498   4.419   6.054 -0.0341  0.6200  0.8338
  159SAPE   O1117721   1.456   4.521   6.274 -0.4124 -0.0496  0.4764
  159SAPE    C117722   1.311   4.525   6.268 -0.4381 -0.5343  0.0402
  159SAPE    HA17723   1.270   4.609   6.209  1.5810 -0.9821 -2.1336
  159SAPE    HB17724   1.274   4.431   6.222  0.8232 -1.1303  0.1811
  159SAPE    C217725   1.262   4.552   6.415  0.2843  0.1141  0.3192
  159SAPE    HS17726   1.154   4.580   6.413 -0.3798 -2.0960  1.7280
  159SAPE   O2117727   1.339   4.647   6.500  0.4749 -0.0218 -0.5603
  159SAPE   C2117728   1.330   4.766   6.459 -0.5664  0.6475  0.6088
  159SAPE   O2217729   1.260   4.807   6.365  0.0871  0.6649  0.0795
  159SAPE   C2217730   1.417   4.854   6.550  0.0618 -0.3539  0.3793
  159SAPE   H2R17731   1.522   4.861   6.514 -0.1031  2.2606  0.2633
  159SAPE   H2S17732   1.372   4.955   6.544 -0.6139 -0.6893 -0.2782
  159SAPE    C317733   1.259   4.417   6.478  0.0615 -0.3149  0.4093
  159SAPE    HX17734   1.356   4.365   6.464  0.9614  0.3974  3.3025
  159SAPE    HY17735   1.194   4.342   6.428  1.2707  0.8201 -3.1907
  159SAPE   O3117736   1.221   4.440   6.614  0.5055  0.7167  0.0361
  159SAPE   C3117737   1.320   4.438   6.707  0.1924 -0.3863 -0.2517
  159SAPE   O3217738   1.436   4.415   6.675  0.4298  0.1933  0.2536
  159SAPE   C3217739   1.270   4.492   6.839 -0.1538  0.2510  0.0886
  159SAPE   H2X17740   1.181   4.430   6.864 -1.6909  2.6567  0.8456
  159SAPE   H2Y17741   1.221   4.591   6.839 -1.6721 -0.0949  6.3982
  159SAPE   C2317742   1.441   4.800   6.694 -0.7791 -0.2671  0.6049
  159SAPE   H3R17743   1.486   4.700   6.675 -1.4467 -0.3453 -0.6375
  159SAPE   H3S17744   1.349   4.783   6.753 -0.5732 -0.9859  0.7341
  159SAPE   C2417745   1.526   4.896   6.779 -0.0707 -0.1391 -0.1710
  159SAPE   H4R17746   1.623   4.904   6.725  1.8287  0.7874  3.0477
  159SAPE   H4S17747   1.540   4.846   6.877  1.4491 -0.2151 -0.3996
  159SAPE   C2517748   1.464   5.037   6.784 -0.0491  0.6720 -0.3997
  159SAPE   H5R17749   1.465   5.084   6.685 -3.3033 -1.9438 -1.8525
  159SAPE   C2617750   1.414   5.101   6.888  0.0310 -0.2714  0.6801
  159SAPE   H6R17751   1.360   5.193   6.860  2.9526  1.7420  1.1878
  159SAPE   C2717752   1.400   5.044   7.030 -0.1758 -0.0222 -0.3744
  159SAPE   H7R17753   1.460   4.951   7.034 -1.5812 -0.8962  0.9566
  159SAPE   H7S17754   1.294   5.012   7.034  0.4281 -2.1820 -0.5055
  159SAPE   C2817755   1.432   5.138   7.142 -0.3146  0.7746  1.3209
  159SAPE   H8R17756   1.453   5.231   7.086 -0.2401  0.1859  0.3542
  159SAPE   C2917757   1.432   5.127   7.273 -0.8253  1.0008  0.3378
  159SAPE   H9R17758   1.446   5.216   7.336  1.0272  1.3832 -0.5364
  159SAPE  C21017759   1.398   5.002   7.349  0.1913 -0.2454 -0.4604
  159SAPE  H10R17760   1.374   4.916   7.284 -1.6031 -0.4182  0.3749
  159SAPE  H10S17761   1.311   5.026   7.414  1.0913  0.0632  0.6831
  159SAPE  C21117762   1.520   4.973   7.444  0.0883  0.4969  0.6865
  159SAPE  H11R17763   1.605   4.925   7.393  0.5959  1.9407  0.1348
  159SAPE  C21217764   1.520   4.977   7.576  0.6157 -0.2016 -0.1567
  159SAPE  H12R17765   1.613   4.958   7.633  0.1795  1.2067  1.0990
  159SAPE  C21317766   1.404   5.022   7.654  0.5298 -1.1603 -0.0020
  159SAPE  H13R17767   1.354   4.938   7.707 -0.3647  0.2905  1.5865
  159SAPE  H13S17768   1.318   5.067   7.600  2.0806  1.3711 -0.5523
  159SAPE  C21417769   1.445   5.129   7.755 -0.0395  0.4383 -0.5185
  159SAPE  H14R17770   1.444   5.230   7.712 -0.1054  0.1124 -1.2936
  159SAPE  C21517771   1.477   5.121   7.883 -0.3070  0.0437 -0.1834
  159SAPE  H15R17772   1.487   5.209   7.948 -2.3662  0.4466 -0.3551
  159SAPE  C21617773   1.471   4.986   7.956 -0.1456 -0.5361 -0.0642
  159SAPE  H16R17774   1.575   4.946   7.962  0.6846  1.6722  3.1152
  159SAPE  H16S17775   1.407   4.914   7.901 -0.7663  0.3315 -0.5105
  159SAPE  C21717776   1.428   4.998   8.101 -0.2345  0.5183 -0.2779
  159SAPE  H17R17777   1.329   5.045   8.117 -1.0790 -1.0541 -0.6425
  159SAPE  H17S17778   1.498   5.057   8.164 -0.8412 -0.8517  1.8082
  159SAPE  C21817779   1.423   4.857   8.156  0.0882  0.4258  0.5244
  159SAPE  H18R17780   1.511   4.794   8.131 -0.5688 -0.2306 -0.2077
  159SAPE  H18S17781   1.335   4.804   8.112  0.0546  0.7315  0.2235
  159SAPE  C21917782   1.409   4.850   8.314 -0.5296  0.1014 -0.2014
  159SAPE  H19R17783   1.491   4.908   8.362  0.0122  0.6144 -1.6861
  159SAPE  H19S17784   1.426   4.744   8.339  0.3296  0.0750 -0.8383
  159SAPE  C22017785   1.274   4.902   8.366  0.4319  0.6403 -0.4547
  159SAPE  H20R17786   1.259   5.012   8.363  1.2252  0.7658 -0.2077
  159SAPE  H20S17787   1.278   4.869   8.472 -3.0340 -0.9349 -0.7004
  159SAPE  H20T17788   1.193   4.845   8.317  0.7586  0.4549 -0.7866
  159SAPE   C3317789   1.380   4.500   6.950 -0.4900 -0.0225 -0.8212
  159SAPE   H3X17790   1.452   4.581   6.925  1.0792 -1.3044 -0.5875
  159SAPE   H3Y17791   1.436   4.405   6.961 -0.0009  0.4842  1.9409
  159SAPE   C3417792   1.325   4.521   7.089  0.3473  1.0670 -0.2123
  159SAPE   H4X17793   1.255   4.444   7.128  1.2492  0.6122  0.5590
  159SAPE   H4Y17794   1.255   4.604   7.067 -0.8441  0.3161  0.6373
  159SAPE   C3517795   1.439   4.545   7.197  0.4981  0.9472  0.2499
  159SAPE   H5X17796   1.509   4.622   7.158  1.8638 -0.4520 -0.1679
  159SAPE   H5Y17797   1.504   4.455   7.197 -0.4936 -0.0601 -4.6389
  159SAPE   C3617798   1.378   4.586   7.335  0.5362  0.5630 -0.5585
  159SAPE   H6X17799   1.299   4.513   7.363  0.5055  0.5597 -0.6559
  159SAPE   H6Y17800   1.348   4.693   7.334 -1.9538 -0.0734 -1.9422
  159SAPE   C3717801   1.486   4.564   7.442  0.1139 -0.0546 -0.1315
  159SAPE   H7X17802   1.582   4.610   7.412  0.6508 -0.0614  1.4844
  159SAPE   H7Y17803   1.505   4.454   7.449 -1.9445 -0.3698  1.9534
  159SAPE   C3817804   1.433   4.602   7.577 -0.2772 -0.0576  0.9524
  159SAPE   H8X17805   1.342   4.539   7.586 -1.8130  1.7346 -0.9458
  159SAPE   H8Y17806   1.399   4.708   7.584 -0.8108 -0.1683  0.1937
  159SAPE   C3917807   1.530   4.571   7.690  0.0465 -0.1832  0.3804
  159SAPE   H9X17808   1.627   4.621   7.674  0.1236  0.4226  2.4422
  159SAPE   H9Y17809   1.545   4.461   7.685 -0.4179 -0.1898 -1.3726
  159SAPE  C31017810   1.464   4.608   7.825  0.3309 -0.4308  0.0441
  159SAPE  H10X17811   1.355   4.586   7.818  0.3344 -0.1367 -1.5143
  159SAPE  H10Y17812   1.471   4.717   7.840  3.6850 -0.8684  2.6827
  159SAPE  C31117813   1.528   4.542   7.952 -0.0037  0.7376 -0.5650
  159SAPE  H11X17814   1.540   4.622   8.028 -0.7928  1.8776 -1.6313
  159SAPE  H11Y17815   1.627   4.504   7.917 -0.5363  2.4773 -4.4315
  159SAPE  C31217816   1.445   4.419   7.997  0.7113  0.1302  0.2646
  159SAPE  H12X17817   1.418   4.361   7.907 -3.3627  0.2751  1.1934
  159SAPE  H12Y17818   1.355   4.467   8.042 -0.3512 -0.5808 -1.0444
  159SAPE  C31317819   1.504   4.328   8.106 -0.4335 -0.1345 -0.6298
  159SAPE  H13X17820   1.433   4.243   8.115  0.6609 -0.9249  1.1875
  159SAPE  H13Y17821   1.488   4.380   8.203  0.0696  0.9631 -1.1220
  159SAPE  C31417822   1.641   4.275   8.083  0.1076  0.2123 -0.6647
  159SAPE  H14X17823   1.719   4.354   8.071  2.0326 -1.3634  0.9177
  159SAPE  H14Y17824   1.640   4.237   7.979  0.2782  2.8290 -1.7089
  159SAPE  C31517825   1.690   4.179   8.190  0.5899 -0.2444 -0.0641
  159SAPE  H15X17826   1.627   4.089   8.183  0.1384  0.1862 -2.4436
  159SAPE  H15Y17827   1.682   4.231   8.288  3.7491  1.1224 -0.3738
  159SAPE  C31617828   1.842   4.144   8.187  0.7664 -0.1848 -0.1891
  159SAPE  H16X17829   1.891   4.244   8.195 -1.1255  0.7148  0.7694
  159SAPE  H16Y17830   1.867   4.096   8.090  0.6948 -2.2233  0.7579
  159SAPE  C31717831   1.896   4.062   8.302  0.2088 -0.3978 -0.1867
  159SAPE  H17X17832   1.840   4.109   8.386 -0.0175  1.9486 -1.5470
  159SAPE  H17Y17833   2.005   4.074   8.317  0.0725 -2.2545  3.1590
  159SAPE  C31817834   1.864   3.912   8.290  0.1071  0.5927  0.1232
  159SAPE  H18X17835   1.762   3.894   8.249 -1.0584  0.2890  2.9187
  159SAPE  H18Y17836   1.866   3.864   8.390  0.1991 -0.5968 -0.4374
  159SAPE  H18Z17837   1.943   3.866   8.227  0.9558  0.9333  0.9217
  160SAPE     N17838   2.456   2.638   6.504 -0.3111 -0.2074 -0.8502
  160SAPE   HN117839   2.407   2.728   6.524 -3.6233 -1.4623 -2.4862
  160SAPE   HN217840   2.516   2.648   6.420  1.1929 -1.8772 -0.0568
  160SAPE   HN317841   2.369   2.583   6.490 -2.2120  2.0853  0.9582
  160SAPE   C1217842   2.542   2.575   6.607 -0.2752  0.3519 -0.2864
  160SAPE  H12A17843   2.574   2.474   6.572 -1.2442 -0.1576  0.2501
  160SAPE  H12B17844   2.484   2.569   6.702  2.0048  2.3082  1.3361
  160SAPE   C1117845   2.657   2.681   6.639 -0.4775 -0.3469  0.3363
  160SAPE  H11A17846   2.725   2.638   6.716  0.0016 -0.3188 -0.0613
  160SAPE  H11B17847   2.609   2.769   6.687  1.6274  0.5753  0.8768
  160SAPE     P17848   2.743   2.860   6.471  0.1580 -0.0987 -0.3172
  160SAPE   O1317849   2.847   2.858   6.365  0.0072  0.0954  0.0904
  160SAPE   O1417850   2.604   2.895   6.435 -0.3783 -0.3544  0.5139
  160SAPE   O1217851   2.739   2.709   6.524  0.3133 -0.2551 -1.0665
  160SAPE   O1117852   2.792   2.943   6.606  0.6151  0.1486  0.2829
  160SAPE    C117853   2.922   3.001   6.607  0.2490 -0.8904  0.8266
  160SAPE    HA17854   2.998   2.922   6.587  0.5480 -0.5861  0.7420
  160SAPE    HB17855   2.921   3.072   6.521 -5.2899 -0.5219  0.8472
  160SAPE    C217856   2.969   3.083   6.731  0.0960 -0.2775  0.3920
  160SAPE    HS17857   3.079   3.090   6.715  0.0541  1.0098  0.5622
  160SAPE   O2117858   2.930   3.015   6.853 -0.1217 -0.1420  0.2020
  160SAPE   C2117859   2.995   2.908   6.878  0.2610  0.6280 -0.4604
  160SAPE   O2217860   3.091   2.862   6.812 -0.7118 -0.0989  0.5011
  160SAPE   C2217861   2.951   2.848   7.010  0.3407  0.3568  0.3316
  160SAPE   H2R17862   2.943   2.737   6.999  3.8122  0.2163 -2.4859
  160SAPE   H2S17863   3.034   2.862   7.082  1.0862  0.5377 -0.5530
  160SAPE    C317864   2.909   3.227   6.732 -0.4538  0.2210  0.4686
  160SAPE    HX17865   2.811   3.222   6.681 -0.1970 -2.5011  0.1150
  160SAPE    HY17866   2.957   3.303   6.668 -1.7326 -0.8041 -1.8004
  160SAPE   O3117867   2.887   3.278   6.862  1.0231  0.0664 -0.4939
  160SAPE   C3117868   3.003   3.318   6.928  1.4636 -0.1515  0.3924
  160SAPE   O3217869   3.112   3.326   6.882 -0.2017 -0.5019  0.5735
  160SAPE   C3217870   2.966   3.329   7.075 -0.6831 -0.0980  0.1903
  160SAPE   H2X17871   2.900   3.243   7.101 -0.7251 -0.0271  0.3212
  160SAPE   H2Y17872   2.914   3.425   7.098 -2.1449 -0.7852 -0.1061
  160SAPE   C2317873   2.833   2.915   7.084  0.0444  0.1893 -0.1394
  160SAPE   H3R17874   2.846   3.025   7.090 -4.6780  1.1486 -2.4613
  160SAPE   H3S17875   2.843   2.872   7.186 -1.6950 -2.2195 -0.9091
  160SAPE   C2417876   2.687   2.878   7.043 -0.6080 -0.0257 -0.1958
  160SAPE   H4R17877   2.667   2.770   7.065  1.1191  0.0323  1.9667
  160SAPE   H4S17878   2.678   2.897   6.934  0.6536  0.1498 -0.2815
  160SAPE   C2517879   2.597   2.968   7.129 -0.0070  0.2310  0.1766
  160SAPE   H5R17880   2.586   3.072   7.097 -1.0624  0.5633  1.5000
  160SAPE   C2617881   2.539   2.928   7.249  0.0395 -0.5989  0.2630
  160SAPE   H6R17882   2.487   3.002   7.311  1.3329 -0.0930  0.7588
  160SAPE   C2717883   2.537   2.803   7.327  0.2602  0.4186  0.3846
  160SAPE   H7R17884   2.633   2.753   7.304 -0.1540 -0.1105 -0.2514
  160SAPE   H7S17885   2.461   2.733   7.285  2.1107 -1.2753 -0.2749
  160SAPE   C2817886   2.523   2.821   7.477  0.4518 -0.0221 -0.3312
  160SAPE   H8R17887   2.439   2.889   7.496 -1.3205 -1.8316 -1.2771
  160SAPE   C2917888   2.594   2.768   7.578 -0.3130  0.5597  0.0278
  160SAPE   H9R17889   2.567   2.788   7.683  2.6959  0.7020  0.8518
  160SAPE  C21017890   2.707   2.666   7.556 -0.2282  0.6275  0.0104
  160SAPE  H10R17891   2.800   2.718   7.586  0.1204 -0.0312  0.0866
  160SAPE  H10S17892   2.719   2.640   7.448  1.4815 -0.8024  0.5211
  160SAPE  C21117893   2.674   2.538   7.628 -0.1496  0.5436 -0.6780
  160SAPE  H11R17894   2.593   2.469   7.598 -3.1164  2.5082  2.2098
  160SAPE  C21217895   2.732   2.506   7.744 -0.9081 -0.1648  0.3091
  160SAPE  H12R17896   2.692   2.413   7.787 -2.1142 -0.1439 -0.7301
  160SAPE  C21317897   2.838   2.580   7.827 -0.4914 -0.1517  0.4170
  160SAPE  H13R17898   2.871   2.670   7.773 -0.7162  0.5344  1.3857
  160SAPE  H13S17899   2.926   2.514   7.842  0.7637  1.2825 -0.4294
  160SAPE  C21417900   2.771   2.643   7.950  0.3641  0.0651  0.5947
  160SAPE  H14R17901   2.707   2.729   7.923  1.1584  0.0614 -1.4918
  160SAPE  C21517902   2.786   2.598   8.077  0.9445  0.1244 -0.3546
  160SAPE  H15R17903   2.725   2.643   8.156  1.3253  3.4238 -1.7503
  160SAPE  C21617904   2.867   2.481   8.125 -0.5595 -0.2065 -0.0687
  160SAPE  H16R17905   2.940   2.525   8.196 -1.5205  1.9753 -0.3433
  160SAPE  H16S17906   2.921   2.434   8.040 -1.7090 -2.3996  0.3607
  160SAPE  C21717907   2.783   2.367   8.193  0.4035 -0.1950 -0.1872
  160SAPE  H17R17908   2.734   2.411   8.282  1.2136  2.4236 -0.9543
  160SAPE  H17S17909   2.850   2.284   8.224 -1.9239 -2.0429  0.1667
  160SAPE  C21817910   2.676   2.311   8.098 -0.1952  0.5580 -0.3016
  160SAPE  H18R17911   2.727   2.272   8.008 -2.1003  0.0977 -1.2363
  160SAPE  H18S17912   2.599   2.387   8.070 -3.3408 -2.3023 -0.0441
  160SAPE  C21917913   2.581   2.209   8.156  0.6932  0.3895  0.0805
  160SAPE  H19R17914   2.497   2.185   8.088  1.4227 -2.4674  0.0491
  160SAPE  H19S17915   2.527   2.249   8.244 -0.8955  0.8265 -1.0525
  160SAPE  C22017916   2.646   2.077   8.184  0.6874  0.6813  0.3867
  160SAPE  H20R17917   2.715   2.095   8.270 -0.2051  1.6890  0.9197
  160SAPE  H20S17918   2.709   2.028   8.107  1.7356  0.4264  1.3733
  160SAPE  H20T17919   2.571   2.006   8.224  3.1698 -2.0867  0.4807
  160SAPE   C3317920   3.099   3.314   7.154  0.1346  0.3296 -0.4059
  160SAPE   H3X17921   3.167   3.401   7.142 -0.2866  0.6988 -0.1566
  160SAPE   H3Y17922   3.141   3.220   7.113  0.6913  1.0236 -1.4733
  160SAPE   C3417923   3.084   3.305   7.308 -0.2282 -0.1438 -0.3226
  160SAPE   H4X17924   3.047   3.398   7.356  0.7755 -0.5459  1.3077
  160SAPE   H4Y17925   3.187   3.284   7.342 -0.0438  1.3000  0.0658
  160SAPE   C3517926   2.994   3.180   7.348  0.9265 -0.5007 -0.7717
  160SAPE   H5X17927   3.049   3.090   7.311  2.3924 -0.7717  1.7860
  160SAPE   H5Y17928   2.893   3.199   7.307  0.7578  0.7278  0.1719
  160SAPE   C3617929   2.971   3.152   7.492 -0.0376  0.2371  0.2675
  160SAPE   H6X17930   2.932   3.237   7.552 -2.7353 -0.6821 -0.0241
  160SAPE   H6Y17931   3.068   3.132   7.541 -0.2470  1.3421  1.1849
  160SAPE   C3717932   2.884   3.032   7.516  0.6030 -0.5122  0.1383
  160SAPE   H7X17933   2.919   2.937   7.470  1.2667  0.3373 -1.1888
  160SAPE   H7Y17934   2.780   3.054   7.485  0.3385 -0.2850  1.1677
  160SAPE   C3817935   2.868   3.004   7.670  0.6628 -0.4042 -0.0963
  160SAPE   H8X17936   2.791   2.930   7.701  1.4068 -0.5771  1.4301
  160SAPE   H8Y17937   2.854   3.098   7.727  0.2466  0.4027 -1.4593
  160SAPE   C3917938   2.991   2.955   7.734 -0.7955 -0.6525  0.2249
  160SAPE   H9X17939   3.073   3.028   7.715 -1.8964  0.9188  1.2084
  160SAPE   H9Y17940   3.035   2.858   7.705  1.1099 -0.6678  2.7970
  160SAPE  C31017941   2.986   2.960   7.893  0.2517  0.7269  0.0273
  160SAPE  H10X17942   2.899   2.901   7.930 -0.9552  1.0199 -2.1852
  160SAPE  H10Y17943   2.962   3.062   7.931  0.0161  1.1725 -1.2751
  160SAPE  C31117944   3.126   2.914   7.947 -0.1766  0.0519 -0.1191
  160SAPE  H11X17945   3.204   2.986   7.911 -0.1586  0.6856  1.1435
  160SAPE  H11Y17946   3.153   2.816   7.902  0.0725  0.4536 -0.8759
  160SAPE  C31217947   3.144   2.927   8.095  0.6043  1.1140 -0.2968
  160SAPE  H12X17948   3.117   3.030   8.127 -2.1314  0.7077 -1.0951
  160SAPE  H12Y17949   3.251   2.926   8.125  1.0228 -0.4553 -1.7472
  160SAPE  C31317950   3.077   2.817   8.178  0.1171  0.1994  0.9507
  160SAPE  H13X17951   3.125   2.719   8.156  0.5221 -0.0879  2.9345
  160SAPE  H13Y17952   2.969   2.812   8.149 -0.1291  2.4589  1.3378
  160SAPE  C31417953   3.082   2.837   8.328  0.2038 -0.1877 -0.2667
  160SAPE  H14X17954   3.024   2.925   8.363 -1.2209 -1.9888  2.2404
  160SAPE  H14Y17955   3.188   2.849   8.358 -0.1807  1.8332  0.4153
  160SAPE  C31517956   3.029   2.717   8.400  0.2434  0.4922 -0.7932
  160SAPE  H15X17957   3.080   2.622   8.373 -2.2997 -0.6953 -1.7813
  160SAPE  H15Y17958   2.929   2.680   8.368  1.4588 -2.8306 -1.1650
  160SAPE  C31617959   3.014   2.742   8.550  0.0686 -0.2143 -0.1388
  160SAPE  H16X17960   2.934   2.813   8.578 -0.0567  0.3919 -1.9077
  160SAPE  H16Y17961   3.108   2.795   8.579 -0.3195 -0.2850  1.3089
  160SAPE  C31717962   2.997   2.610   8.628  0.2635 -0.1558  0.2403
  160SAPE  H17X17963   3.009   2.636   8.735  0.8144  2.6805 -0.4312
  160SAPE  H17Y17964   3.066   2.534   8.586  1.7002  2.3278 -2.2129
  160SAPE  C31817965   2.855   2.554   8.620  0.0183  0.3167  0.4569
  160SAPE  H18X17966   2.806   2.546   8.520  0.0563  2.9560  0.1664
  160SAPE  H18Y17967   2.786   2.621   8.676 -0.2212  0.6897 -0.2691
  160SAPE  H18Z17968   2.840   2.458   8.675  2.5162 -0.4329 -0.0475
  161SOPE     N17969   0.676   1.738  10.645  0.3036  0.0264  0.7110
  161SOPE   HN117970   0.664   1.712  10.745 -0.1748 -1.0254  0.3948
  161SOPE   HN217971   0.749   1.811  10.634  0.0451  0.2955  0.7435
  161SOPE   HN317972   0.589   1.771  10.598  0.0423  0.5459  1.5304
  161SOPE   C1217973   0.720   1.608  10.573  0.4057  0.0121 -0.8299
  161SOPE  H12A17974   0.719   1.521  10.643  2.0052  0.8456  0.3070
  161SOPE  H12B17975   0.826   1.629  10.546  0.5934 -0.8273 -0.7915
  161SOPE   C1117976   0.642   1.583  10.448 -0.6746  0.1296  0.6916
  161SOPE  H11A17977   0.705   1.506  10.397  0.1422  1.4877 -0.4411
  161SOPE  H11B17978   0.642   1.675  10.385  0.1260 -0.9320 -0.9161
  161SOPE     P17979   0.387   1.639  10.443  0.3546  0.3035  0.2205
  161SOPE   O1317980   0.409   1.754  10.541 -0.0261 -0.0002  0.3589
  161SOPE   O1417981   0.261   1.564  10.462 -0.3858 -0.4127 -1.1202
  161SOPE   O1217982   0.510   1.532  10.469  0.0301 -0.6730  0.6425
  161SOPE   O1117983   0.404   1.693  10.296  0.0203  0.0157  0.3842
  161SOPE    C117984   0.350   1.614  10.187  0.2102 -0.3033  0.0961
  161SOPE    HA17985   0.317   1.678  10.102  0.9700  0.3909  0.3087
  161SOPE    HB17986   0.252   1.569  10.215 -0.8825  0.8257 -1.7282
  161SOPE    C217987   0.442   1.501  10.137 -0.6002  0.7869 -0.0321
  161SOPE    HS17988   0.464   1.427  10.216 -0.5577  2.9695  2.1313
  161SOPE   O2117989   0.562   1.573  10.100 -0.5724 -0.3381 -0.0662
  161SOPE   C2117990   0.676   1.500  10.095  0.4784 -0.1179 -0.0603
  161SOPE   O2217991   0.678   1.388  10.138  0.3404  0.8078 -0.2085
  161SOPE   C2217992   0.795   1.585  10.057 -0.4109 -0.6198 -0.3763
  161SOPE   H2R17993   0.803   1.671  10.127  0.4282 -0.9832 -0.0174
  161SOPE   H2S17994   0.779   1.629   9.956 -1.4031 -0.7443 -0.2822
  161SOPE    C317995   0.382   1.408  10.025  0.2354 -0.9192 -0.7056
  161SOPE    HX17996   0.293   1.360  10.070  1.6252 -2.0948  0.9229
  161SOPE    HY17997   0.452   1.323  10.009 -1.7697 -3.5189  2.7928
  161SOPE   O3117998   0.337   1.489   9.915  0.3559  0.4141 -0.0765
  161SOPE   C3117999   0.429   1.492   9.819 -0.1754 -0.4287  0.2984
  161SOPE   O3218000   0.529   1.424   9.815 -0.4168  0.3495 -0.2049
  161SOPE   C3218001   0.375   1.583   9.710 -0.1542  0.1723 -0.3377
  161SOPE   H2X18002   0.406   1.689   9.716  2.8355 -0.6609  1.0040
  161SOPE   H2Y18003   0.265   1.572   9.706 -0.7140  4.4124 -1.3678
  161SOPE   C2318004   0.937   1.516  10.048 -0.1890 -0.9021 -0.1823
  161SOPE   H3R18005   0.937   1.417  10.099  2.6722 -1.2029 -0.5844
  161SOPE   H3S18006   1.007   1.579  10.106 -1.2497  0.6532 -0.5321
  161SOPE   C2418007   0.997   1.503   9.906 -0.3475  0.3419 -0.1010
  161SOPE   H4R18008   1.013   1.608   9.875  0.3999  0.5566  0.9664
  161SOPE   H4S18009   1.096   1.453   9.908 -2.0027 -3.2824 -1.1608
  161SOPE   C2518010   0.901   1.417   9.821 -0.2939  0.6315 -0.1515
  161SOPE   H5R18011   0.868   1.329   9.881 -0.2096 -1.0425 -2.4577
  161SOPE   H5S18012   0.808   1.477   9.807  0.0454  1.2408  0.1791
  161SOPE   C2618013   0.952   1.378   9.687  0.3075 -0.0874  0.4921
  161SOPE   H6R18014   1.040   1.312   9.698 -1.4513 -2.2444  2.6158
  161SOPE   H6S18015   0.876   1.307   9.648  1.8132 -1.1578 -0.6178
  161SOPE   C2718016   0.976   1.492   9.589  0.0227 -0.4362 -0.5580
  161SOPE   H7R18017   1.049   1.562   9.636  0.1745 -1.0888  0.2042
  161SOPE   H7S18018   1.039   1.466   9.501  0.9741  1.8861 -0.6396
  161SOPE   C2818019   0.849   1.555   9.529 -1.0227 -0.0549 -0.4725
  161SOPE   H8R18020   0.795   1.588   9.620 -1.8905  0.4599 -1.1548
  161SOPE   H8S18021   0.871   1.648   9.471 -1.4276  0.6540  0.4775
  161SOPE   C2918022   0.773   1.453   9.446  0.3876  0.1137  0.4100
  161SOPE   H9118023   0.704   1.387   9.501  1.3262 -1.5950 -0.3784
  161SOPE  C21018024   0.771   1.435   9.313 -0.1991 -0.5162  0.6464
  161SOPE  H10118025   0.689   1.370   9.278 -1.4007  2.3340 -2.3299
  161SOPE  C21118026   0.847   1.509   9.205  0.8834  0.4457 -0.2493
  161SOPE  H11R18027   0.889   1.605   9.240  1.0372  0.9969 -1.8528
  161SOPE  H11S18028   0.771   1.531   9.128  1.1046  0.7086 -0.3963
  161SOPE  C21218029   0.957   1.412   9.167 -0.3736  0.2528 -0.5488
  161SOPE  H12R18030   0.912   1.324   9.115  0.3410 -1.0130  0.8914
  161SOPE  H12S18031   1.023   1.376   9.250  0.0586  0.6751 -0.7048
  161SOPE  C21318032   1.055   1.468   9.063  0.0789 -0.3403 -0.0074
  161SOPE  H13R18033   1.133   1.390   9.047  0.9772  1.1908 -4.8621
  161SOPE  H13S18034   1.092   1.570   9.087  1.3525 -1.0708  1.3082
  161SOPE  C21418035   0.990   1.475   8.919 -0.0731 -0.1347 -0.2484
  161SOPE  H14R18036   1.057   1.538   8.856 -1.3761  0.7764 -0.7756
  161SOPE  H14S18037   0.898   1.537   8.924 -0.6231 -0.9556 -0.1304
  161SOPE  C21518038   0.987   1.339   8.852 -0.1197 -0.1748  0.0622
  161SOPE  H15R18039   0.923   1.261   8.899 -2.1763  0.0461 -2.2303
  161SOPE  H15S18040   1.091   1.302   8.862  0.0576  0.6134  1.4533
  161SOPE  C21618041   0.935   1.352   8.710 -0.8190  0.3657 -0.1643
  161SOPE  H16R18042   1.012   1.413   8.657  1.5388 -0.3671  2.2172
  161SOPE  H16S18043   0.840   1.408   8.712  1.1290  4.2278 -2.6148
  161SOPE  C21718044   0.918   1.215   8.646 -0.9259 -0.1212 -0.1245
  161SOPE  H17R18045   0.893   1.220   8.538  0.1255  2.1122 -0.3109
  161SOPE  H17S18046   0.826   1.172   8.692 -0.9192  2.9665  3.2242
  161SOPE  C21818047   1.033   1.118   8.665  1.0491  0.3698  0.2964
  161SOPE  H18R18048   1.018   1.029   8.601 -0.3822  1.3126 -0.7611
  161SOPE  H18S18049   1.043   1.093   8.773  0.5906 -2.4551 -0.2477
  161SOPE  H18T18050   1.126   1.161   8.622  1.2257 -0.3847 -0.0848
  161SOPE   C3318051   0.427   1.544   9.570  0.6712 -0.0092 -0.3072
  161SOPE   H3X18052   0.411   1.435   9.550 -0.5078  0.1959 -0.5776
  161SOPE   H3Y18053   0.537   1.561   9.573  0.7050 -0.3838  0.9755
  161SOPE   C3418054   0.361   1.633   9.465 -0.3408  0.7442  0.5155
  161SOPE   H4X18055   0.395   1.734   9.495  0.0473  0.7610  0.0365
  161SOPE   H4Y18056   0.250   1.630   9.463 -0.3873 -2.3631  1.4587
  161SOPE   C3518057   0.413   1.605   9.327  0.4645  0.1404  0.4507
  161SOPE   H5X18058   0.390   1.500   9.301  0.6376  0.6318 -1.8811
  161SOPE   H5Y18059   0.524   1.606   9.333  0.6345  0.8218 -1.9757
  161SOPE   C3618060   0.379   1.712   9.224 -0.0318  0.2628  0.0102
  161SOPE   H6X18061   0.434   1.805   9.250  0.2345 -0.2508  1.3457
  161SOPE   H6Y18062   0.270   1.729   9.240 -0.5042 -3.5877  2.1006
  161SOPE   C3718063   0.408   1.676   9.076  0.3344  0.2323 -0.1926
  161SOPE   H7X18064   0.316   1.617   9.055  1.1474 -1.1033 -0.1874
  161SOPE   H7Y18065   0.497   1.609   9.062 -0.4101 -1.2933  1.8087
  161SOPE   C3818066   0.396   1.800   8.980  0.3356  0.1634  0.1215
  161SOPE   H8X18067   0.496   1.844   9.003  1.1346 -1.5826  0.1406
  161SOPE   H8Y18068   0.312   1.868   9.005  0.6551 -0.0315  1.8507
  161SOPE   C3918069   0.375   1.740   8.843  0.5489 -0.5316 -0.8424
  161SOPE   H9X18070   0.354   1.817   8.765  2.6926 -1.2196 -2.1804
  161SOPE   H9Y18071   0.283   1.677   8.850  0.3609 -0.1363  0.5155
  161SOPE  C31018072   0.493   1.655   8.777  0.5541 -0.0263 -0.5534
  161SOPE  H10X18073   0.538   1.585   8.851  0.6068  1.1650  0.5806
  161SOPE  H10Y18074   0.571   1.730   8.751  1.5528 -1.2202 -1.1339
  161SOPE  C31118075   0.445   1.596   8.643 -0.2246 -0.3581 -0.1117
  161SOPE  H11X18076   0.448   1.684   8.575  1.8986  1.6797  2.4252
  161SOPE  H11Y18077   0.341   1.557   8.644 -1.1117  1.7680 -1.8503
  161SOPE  C31218078   0.546   1.489   8.609 -0.3890  0.6343 -0.2719
  161SOPE  H12X18079   0.534   1.407   8.683  0.8214  0.9818  0.3339
  161SOPE  H12Y18080   0.651   1.524   8.607 -0.1746 -0.0057 -0.3495
  161SOPE  C31318081   0.515   1.430   8.467 -0.0909  0.1325  0.3222
  161SOPE  H13X18082   0.538   1.517   8.402 -0.4875 -0.4281 -0.5883
  161SOPE  H13Y18083   0.408   1.399   8.472  0.5056 -1.9924  1.3012
  161SOPE  C31418084   0.594   1.305   8.424 -0.6742  0.2428 -0.7428
  161SOPE  H14X18085   0.626   1.250   8.515 -0.9581  0.2192 -0.6560
  161SOPE  H14Y18086   0.681   1.352   8.374 -0.2944  0.4619  0.1199
  161SOPE  C31518087   0.517   1.214   8.332 -0.3949 -0.6927 -0.5830
  161SOPE  H15X18088   0.427   1.174   8.383 -1.1210  0.0381 -1.2683
  161SOPE  H15Y18089   0.582   1.125   8.319  0.6366 -0.3048  1.4825
  161SOPE  C31618090   0.482   1.279   8.200 -0.0659  0.3425  0.0928
  161SOPE  H16X18091   0.569   1.329   8.154  0.5514 -1.6591 -1.0699
  161SOPE  H16Y18092   0.399   1.348   8.228 -0.5539  0.3499 -1.2767
  161SOPE  C31718093   0.424   1.177   8.101 -0.5944 -0.3023 -0.1932
  161SOPE  H17X18094   0.505   1.100   8.094 -1.0987 -1.1828  2.5883
  161SOPE  H17Y18095   0.404   1.224   8.002 -1.4833 -0.5123 -0.1136
  161SOPE  C31818096   0.300   1.108   8.144 -1.2502 -0.3318  0.4533
  161SOPE  H18X18097   0.320   1.037   8.227  0.7391 -0.4890 -0.1244
  161SOPE  H18Y18098   0.269   1.048   8.056  1.6485  0.5999 -1.3540
  161SOPE  H18Z18099   0.225   1.185   8.175  1.3885  2.2314  0.9045
  162SOPE     N18100   5.823   1.011  10.984 -0.5132  0.2832  0.0111
  162SOPE   HN118101   5.772   1.095  11.018  0.0370  0.3501  0.6867
  162SOPE   HN218102   5.763   0.962  10.914 -2.0387  1.4621  0.4444
  162SOPE   HN318103   5.833   0.961  11.075  2.2212  1.8396  0.6701
  162SOPE   C1218104   5.956   1.050  10.920 -0.4335 -0.1000  0.4551
  162SOPE  H12A18105   6.014   0.958  10.898  1.0153  1.0053 -0.5880
  162SOPE  H12B18106   6.009   1.108  11.000 -1.1554 -1.1344  1.7200
  162SOPE   C1118107   5.941   1.132  10.790  0.1758  0.5254 -0.2090
  162SOPE  H11A18108   5.906   1.079  10.699  0.0288  0.5577 -0.1708
  162SOPE  H11B18109   6.038   1.169  10.752  0.6580 -1.8842 -1.5054
  162SOPE     P18110   5.819   1.373  10.741  0.2544 -0.3787 -0.1320
  162SOPE   O1318111   5.929   1.458  10.795  0.0797 -0.2114  0.4356
  162SOPE   O1418112   5.681   1.411  10.768  0.1139  0.4088 -0.6571
  162SOPE   O1218113   5.846   1.231  10.803  0.2635  0.0289  0.1826
  162SOPE   O1118114   5.832   1.365  10.586 -0.7578  0.2841  0.1877
  162SOPE    C118115   5.798   1.252  10.515 -0.8038 -0.2075  0.2452
  162SOPE    HA18116   5.732   1.186  10.575  0.6623  0.6167  2.9380
  162SOPE    HB18117   5.886   1.184  10.501 -0.9193 -0.6899  1.7164
  162SOPE    C218118   5.728   1.285  10.382  0.0603  0.4042 -0.0692
  162SOPE    HS18119   5.691   1.187  10.343  0.0718  0.2035  0.4229
  162SOPE   O2118120   5.822   1.353  10.302  0.6997  0.6385  0.5313
  162SOPE   C2118121   5.908   1.273  10.242 -0.4327 -0.4299  0.4679
  162SOPE   O2218122   5.920   1.149  10.260  0.4333 -0.5468  0.1632
  162SOPE   C2218123   5.996   1.359  10.151  0.3708  0.2969  0.4898
  162SOPE   H2R18124   6.103   1.344  10.180  0.3922 -2.9190 -0.8646
  162SOPE   H2S18125   5.979   1.468  10.164  0.9650  0.5460 -0.6909
  162SOPE    C318126   5.597   1.362  10.394  0.5523 -0.0368 -0.0007
  162SOPE    HX18127   5.626   1.439  10.470  1.9935  1.6418 -2.1206
  162SOPE    HY18128   5.516   1.294  10.429  0.5425  0.6196  1.3516
  162SOPE   O3118129   5.565   1.429  10.271  0.0696  0.2043 -0.4101
  162SOPE   C3118130   5.498   1.542  10.290 -0.3757  0.2108 -0.1830
  162SOPE   O3218131   5.454   1.584  10.392 -0.2608  1.0804 -0.8974
  162SOPE   C3218132   5.462   1.607  10.154 -0.1705 -0.6731  0.3625
  162SOPE   H2X18133   5.462   1.718  10.167 -0.2762 -0.9104  2.8232
  162SOPE   H2Y18134   5.359   1.569  10.137 -0.3798  0.1634 -0.3525
  162SOPE   C2318135   5.999   1.314   9.996 -0.0909 -0.1744  0.1870
  162SOPE   H3R18136   6.037   1.212   9.975  0.0842 -0.0565 -0.0821
  162SOPE   H3S18137   6.060   1.384   9.934 -0.9730  0.1595 -0.3252
  162SOPE   C2418138   5.861   1.298   9.925 -0.0049  0.6505  0.3516
  162SOPE   H4R18139   5.801   1.225   9.983 -0.9595 -0.2286 -1.6567
  162SOPE   H4S18140   5.811   1.397   9.928 -0.9463  0.1732  0.7388
  162SOPE   C2518141   5.872   1.231   9.785  0.2774 -0.4940 -0.2829
  162SOPE   H5R18142   5.906   1.126   9.795  0.1893 -0.4737  0.2442
  162SOPE   H5S18143   5.769   1.235   9.744 -1.1911 -1.4572  2.9958
  162SOPE   C2618144   5.959   1.307   9.684  0.4257  0.0540 -0.0957
  162SOPE   H6R18145   5.907   1.397   9.646 -0.7810 -1.1565 -1.4081
  162SOPE   H6S18146   6.060   1.324   9.728  1.2970 -2.5931 -0.8873
  162SOPE   C2718147   5.989   1.232   9.549  0.1176 -0.1768 -0.4252
  162SOPE   H7R18148   6.069   1.285   9.493  2.7406 -0.9785  2.2731
  162SOPE   H7S18149   6.024   1.131   9.579  0.9687 -0.6242 -2.7182
  162SOPE   C2818150   5.872   1.215   9.452  0.1600 -0.4879 -0.3602
  162SOPE   H8R18151   5.894   1.123   9.393 -0.2550 -0.3979 -0.6549
  162SOPE   H8S18152   5.790   1.171   9.513 -1.5664 -0.0731 -2.2998
  162SOPE   C2918153   5.824   1.329   9.375 -0.2836  0.3283  1.5209
  162SOPE   H9118154   5.767   1.397   9.440 -0.6144  0.5709  0.9803
  162SOPE  C21018155   5.816   1.348   9.245 -0.7613 -0.9354 -0.3282
  162SOPE  H10118156   5.767   1.444   9.222 -0.6645 -0.5039  1.1799
  162SOPE  C21118157   5.867   1.264   9.127 -0.2483 -0.4365 -0.0217
  162SOPE  H11R18158   5.799   1.256   9.040  1.0438 -4.0448 -0.8865
  162SOPE  H11S18159   5.889   1.160   9.162  0.8684 -0.5129 -0.9149
  162SOPE  C21218160   5.995   1.333   9.086  0.4364 -0.2591 -0.3373
  162SOPE  H12R18161   6.057   1.361   9.174  1.3808 -0.5248 -0.9035
  162SOPE  H12S18162   5.965   1.418   9.020 -0.1803 -1.0960 -1.1695
  162SOPE  C21318163   6.077   1.254   8.993 -0.6369 -0.2793  0.0380
  162SOPE  H13R18164   6.019   1.186   8.927 -0.5131 -0.1614 -0.1910
  162SOPE  H13S18165   6.143   1.187   9.053 -2.0874  0.9668  3.2835
  162SOPE  C21418166   6.157   1.330   8.893 -0.7378 -0.2490  0.1486
  162SOPE  H14R18167   6.225   1.390   8.958 -2.1923  1.8706 -0.2352
  162SOPE  H14S18168   6.088   1.402   8.845  0.2596  1.6306  1.4059
  162SOPE  C21518169   6.228   1.245   8.781 -0.3372 -0.0298 -0.4052
  162SOPE  H15R18170   6.146   1.209   8.714 -0.8012 -0.8138  0.5415
  162SOPE  H15S18171   6.267   1.153   8.831 -0.3334  0.6833  0.9371
  162SOPE  C21618172   6.322   1.328   8.699  0.1509  1.0570 -0.0225
  162SOPE  H16R18173   6.260   1.408   8.654 -0.4268  1.1465  0.9107
  162SOPE  H16S18174   6.353   1.262   8.615  0.0951 -0.2851  0.9682
  162SOPE  C21718175   6.435   1.398   8.776  0.1221  0.4774  0.3553
  162SOPE  H17R18176   6.507   1.319   8.804 -1.1135 -1.1579 -0.8930
  162SOPE  H17S18177   6.406   1.457   8.866 -0.0337  2.1500 -0.7395
  162SOPE  C21818178   6.504   1.499   8.691 -0.0882  0.0996 -0.2952
  162SOPE  H18R18179   6.588   1.447   8.639  0.7704  1.3867 -0.2421
  162SOPE  H18S18180   6.555   1.570   8.759 -1.8630 -1.2197  2.5926
  162SOPE  H18T18181   6.433   1.546   8.620 -1.1959  0.0306  0.7290
  162SOPE   C3318182   5.554   1.562  10.039 -0.4558 -0.9994  0.0436
  162SOPE   H3X18183   5.530   1.457  10.013 -1.3658 -0.6298 -0.6855
  162SOPE   H3Y18184   5.658   1.574  10.076 -1.3725  0.2681  2.3997
  162SOPE   C3418185   5.521   1.640   9.909 -0.0739 -0.4001  0.3615
  162SOPE   H4X18186   5.619   1.679   9.875 -0.4965  1.6898  1.3674
  162SOPE   H4Y18187   5.443   1.716   9.932 -0.7005 -0.7760 -0.4220
  162SOPE   C3518188   5.455   1.542   9.804  0.2561 -0.0141  0.2570
  162SOPE   H5X18189   5.385   1.601   9.741  1.6018  0.4407 -0.8441
  162SOPE   H5Y18190   5.410   1.448   9.842  1.4220 -1.1318 -1.0593
  162SOPE   C3618191   5.558   1.471   9.705 -0.1206 -0.5168  0.1200
  162SOPE   H6X18192   5.614   1.396   9.763 -0.5879  0.6278  2.1375
  162SOPE   H6Y18193   5.625   1.549   9.662 -0.4802 -0.8561 -1.1231
  162SOPE   C3718194   5.482   1.402   9.592  0.0194 -0.1241 -1.0570
  162SOPE   H7X18195   5.381   1.379   9.630  0.6482  0.6783  1.2847
  162SOPE   H7Y18196   5.533   1.306   9.568 -1.4081 -1.3924  0.7775
  162SOPE   C3818197   5.487   1.487   9.456  0.2014 -0.3561  0.6838
  162SOPE   H8X18198   5.596   1.496   9.437  0.3047 -1.8793  0.4609
  162SOPE   H8Y18199   5.457   1.594   9.459 -1.1487 -0.6570 -1.0486
  162SOPE   C3918200   5.438   1.409   9.341  0.6012 -0.4560  0.3916
  162SOPE   H9X18201   5.333   1.389   9.370  0.6593 -0.5526  0.5367
  162SOPE   H9Y18202   5.493   1.313   9.351  2.1689  0.6416  4.1028
  162SOPE  C31018203   5.446   1.475   9.207 -0.0945 -0.5162  0.5997
  162SOPE  H10X18204   5.547   1.521   9.208  0.2750 -1.2189  3.4097
  162SOPE  H10Y18205   5.369   1.556   9.198  0.1745 -0.4033 -0.9787
  162SOPE  C31118206   5.425   1.386   9.082  0.5679  0.6205  0.2787
  162SOPE  H11X18207   5.318   1.358   9.086  0.7693 -0.0856  0.9422
  162SOPE  H11Y18208   5.490   1.296   9.085 -0.8014 -0.3843  0.3023
  162SOPE  C31218209   5.430   1.445   8.943  0.3222  0.0133 -0.4906
  162SOPE  H12X18210   5.380   1.544   8.951  0.6183  0.0475  1.5425
  162SOPE  H12Y18211   5.372   1.378   8.877 -0.2851  0.0313  0.0133
  162SOPE  C31318212   5.571   1.474   8.898 -0.3666 -0.6058 -0.1205
  162SOPE  H13X18213   5.567   1.474   8.787  1.4966  3.0757 -0.3415
  162SOPE  H13Y18214   5.637   1.395   8.939 -0.5988  0.1985  1.9672
  162SOPE  C31418215   5.625   1.620   8.942 -0.9910  0.5148  0.2246
  162SOPE  H14X18216   5.736   1.619   8.949 -0.8159 -2.1866 -1.3522
  162SOPE  H14Y18217   5.572   1.649   9.035 -1.8986 -2.0274  0.6041
  162SOPE  C31518218   5.602   1.733   8.835 -0.0992  0.8323  0.3905
  162SOPE  H15X18219   5.607   1.829   8.891  1.5249  1.5929 -0.9571
  162SOPE  H15Y18220   5.499   1.740   8.794  0.3492  3.2467 -0.4635
  162SOPE  C31618221   5.711   1.727   8.730  0.8546 -0.6204  0.5266
  162SOPE  H16X18222   5.684   1.638   8.669 -0.1940  0.4106 -0.5612
  162SOPE  H16Y18223   5.805   1.706   8.785  1.5740 -0.0181 -0.4369
  162SOPE  C31718224   5.728   1.854   8.646 -0.2001 -0.2508 -0.4446
  162SOPE  H17X18225   5.821   1.842   8.586  1.4341  0.9084  1.7112
  162SOPE  H17Y18226   5.750   1.937   8.716  0.1617 -0.6503 -0.0713
  162SOPE  C31818227   5.608   1.878   8.554  0.8728 -1.1766 -0.2082
  162SOPE  H18X18228   5.637   1.965   8.492 -0.9795 -0.5320 -0.2345
  162SOPE  H18Y18229   5.515   1.915   8.602 -0.1660 -1.4685 -1.9110
  162SOPE  H18Z18230   5.577   1.783   8.505 -3.2328 -0.0538 -0.1880
  163SOPE     N18231   0.232   5.652  10.653 -0.2782 -1.0442 -0.0944
  163SOPE   HN118232   0.155   5.586  10.674 -0.2487 -1.2790 -0.7217
  163SOPE   HN218233   0.236   5.734  10.718  0.8327  0.3240 -1.7889
  163SOPE   HN318234   0.208   5.696  10.562  0.3262  1.4966  0.8806
  163SOPE   C1218235   0.362   5.589  10.634 -0.0156  0.1154 -0.0588
  163SOPE  H12A18236   0.409   5.577  10.735 -2.7407  1.4942  1.4853
  163SOPE  H12B18237   0.440   5.650  10.583  0.5938  0.5112  1.2934
  163SOPE   C1118238   0.366   5.454  10.572 -0.3032 -0.4024  0.7075
  163SOPE  H11A18239   0.470   5.416  10.566 -1.1705 -2.7610 -0.6959
  163SOPE  H11B18240   0.327   5.471  10.470  0.3347  0.0879  0.5450
  163SOPE     P18241   0.261   5.226  10.602  0.0878 -0.1916  0.2459
  163SOPE   O1318242   0.157   5.173  10.686  0.3134  0.2721  0.2438
  163SOPE   O1418243   0.390   5.153  10.598  0.1095 -0.0034 -0.3391
  163SOPE   O1218244   0.293   5.365  10.648  0.3453  0.3802 -0.4850
  163SOPE   O1118245   0.206   5.243  10.456  0.1691  0.1368  0.2627
  163SOPE    C118246   0.066   5.293  10.447 -0.8997  0.4632 -0.1544
  163SOPE    HA18247   0.050   5.389  10.500 -1.5732 -0.0562  0.5899
  163SOPE    HB18248  -0.006   5.217  10.483 -0.9573  0.9283  0.7378
  163SOPE    C218249   0.027   5.312  10.298 -0.2494  0.3334  0.0974
  163SOPE    HS18250  -0.080   5.344  10.307 -0.1009  0.8472  0.0788
  163SOPE   O2118251   0.047   5.191  10.224  0.1052  0.1761  0.3882
  163SOPE   C2118252  -0.051   5.096  10.227  0.2326 -0.2684  0.4630
  163SOPE   O2218253  -0.160   5.115  10.278 -0.1656  0.0507 -0.6382
  163SOPE   C2218254   0.009   4.972  10.175 -0.2918  0.8814 -0.1499
  163SOPE   H2R18255  -0.077   4.908  10.145  2.7262 -2.4436 -2.5327
  163SOPE   H2S18256   0.079   4.923  10.245  0.0712 -0.5371 -1.4643
  163SOPE    C318257   0.106   5.434  10.250  0.3650  0.0474 -0.0979
  163SOPE    HX18258   0.209   5.425  10.290  0.6813  1.6195 -0.5124
  163SOPE    HY18259   0.062   5.522  10.302 -1.6848 -0.8451 -0.1925
  163SOPE   O3118260   0.092   5.460  10.108 -0.9841  0.5868  0.0610
  163SOPE   C3118261   0.190   5.410  10.042 -0.2092  0.0852  0.2317
  163SOPE   O3218262   0.272   5.334  10.085 -0.4802  0.3454  0.0483
  163SOPE   C3218263   0.186   5.447   9.899  0.0673 -0.1402  0.1187
  163SOPE   H2X18264   0.083   5.439   9.857  0.4182 -2.6343 -0.4237
  163SOPE   H2Y18265   0.253   5.380   9.842 -0.7789 -1.3798  0.5516
  163SOPE   C2318266   0.084   4.997  10.041 -0.6429  0.2323 -0.3377
  163SOPE   H3R18267   0.110   4.898   9.997 -0.5717 -0.0052  0.2376
  163SOPE   H3S18268   0.176   5.054  10.066 -1.7287  1.1145  1.8560
  163SOPE   C2418269  -0.003   5.062   9.928 -0.4193  0.3891 -0.4282
  163SOPE   H4R18270  -0.090   5.001   9.898  0.4392 -0.8128 -0.5396
  163SOPE   H4S18271  -0.033   5.160   9.972  0.3390  1.1575 -1.5539
  163SOPE   C2518272   0.080   5.101   9.809  0.1568 -0.5734  0.0446
  163SOPE   H5R18273   0.167   5.157   9.848  1.1576 -1.5053 -0.7789
  163SOPE   H5S18274   0.109   5.006   9.759  2.2623 -0.1865  0.4494
  163SOPE   C2618275   0.011   5.195   9.714  0.4892 -0.3946  0.2638
  163SOPE   H6R18276  -0.073   5.140   9.666 -0.4118  0.1901  1.1303
  163SOPE   H6S18277  -0.022   5.288   9.764 -1.0869 -0.1393 -1.1542
  163SOPE   C2718278   0.104   5.220   9.604 -0.7273  1.0000  0.3032
  163SOPE   H7R18279   0.193   5.274   9.642 -0.0910 -0.5553  1.0923
  163SOPE   H7S18280   0.132   5.127   9.550  2.2893  1.1597  1.3742
  163SOPE   C2818281   0.048   5.324   9.501  1.2068  0.2867  0.4893
  163SOPE   H8R18282   0.058   5.425   9.548  2.6122  0.2181  0.3733
  163SOPE   H8S18283   0.121   5.349   9.421 -0.6017  2.1316 -0.6970
  163SOPE   C2918284  -0.087   5.293   9.441 -0.2463 -0.3767 -1.0350
  163SOPE   H9118285  -0.161   5.273   9.519  0.5309 -0.6088 -0.3406
  163SOPE  C21018286  -0.128   5.290   9.312  0.0516  0.5418 -0.5475
  163SOPE  H10118287  -0.235   5.273   9.295  0.2453 -1.8769  0.1790
  163SOPE  C21118288  -0.042   5.324   9.192 -0.1476 -0.4268 -1.0200
  163SOPE  H11R18289  -0.067   5.250   9.113  0.4434 -1.0369 -0.6551
  163SOPE  H11S18290   0.061   5.290   9.220 -0.3925 -0.6931 -0.4059
  163SOPE  C21218291  -0.048   5.471   9.152 -0.0251  0.5160 -0.1268
  163SOPE  H12R18292  -0.026   5.529   9.244 -0.4981  0.5764 -0.0518
  163SOPE  H12S18293  -0.151   5.484   9.112  0.0809 -2.0413 -1.4545
  163SOPE  C21318294   0.067   5.501   9.049  0.2563 -0.2334  0.0094
  163SOPE  H13R18295   0.165   5.502   9.103 -0.0060 -1.2009  0.5207
  163SOPE  H13S18296   0.055   5.605   9.011  1.3313 -0.3428 -0.6796
  163SOPE  C21418297   0.078   5.402   8.933  0.8059 -0.7135 -0.4790
  163SOPE  H14R18298  -0.021   5.380   8.887  0.5946 -1.7085  0.4107
  163SOPE  H14S18299   0.114   5.307   8.978 -1.1656 -1.0074  0.6150
  163SOPE  C21518300   0.177   5.453   8.827 -0.3123  0.4007  0.0301
  163SOPE  H15R18301   0.276   5.467   8.875 -0.9008  2.6036  0.7146
  163SOPE  H15S18302   0.154   5.556   8.792 -0.7518  0.0186 -0.8280
  163SOPE  C21618303   0.196   5.352   8.704  0.1446  0.1730 -0.3689
  163SOPE  H16R18304   0.095   5.358   8.658  0.1112  2.9593 -0.0977
  163SOPE  H16S18305   0.212   5.252   8.748  1.1721  0.0195 -1.0520
  163SOPE  C21718306   0.304   5.412   8.617 -0.6251 -0.2871 -0.0700
  163SOPE  H17R18307   0.402   5.431   8.665 -0.3601 -2.4111  0.3234
  163SOPE  H17S18308   0.268   5.511   8.582 -0.3850 -0.8329 -1.9963
  163SOPE  C21818309   0.319   5.345   8.479 -0.0417 -0.0925 -0.1219
  163SOPE  H18R18310   0.383   5.255   8.482  0.0204 -0.0424  0.0698
  163SOPE  H18S18311   0.361   5.407   8.398 -0.6172  0.6234  0.1115
  163SOPE  H18T18312   0.220   5.305   8.447  0.4000 -0.2955 -1.2480
  163SOPE   C3318313   0.252   5.587   9.874  0.4700 -0.9311 -0.7577
  163SOPE   H3X18314   0.361   5.593   9.890  0.1877  0.9060  0.8697
  163SOPE   H3Y18315   0.214   5.650   9.958  0.5764 -2.6815  0.6679
  163SOPE   C3418316   0.214   5.658   9.745  0.2389 -0.9628 -0.1251
  163SOPE   H4X18317   0.249   5.763   9.752  0.7769 -1.1655  0.2956
  163SOPE   H4Y18318   0.104   5.654   9.730  0.3268  1.4342 -2.1209
  163SOPE   C3518319   0.296   5.601   9.622 -0.0700  0.2664 -0.3620
  163SOPE   H5X18320   0.290   5.490   9.619  0.5112  0.2608 -2.4761
  163SOPE   H5Y18321   0.403   5.632   9.627 -0.2284  0.6445  2.0718
  163SOPE   C3618322   0.240   5.652   9.486 -0.0080 -0.2149 -0.1012
  163SOPE   H6X18323   0.254   5.762   9.485  0.7548 -0.3139 -1.0940
  163SOPE   H6Y18324   0.132   5.624   9.480 -0.2489  0.3292  1.3145
  163SOPE   C3718325   0.299   5.592   9.363  0.0426  0.2395  0.2848
  163SOPE   H7X18326   0.264   5.653   9.277  0.1077 -0.7516 -0.4655
  163SOPE   H7Y18327   0.253   5.494   9.338 -0.6518  0.9902 -1.6084
  163SOPE   C3818328   0.451   5.617   9.371  0.2582 -0.1417  0.3584
  163SOPE   H8X18329   0.488   5.540   9.442  1.5741 -2.1948 -2.4146
  163SOPE   H8Y18330   0.468   5.719   9.412  3.8603 -0.9016  1.0691
  163SOPE   C3918331   0.518   5.616   9.229  0.0689 -0.4833  0.3895
  163SOPE   H9X18332   0.626   5.637   9.246 -0.0304  0.9984 -0.6462
  163SOPE   H9Y18333   0.480   5.697   9.164 -0.9587 -0.2068  1.3138
  163SOPE  C31018334   0.503   5.487   9.144 -0.0566  0.2687  0.9015
  163SOPE  H10X18335   0.395   5.467   9.131  0.2180 -0.1337 -1.1278
  163SOPE  H10Y18336   0.550   5.398   9.191  0.0619 -0.4829 -0.5574
  163SOPE  C31118337   0.549   5.501   8.999 -0.9798  1.3645  0.5217
  163SOPE  H11X18338   0.473   5.569   8.955  0.0886  2.4738  0.3693
  163SOPE  H11Y18339   0.537   5.406   8.943  1.3227  0.3225  1.6671
  163SOPE  C31218340   0.697   5.552   8.986  0.5122  0.5342 -0.6861
  163SOPE  H12X18341   0.767   5.495   9.050  0.3456 -1.3204 -2.0815
  163SOPE  H12Y18342   0.688   5.657   9.020  0.9126  0.1009  0.8313
  163SOPE  C31318343   0.751   5.559   8.841 -0.1683 -0.3330 -0.9006
  163SOPE  H13X18344   0.848   5.608   8.864 -0.0013  0.1905 -2.5971
  163SOPE  H13Y18345   0.691   5.635   8.787 -1.6105 -0.6062  0.2588
  163SOPE  C31418346   0.769   5.424   8.767 -0.1704 -0.7165 -0.0585
  163SOPE  H14X18347   0.674   5.367   8.764 -0.1353 -0.7379 -1.7564
  163SOPE  H14Y18348   0.853   5.365   8.810  0.8038 -0.2806 -1.3001
  163SOPE  C31518349   0.806   5.461   8.618  0.1114 -0.2768  0.0348
  163SOPE  H15X18350   0.896   5.525   8.616  0.3542 -0.6429 -1.4052
  163SOPE  H15Y18351   0.725   5.526   8.577  1.4150  1.1711 -0.3351
  163SOPE  C31618352   0.813   5.343   8.524  0.0842 -0.5801  0.1783
  163SOPE  H16X18353   0.845   5.365   8.420 -0.6925 -1.8302 -0.3448
  163SOPE  H16Y18354   0.711   5.306   8.499 -0.7610  0.5522  1.7345
  163SOPE  C31718355   0.904   5.226   8.577  0.5885 -0.5861 -0.4573
  163SOPE  H17X18356   0.871   5.185   8.675  1.2779 -2.6616 -1.0270
  163SOPE  H17Y18357   1.003   5.270   8.601  0.7832  0.2080 -2.5179
  163SOPE  C31818358   0.914   5.119   8.469  0.3287 -0.0669  0.4477
  163SOPE  H18X18359   0.965   5.158   8.378 -0.2845  1.4477  0.7122
  163SOPE  H18Y18360   0.810   5.094   8.437  0.4271  0.2261 -0.1149
  163SOPE  H18Z18361   0.969   5.031   8.508  0.9282  0.2675  0.3733
  164SOPE     N18362   3.577   4.731  10.866  0.2869 -0.4420  0.5544
  164SOPE   HN118363   3.661   4.790  10.880 -0.6209  1.6819 -2.1583
  164SOPE   HN218364   3.529   4.741  10.958  1.1438 -0.1681  0.9765
  164SOPE   HN318365   3.605   4.631  10.865  0.3106 -0.4990  2.4226
  164SOPE   C1218366   3.494   4.763  10.741 -0.7493 -0.5747  0.3216
  164SOPE  H12A18367   3.441   4.859  10.757 -1.8999 -1.2254  0.4771
  164SOPE  H12B18368   3.429   4.677  10.714 -1.4601 -0.7979  2.5607
  164SOPE   C1118369   3.593   4.778  10.619  0.0207 -0.3337 -0.2298
  164SOPE  H11A18370   3.679   4.833  10.663 -1.0584 -0.7776  2.6424
  164SOPE  H11B18371   3.541   4.837  10.540  1.2459  1.8021  0.4643
  164SOPE     P18372   3.781   4.633  10.496  0.1994  0.3088 -0.6194
  164SOPE   O1318373   3.786   4.508  10.419  0.7970  0.2087 -0.1998
  164SOPE   O1418374   3.889   4.649  10.608  0.3822  0.2682 -0.0205
  164SOPE   O1218375   3.639   4.656  10.571  0.2482 -0.1141 -0.0606
  164SOPE   O1118376   3.793   4.758  10.396  0.3945  0.8408  0.1454
  164SOPE    C118377   3.699   4.777  10.285 -0.5409  0.0504 -0.4272
  164SOPE    HA18378   3.665   4.883  10.286  3.0917  1.4164 -2.9067
  164SOPE    HB18379   3.605   4.721  10.308 -0.1335 -0.0107  1.2273
  164SOPE    C218380   3.749   4.742  10.144  0.2408 -0.3489 -0.0124
  164SOPE    HS18381   3.771   4.633  10.143 -0.9515 -0.6049 -0.0956
  164SOPE   O2118382   3.872   4.812  10.109  0.2856  0.4779  0.1764
  164SOPE   C2118383   3.952   4.769  10.018 -0.4228  1.2874  0.0801
  164SOPE   O2218384   3.933   4.662   9.961  0.1887 -0.2630  0.1462
  164SOPE   C2218385   4.056   4.872   9.999  0.1395  0.4647 -0.3128
  164SOPE   H2R18386   4.154   4.820  10.004 -0.3726 -0.5621 -0.6739
  164SOPE   H2S18387   4.046   4.938  10.088 -1.6567  0.0186 -0.1516
  164SOPE    C318388   3.633   4.772  10.043 -0.6708  0.5996 -0.6603
  164SOPE    HX18389   3.603   4.879  10.043 -0.8269  0.5561 -0.2636
  164SOPE    HY18390   3.541   4.727  10.086 -0.3010 -1.0177 -1.4682
  164SOPE   O3118391   3.654   4.720   9.910 -1.0851  0.8096 -0.0710
  164SOPE   C3118392   3.631   4.582   9.911  0.2382  0.1173  0.1730
  164SOPE   O3218393   3.579   4.524   9.998 -0.0689  0.5403 -0.5522
  164SOPE   C3218394   3.667   4.522   9.773 -0.1386  0.2965  0.6245
  164SOPE   H2X18395   3.778   4.518   9.770 -0.1718  0.0690 -2.2533
  164SOPE   H2Y18396   3.635   4.605   9.706 -0.5240  0.8347  1.4529
  164SOPE   C2318397   4.045   4.946   9.868  0.6627  0.1778  0.4313
  164SOPE   H3R18398   4.112   5.035   9.870 -0.2509  0.9955 -1.8958
  164SOPE   H3S18399   3.943   4.982   9.843  0.5515 -0.7305 -0.5383
  164SOPE   C2418400   4.090   4.859   9.748  1.1380 -0.0547 -0.0020
  164SOPE   H4R18401   4.195   4.824   9.759  1.6919  0.9576 -1.7191
  164SOPE   H4S18402   4.021   4.771   9.752  1.5478 -0.3244  1.7257
  164SOPE   C2518403   4.084   4.933   9.617  0.0298 -0.1881  0.4280
  164SOPE   H5R18404   3.980   4.958   9.587 -0.3368  0.4452  2.0955
  164SOPE   H5S18405   4.146   5.025   9.626 -0.0115  0.0567 -1.3890
  164SOPE   C2618406   4.144   4.847   9.496 -0.5008  0.0629 -0.9473
  164SOPE   H6R18407   4.130   4.898   9.398  0.6643  0.4726 -0.9194
  164SOPE   H6S18408   4.252   4.835   9.520 -0.5755 -1.4086 -1.2555
  164SOPE   C2718409   4.091   4.701   9.488  0.3789 -0.2347 -0.1418
  164SOPE   H7R18410   4.141   4.653   9.575  1.4861  1.4144  0.1858
  164SOPE   H7S18411   3.981   4.691   9.501  0.6827 -1.1264  2.3031
  164SOPE   C2818412   4.132   4.628   9.356 -0.8806  0.3812 -0.1964
  164SOPE   H8R18413   4.095   4.684   9.267 -0.3067  1.5698  0.2808
  164SOPE   H8S18414   4.243   4.630   9.355 -0.8681 -0.5100 -1.0369
  164SOPE   C2918415   4.080   4.486   9.360 -0.4985  0.2358 -0.1877
  164SOPE   H9118416   3.988   4.474   9.419  0.1009 -0.1748  0.6864
  164SOPE  C21018417   4.151   4.374   9.326  0.0108 -0.1054 -0.3479
  164SOPE  H10118418   4.109   4.274   9.342  0.2257 -0.0501  0.6439
  164SOPE  C21118419   4.285   4.378   9.261  0.1206 -0.3356 -0.2783
  164SOPE  H11R18420   4.357   4.311   9.312  2.0374  2.2124  0.6160
  164SOPE  H11S18421   4.333   4.478   9.249  1.2359 -0.5634  1.9207
  164SOPE  C21218422   4.278   4.325   9.108  0.3899 -0.3129 -0.3928
  164SOPE  H12R18423   4.189   4.376   9.065  0.8363  0.1398 -0.7933
  164SOPE  H12S18424   4.259   4.216   9.101 -0.0608 -0.1235 -3.0690
  164SOPE  C21318425   4.393   4.372   9.026 -0.0761 -0.1095  0.5227
  164SOPE  H13R18426   4.489   4.326   9.060  0.5042  1.6147  1.3450
  164SOPE  H13S18427   4.411   4.482   9.029  0.7253 -0.2460  2.1077
  164SOPE  C21418428   4.365   4.341   8.880 -0.7303 -0.6276  0.0730
  164SOPE  H14R18429   4.265   4.380   8.851 -1.1561 -0.1135  2.0784
  164SOPE  H14S18430   4.351   4.231   8.870 -0.4776 -0.7450  0.9719
  164SOPE  C21518431   4.476   4.394   8.782 -0.2817  0.3618  0.1047
  164SOPE  H15R18432   4.581   4.374   8.812 -0.3459 -0.2738 -0.0870
  164SOPE  H15S18433   4.490   4.504   8.793  2.8036  0.2735 -1.7648
  164SOPE  C21618434   4.466   4.345   8.635  0.0796 -0.0894  0.2148
  164SOPE  H16R18435   4.542   4.387   8.566  0.0430 -0.6856 -0.1915
  164SOPE  H16S18436   4.366   4.377   8.599 -0.4212 -0.6409  1.0728
  164SOPE  C21718437   4.464   4.195   8.619 -0.2855  0.0687  0.0624
  164SOPE  H17R18438   4.403   4.146   8.697  0.4748 -0.1342  0.5358
  164SOPE  H17S18439   4.569   4.163   8.635 -0.1227 -1.9054 -3.8037
  164SOPE  C21818440   4.419   4.147   8.482 -0.2775 -0.5189  0.4419
  164SOPE  H18R18441   4.419   4.037   8.465  0.0283 -0.2228 -1.8460
  164SOPE  H18S18442   4.491   4.198   8.414 -0.6227  1.1890  1.3085
  164SOPE  H18T18443   4.321   4.190   8.455 -0.1765  0.4513  1.5770
  164SOPE   C3318444   3.634   4.373   9.744  0.2691 -0.0553  0.4808
  164SOPE   H3X18445   3.524   4.363   9.755 -0.2851  3.3022 -0.6843
  164SOPE   H3Y18446   3.690   4.315   9.820  0.1721 -1.7496 -0.6873
  164SOPE   C3418447   3.697   4.325   9.611 -0.3167  0.1033 -0.2569
  164SOPE   H4X18448   3.803   4.311   9.639 -0.1416  1.2656 -0.2830
  164SOPE   H4Y18449   3.663   4.412   9.549 -1.5608 -1.2863 -1.6093
  164SOPE   C3518450   3.646   4.200   9.550  0.7480  0.7071 -0.3447
  164SOPE   H5X18451   3.540   4.217   9.522  1.2899 -0.3721 -3.3908
  164SOPE   H5Y18452   3.630   4.115   9.620 -1.5124  0.3334 -1.2162
  164SOPE   C3618453   3.718   4.160   9.421 -0.5974 -0.0186  0.6277
  164SOPE   H6X18454   3.707   4.051   9.401  1.4933  0.2287 -2.5381
  164SOPE   H6Y18455   3.827   4.176   9.434 -0.6993  1.2554  0.0335
  164SOPE   C3718456   3.688   4.225   9.284  1.0261 -0.1813 -0.9498
  164SOPE   H7X18457   3.730   4.327   9.294 -0.9564  0.5966 -0.0045
  164SOPE   H7Y18458   3.579   4.223   9.264  1.1509 -0.5289 -1.5965
  164SOPE   C3818459   3.757   4.150   9.171  0.0233 -0.3329 -0.6156
  164SOPE   H8X18460   3.709   4.051   9.158 -1.2402 -0.0473  1.3766
  164SOPE   H8Y18461   3.861   4.120   9.195 -0.0490 -0.4322 -0.4271
  164SOPE   C3918462   3.743   4.237   9.037  0.3303  0.3884  0.5731
  164SOPE   H9X18463   3.637   4.269   9.024  0.2588  1.1141  2.5534
  164SOPE   H9Y18464   3.774   4.168   8.956  2.8644  2.2545 -0.1789
  164SOPE  C31018465   3.846   4.350   9.028 -0.2231  0.1448  0.4382
  164SOPE  H10X18466   3.948   4.309   9.041  0.5377  0.3991 -3.3459
  164SOPE  H10Y18467   3.821   4.418   9.112 -2.2302 -0.0049  0.0101
  164SOPE  C31118468   3.864   4.423   8.895  0.0842 -0.0309 -0.4833
  164SOPE  H11X18469   3.949   4.494   8.893  1.4128 -1.5123  0.4343
  164SOPE  H11Y18470   3.770   4.479   8.877 -1.0264 -1.6005  0.1500
  164SOPE  C31218471   3.874   4.345   8.766 -0.3511 -0.1271 -0.7439
  164SOPE  H12X18472   3.811   4.258   8.792  0.3436  0.1348  2.2213
  164SOPE  H12Y18473   3.978   4.308   8.750 -0.4201 -0.1360 -1.1823
  164SOPE  C31318474   3.827   4.417   8.639  0.6131  0.3358  0.2771
  164SOPE  H13X18475   3.849   4.346   8.556  2.4842 -0.3751  1.3042
  164SOPE  H13Y18476   3.895   4.505   8.639  0.5341  0.4005  0.8041
  164SOPE  C31418477   3.678   4.451   8.620 -0.3230 -0.5503 -0.1462
  164SOPE  H14X18478   3.637   4.528   8.688  0.2538 -0.8243  0.5196
  164SOPE  H14Y18479   3.632   4.351   8.637 -1.1585 -0.1068  0.2564
  164SOPE  C31518480   3.633   4.479   8.479 -0.2790 -0.2599  0.1304
  164SOPE  H15X18481   3.679   4.398   8.418 -0.4076 -2.2606  2.5076
  164SOPE  H15Y18482   3.674   4.576   8.445 -0.1581 -0.5952 -0.7020
  164SOPE  C31618483   3.480   4.492   8.461 -0.2738  0.0207  0.3831
  164SOPE  H16X18484   3.461   4.558   8.374  0.7748 -0.8318 -0.5196
  164SOPE  H16Y18485   3.441   4.547   8.549  1.5896  1.2198  0.5102
  164SOPE  C31718486   3.413   4.353   8.459  0.1133  0.4453 -0.2045
  164SOPE  H17X18487   3.335   4.360   8.538 -1.0711  0.6341 -1.3737
  164SOPE  H17Y18488   3.479   4.268   8.488  0.6804  1.3098  1.1811
  164SOPE  C31818489   3.337   4.318   8.330  0.6318  0.0720  0.6457
  164SOPE  H18X18490   3.410   4.292   8.251  0.5513  1.4769  0.0969
  164SOPE  H18Y18491   3.272   4.400   8.294  0.4613  0.1128  1.0373
  164SOPE  H18Z18492   3.278   4.226   8.354  4.1174 -2.4068  0.5287
  165SOPE     N18493   1.793   4.651  10.673 -0.0540  0.5926  0.0866
  165SOPE   HN118494   1.884   4.604  10.654 -1.2518 -1.7990 -0.0771
  165SOPE   HN218495   1.801   4.692  10.768  1.7655 -0.5460  0.4570
  165SOPE   HN318496   1.720   4.577  10.666 -0.3026  0.8255  0.2032
  165SOPE   C1218497   1.780   4.753  10.563 -0.0188  0.2192 -0.0149
  165SOPE  H12A18498   1.758   4.703  10.467  1.0244  3.7309 -2.3055
  165SOPE  H12B18499   1.877   4.805  10.547  1.4503 -2.3195  0.1617
  165SOPE   C1118500   1.666   4.846  10.604 -0.0746 -0.1897 -0.0171
  165SOPE  H11A18501   1.570   4.793  10.622 -0.1426 -0.8878 -2.1908
  165SOPE  H11B18502   1.642   4.921  10.526 -0.3071  0.8750  1.0469
  165SOPE     P18503   1.630   5.056  10.767  0.1252  0.1362 -0.1202
  165SOPE   O1318504   1.688   5.113  10.896  0.2088  0.1508  0.2850
  165SOPE   O1418505   1.483   5.030  10.762  0.0502 -0.2604  0.1661
  165SOPE   O1218506   1.700   4.921  10.722  0.6848  1.2134 -0.0619
  165SOPE   O1118507   1.655   5.153  10.636 -0.0794  0.3272 -0.2130
  165SOPE    C118508   1.788   5.201  10.618  0.6017  0.2265 -0.8135
  165SOPE    HA18509   1.866   5.150  10.678  0.8380  1.0923 -0.3733
  165SOPE    HB18510   1.783   5.304  10.659 -2.2087 -1.0837  2.6785
  165SOPE    C218511   1.826   5.202  10.464 -0.1744 -0.2982 -0.9932
  165SOPE    HS18512   1.916   5.267  10.458  1.2821 -1.4434  3.8263
  165SOPE   O2118513   1.717   5.242  10.377  0.5139  0.0067  0.0525
  165SOPE   C2118514   1.676   5.357  10.388  0.1718  0.0098 -0.1698
  165SOPE   O2218515   1.720   5.448  10.456  0.3183 -0.0257  0.4722
  165SOPE   C2218516   1.566   5.378  10.283  0.4147 -0.6027 -0.1647
  165SOPE   H2R18517   1.490   5.446  10.326  0.5005 -0.4699 -0.2224
  165SOPE   H2S18518   1.516   5.279  10.270 -0.7651 -0.2650  1.5430
  165SOPE    C318519   1.883   5.066  10.422 -0.2353  0.2355  0.2944
  165SOPE    HX18520   1.809   4.983  10.421  1.1682 -1.0443  0.1351
  165SOPE    HY18521   1.964   5.035  10.492  2.3420  4.0777 -0.6609
  165SOPE   O3118522   1.943   5.065  10.290  0.3953 -0.4167 -0.0543
  165SOPE   C3118523   1.974   4.936  10.251 -0.6124 -0.8393 -0.0655
  165SOPE   O3218524   1.965   4.841  10.321  0.1701 -0.4638  0.2969
  165SOPE   C3218525   2.042   4.942  10.114 -0.2428 -0.3606 -0.3934
  165SOPE   H2X18526   2.151   4.952  10.134 -0.0429 -0.4549 -1.3579
  165SOPE   H2Y18527   2.011   5.032  10.058 -1.5546 -0.1701  0.5882
  165SOPE   C2318528   1.614   5.443  10.151  0.0054 -0.3332 -0.6787
  165SOPE   H3R18529   1.527   5.453  10.082 -1.5578  0.0066  1.2772
  165SOPE   H3S18530   1.691   5.375  10.110  0.9347  0.4845 -0.3417
  165SOPE   C2418531   1.682   5.579  10.169 -0.0752  0.1674  0.7121
  165SOPE   H4R18532   1.612   5.659  10.203  0.1467  1.2813 -1.3020
  165SOPE   H4S18533   1.757   5.577  10.252 -0.1494  1.3661  0.8244
  165SOPE   C2518534   1.736   5.636  10.031  0.4646  0.5218 -0.7845
  165SOPE   H5R18535   1.785   5.544   9.993  0.4546  0.5441 -0.8528
  165SOPE   H5S18536   1.653   5.662   9.961 -0.8554  2.0848  1.2381
  165SOPE   C2618537   1.839   5.749  10.041 -0.5850 -0.0136  0.2775
  165SOPE   H6R18538   1.810   5.854  10.058 -0.8691 -0.0386 -0.0654
  165SOPE   H6S18539   1.904   5.722  10.127 -1.0903 -0.2059  0.6005
  165SOPE   C2718540   1.929   5.747   9.910 -0.1296  0.1772 -0.2356
  165SOPE   H7R18541   2.032   5.786   9.930 -0.0589 -0.3561  0.4818
  165SOPE   H7S18542   1.944   5.641   9.882  1.0864 -0.4135  2.2790
  165SOPE   C2818543   1.859   5.824   9.797 -0.3809  0.2919  0.5940
  165SOPE   H8R18544   1.784   5.765   9.740 -2.1397  1.8752  1.1626
  165SOPE   H8S18545   1.810   5.920   9.825 -1.9175 -0.1894 -0.3391
  165SOPE   C2918546   1.961   5.879   9.703  0.3242  0.0823  0.5606
  165SOPE   H9118547   1.980   5.988   9.704  0.4982  0.0731 -0.3840
  165SOPE  C21018548   2.029   5.812   9.611 -0.8217  0.0044 -0.5343
  165SOPE  H10118549   2.091   5.867   9.539  0.3857 -2.0528 -1.1544
  165SOPE  C21118550   2.015   5.658   9.592 -0.2621 -0.5434 -0.2530
  165SOPE  H11R18551   1.927   5.620   9.649  1.9469 -2.7443  1.9375
  165SOPE  H11S18552   2.099   5.608   9.645  0.1306 -0.2840 -0.6285
  165SOPE  C21218553   2.014   5.601   9.446  0.3456 -0.0523  0.6176
  165SOPE  H12R18554   2.011   5.490   9.453  1.0034 -0.1915 -0.9306
  165SOPE  H12S18555   2.107   5.620   9.388  1.2337 -3.6393  0.5989
  165SOPE  C21318556   1.888   5.654   9.376 -0.1860 -0.2735  0.3523
  165SOPE  H13R18557   1.893   5.763   9.358 -0.3383 -0.2337  0.5544
  165SOPE  H13S18558   1.805   5.621   9.441 -1.3378 -0.8653 -1.3292
  165SOPE  C21418559   1.870   5.571   9.245 -0.2671  0.0652  0.3875
  165SOPE  H14R18560   1.858   5.464   9.272  2.3250  0.2550  2.7560
  165SOPE  H14S18561   1.969   5.582   9.195 -1.5306  1.4165 -2.0241
  165SOPE  C21518562   1.757   5.627   9.151 -0.3296  0.0711  0.1699
  165SOPE  H15R18563   1.784   5.734   9.143  0.4302 -0.0691  0.7323
  165SOPE  H15S18564   1.660   5.617   9.205 -0.4336 -3.2956 -0.3715
  165SOPE  C21618565   1.763   5.572   9.003 -0.4779 -0.4234 -0.3127
  165SOPE  H16R18566   1.844   5.497   9.008  0.8885  0.9842 -0.6197
  165SOPE  H16S18567   1.791   5.654   8.934  0.5329 -0.7161 -0.2672
  165SOPE  C21718568   1.636   5.509   8.957  0.4433  0.0721 -0.4916
  165SOPE  H17R18569   1.556   5.586   8.962 -1.1863 -1.6298  1.6381
  165SOPE  H17S18570   1.600   5.428   9.024 -2.5726  0.0200 -1.9617
  165SOPE  C21818571   1.637   5.442   8.817 -0.2221 -0.0137 -0.1369
  165SOPE  H18R18572   1.683   5.509   8.741 -0.1093 -0.6393 -0.6245
  165SOPE  H18S18573   1.537   5.414   8.778 -0.3936 -0.6878  0.7553
  165SOPE  H18T18574   1.700   5.351   8.819 -0.4310 -0.1375  1.2343
  165SOPE   C3318575   2.015   4.820  10.027  0.4437  0.0389  0.0181
  165SOPE   H3X18576   1.907   4.795  10.036  0.7158 -1.4543 -0.5416
  165SOPE   H3Y18577   2.073   4.728  10.049  1.6781  0.3858 -1.6297
  165SOPE   C3418578   2.030   4.859   9.878 -0.3065  0.2661 -0.1184
  165SOPE   H4X18579   2.114   4.932   9.880 -0.9436  1.0780 -1.4146
  165SOPE   H4Y18580   1.941   4.914   9.840  2.3500  3.6478 -2.0380
  165SOPE   C3518581   2.065   4.738   9.788 -0.2251  0.6013  0.6767
  165SOPE   H5X18582   2.008   4.643   9.793 -1.4887  1.3324  0.4427
  165SOPE   H5Y18583   2.167   4.719   9.828 -0.4191 -1.3229  0.3363
  165SOPE   C3618584   2.072   4.764   9.637 -0.0540  0.1050  0.2768
  165SOPE   H6X18585   2.133   4.853   9.610 -1.2539  0.1327 -2.6972
  165SOPE   H6Y18586   1.974   4.775   9.586  0.9681  0.2352 -1.7503
  165SOPE   C3718587   2.125   4.639   9.568 -0.0965  0.5771 -0.2056
  165SOPE   H7X18588   2.066   4.546   9.582 -0.2018  0.5982 -0.5070
  165SOPE   H7Y18589   2.223   4.623   9.617 -0.1486  0.9693  0.0299
  165SOPE   C3818590   2.151   4.651   9.418 -0.0430 -0.2635  0.0757
  165SOPE   H8X18591   2.217   4.568   9.386  3.8449  2.3842  0.4337
  165SOPE   H8Y18592   2.224   4.734   9.408  0.8121 -1.1072 -0.9000
  165SOPE   C3918593   2.026   4.670   9.327 -0.2137 -0.0765  0.1798
  165SOPE   H9X18594   1.970   4.762   9.354  0.7372  1.0627 -1.5296
  165SOPE   H9Y18595   1.968   4.576   9.336 -0.0040 -0.3158 -0.8116
  165SOPE  C31018596   2.069   4.693   9.180 -0.7407 -0.5633 -0.3541
  165SOPE  H10X18597   2.123   4.602   9.144  0.2632  0.6705 -2.1437
  165SOPE  H10Y18598   2.143   4.776   9.177 -0.5603 -0.7514 -1.5295
  165SOPE  C31118599   1.949   4.736   9.093 -0.5204  0.6093  0.4569
  165SOPE  H11X18600   1.907   4.828   9.138 -0.4802  0.5573  0.6014
  165SOPE  H11Y18601   1.873   4.655   9.104 -1.6968  1.4141 -1.3163
  165SOPE  C31218602   1.979   4.752   8.943  0.0414  0.9534  0.4029
  165SOPE  H12X18603   2.035   4.667   8.900 -0.5541  1.2205 -0.9631
  165SOPE  H12Y18604   2.048   4.839   8.947 -0.8562  1.6399  1.4825
  165SOPE  C31318605   1.861   4.772   8.849 -0.4176 -0.3626 -0.7546
  165SOPE  H13X18606   1.909   4.829   8.767 -0.9073  1.2618  0.0587
  165SOPE  H13Y18607   1.796   4.841   8.907  1.7404  1.3494 -0.2491
  165SOPE  C31418608   1.793   4.648   8.808  0.8695  0.2838 -0.1355
  165SOPE  H14X18609   1.740   4.605   8.896 -0.3180 -1.6455 -1.7175
  165SOPE  H14Y18610   1.871   4.574   8.780  0.4678 -0.4851  0.7145
  165SOPE  C31518611   1.702   4.660   8.690  0.1116 -0.6982  0.4380
  165SOPE  H15X18612   1.753   4.710   8.605  1.7072  0.4181  1.9950
  165SOPE  H15Y18613   1.617   4.725   8.721 -0.8769 -2.5393  1.7970
  165SOPE  C31618614   1.640   4.523   8.639  0.2236 -0.1982 -0.0401
  165SOPE  H16X18615   1.530   4.533   8.624  0.3244 -0.7081 -1.2256
  165SOPE  H16Y18616   1.650   4.458   8.728 -0.9556  0.8220  0.8814
  165SOPE  C31718617   1.697   4.472   8.510  0.5878  0.4580  0.4343
  165SOPE  H17X18618   1.661   4.367   8.506 -2.5763  1.4253  0.9284
  165SOPE  H17Y18619   1.808   4.472   8.520  0.5632 -0.7719  0.8645
  165SOPE  C31818620   1.655   4.540   8.381  0.2177  0.2697  0.1770
  165SOPE  H18X18621   1.672   4.650   8.379 -0.9888  0.4839  0.7502
  165SOPE  H18Y18622   1.545   4.524   8.376 -0.0172  1.9361 -0.8694
  165SOPE  H18Z18623   1.702   4.486   8.296 -2.7429 -0.6067 -1.0354
  166SOPE     N18624   5.132   6.499  10.939 -0.0924 -0.0679  0.0326
  166SOPE   HN118625   5.063   6.568  10.906 -1.3330  0.1417  2.7655
  166SOPE   HN218626   5.119   6.409  10.888  0.5023  0.8610 -1.8557
  166SOPE   HN318627   5.106   6.490  11.040  0.4853  3.2269  0.6027
  166SOPE   C1218628   5.277   6.540  10.915  0.1944 -0.2092 -0.4355
  166SOPE  H12A18629   5.307   6.606  10.999 -1.0392 -0.7694  0.4682
  166SOPE  H12B18630   5.281   6.586  10.814 -1.1314  0.1532 -0.3420
  166SOPE   C1118631   5.365   6.411  10.914 -0.2873 -0.4163 -0.4136
  166SOPE  H11A18632   5.363   6.369  11.017 -1.7440  0.4943 -0.0287
  166SOPE  H11B18633   5.472   6.442  10.906 -0.3376 -0.4376 -1.3317
  166SOPE     P18634   5.373   6.309  10.676  0.1186 -0.4276  0.5191
  166SOPE   O1318635   5.508   6.365  10.671 -0.0438  0.1740 -0.0627
  166SOPE   O1418636   5.267   6.377  10.596 -0.3878 -0.3692  0.7194
  166SOPE   O1218637   5.317   6.305  10.824  0.2132 -0.3355 -0.1181
  166SOPE   O1118638   5.376   6.159  10.648 -0.6882  0.0576 -0.8525
  166SOPE    C118639   5.482   6.074  10.684 -0.6594  0.1737  0.2161
  166SOPE    HA18640   5.440   6.002  10.757 -1.1632  0.7095  0.4623
  166SOPE    HB18641   5.567   6.117  10.741 -0.7781 -1.7859  1.9931
  166SOPE    C218642   5.535   5.988  10.563  0.5317  0.5307  0.1321
  166SOPE    HS18643   5.641   5.967  10.589  0.5721  1.4088  0.7068
  166SOPE   O2118644   5.519   6.068  10.439 -0.6609 -0.1208 -0.4207
  166SOPE   C2118645   5.612   6.165  10.430  0.2614 -0.0188 -0.0316
  166SOPE   O2218646   5.716   6.168  10.492 -0.0438 -0.4291  0.3454
  166SOPE   C2218647   5.565   6.288  10.352 -0.4548 -0.7050 -0.7430
  166SOPE   H2R18648   5.582   6.366  10.430  1.0605 -4.9149  3.6713
  166SOPE   H2S18649   5.455   6.273  10.359 -0.2913 -1.2200  1.3015
  166SOPE    C318650   5.446   5.860  10.548  0.1376  0.0321  0.2402
  166SOPE    HX18651   5.340   5.891  10.560  0.5735  1.1213  1.5543
  166SOPE    HY18652   5.468   5.794  10.635  0.3300 -0.0475  0.1320
  166SOPE   O3118653   5.458   5.789  10.425 -0.1397  0.3333  0.1379
  166SOPE   C3118654   5.577   5.729  10.412 -0.3934 -0.6008 -0.0501
  166SOPE   O3218655   5.664   5.726  10.499  0.2663 -0.1640  0.0022
  166SOPE   C3218656   5.594   5.660  10.274 -0.2349 -0.1593 -0.4822
  166SOPE   H2X18657   5.493   5.615  10.258 -0.6594 -0.2313  2.0955
  166SOPE   H2Y18658   5.674   5.585  10.282  0.9170  0.9288 -1.3213
  166SOPE   C2318659   5.639   6.313  10.218  0.1392  0.4092  0.1094
  166SOPE   H3R18660   5.748   6.323  10.236  0.5867 -2.5785 -0.3916
  166SOPE   H3S18661   5.600   6.403  10.167  2.6505  0.7981 -1.2895
  166SOPE   C2418662   5.619   6.200  10.116 -0.6737 -0.6603 -0.0146
  166SOPE   H4R18663   5.676   6.109  10.143  2.2821  1.0267 -0.1137
  166SOPE   H4S18664   5.513   6.178  10.094 -0.2984  0.3795 -3.3832
  166SOPE   C2518665   5.664   6.253   9.979 -0.3764 -0.1114  0.4088
  166SOPE   H5R18666   5.653   6.362   9.961  1.3937 -0.2150 -1.6883
  166SOPE   H5S18667   5.771   6.226   9.966 -0.1417  0.6581  0.7083
  166SOPE   C2618668   5.592   6.174   9.867 -0.8150  0.3766  0.7956
  166SOPE   H6R18669   5.578   6.074   9.913 -2.6401  0.5102  0.6277
  166SOPE   H6S18670   5.494   6.220   9.838 -0.5055  0.8259  0.4478
  166SOPE   C2718671   5.671   6.172   9.740 -0.1319 -0.3885  0.8303
  166SOPE   H7R18672   5.689   6.281   9.726 -1.4011 -0.3045 -0.3267
  166SOPE   H7S18673   5.766   6.121   9.765  0.1521  0.3453  1.3032
  166SOPE   C2818674   5.587   6.126   9.612 -0.3055  0.4922 -0.6057
  166SOPE   H8R18675   5.562   6.018   9.623  1.4018 -0.0690 -1.7064
  166SOPE   H8S18676   5.499   6.192   9.619  0.1930  1.0537  0.9325
  166SOPE   C2918677   5.666   6.127   9.486 -0.0295  0.1725 -0.1501
  166SOPE   H9118678   5.755   6.063   9.496  1.1033  1.4553 -1.6194
  166SOPE  C21018679   5.652   6.186   9.362  0.8603  0.1011 -0.1989
  166SOPE  H10118680   5.726   6.166   9.282 -0.2104 -1.3984 -0.8561
  166SOPE  C21118681   5.539   6.278   9.325 -0.2864  0.5563  0.3259
  166SOPE  H11R18682   5.583   6.373   9.289 -1.0814  0.9591  0.4024
  166SOPE  H11S18683   5.474   6.294   9.414  0.9929 -1.4933  1.7257
  166SOPE  C21218684   5.450   6.219   9.216 -0.3938  0.4808  0.1169
  166SOPE  H12R18685   5.369   6.291   9.194 -0.8741 -0.4837 -1.4289
  166SOPE  H12S18686   5.396   6.130   9.256 -0.3547  0.8145  0.9266
  166SOPE  C21318687   5.505   6.186   9.081 -0.6256 -0.3002  0.2261
  166SOPE  H13R18688   5.422   6.153   9.014 -0.6255  2.6914 -1.4102
  166SOPE  H13S18689   5.591   6.116   9.085  0.8763  1.2912 -1.7998
  166SOPE  C21418690   5.560   6.303   9.000  0.4448 -0.0392  0.2770
  166SOPE  H14R18691   5.624   6.256   8.922 -1.3437  0.8828 -1.8662
  166SOPE  H14S18692   5.618   6.365   9.071  1.9142 -0.2773 -0.6487
  166SOPE  C21518693   5.455   6.401   8.947  0.0080  0.9322 -0.0853
  166SOPE  H15R18694   5.399   6.445   9.032 -1.6500 -0.5761 -0.3532
  166SOPE  H15S18695   5.382   6.341   8.890  0.1985 -0.4050  1.0409
  166SOPE  C21618696   5.512   6.497   8.847 -0.2903 -0.7022 -0.3477
  166SOPE  H16R18697   5.560   6.433   8.771  0.4348 -0.9258  0.2877
  166SOPE  H16S18698   5.596   6.547   8.899 -0.8315 -1.3245  1.1762
  166SOPE  C21718699   5.411   6.605   8.803  0.5937 -0.2731  0.2123
  166SOPE  H17R18700   5.354   6.650   8.886  1.2358 -0.3778  0.7199
  166SOPE  H17S18701   5.345   6.570   8.721  3.2523 -0.6447 -1.9116
  166SOPE  C21818702   5.480   6.727   8.733  0.2305  1.0674 -0.2742
  166SOPE  H18R18703   5.395   6.786   8.692 -0.2736  0.6288  0.1268
  166SOPE  H18S18704   5.562   6.686   8.670  0.7216  2.3797 -0.5287
  166SOPE  H18T18705   5.517   6.791   8.815 -0.8291  1.7851 -0.3390
  166SOPE   C3318706   5.612   5.763  10.162 -0.2134  0.1289 -0.0095
  166SOPE   H3X18707   5.714   5.804  10.154  0.1712 -0.4461  1.6231
  166SOPE   H3Y18708   5.546   5.852  10.171 -0.3371 -0.0638  1.2793
  166SOPE   C3418709   5.581   5.699  10.025 -0.6365  0.4417 -0.1876
  166SOPE   H4X18710   5.471   5.682  10.018 -0.7057 -2.3488  3.9780
  166SOPE   H4Y18711   5.614   5.593  10.033 -3.3666 -0.4599  0.2205
  166SOPE   C3518712   5.648   5.768   9.910 -0.6134 -0.1666  0.4051
  166SOPE   H5X18713   5.752   5.728   9.906 -0.1829  0.9604 -2.7525
  166SOPE   H5Y18714   5.647   5.878   9.924  0.5430  0.1772 -1.8081
  166SOPE   C3618715   5.579   5.762   9.778 -0.3185  1.1075 -0.1999
  166SOPE   H6X18716   5.497   5.837   9.776  1.3041  3.0011  0.5980
  166SOPE   H6Y18717   5.522   5.667   9.771 -0.2112  1.1098 -1.1144
  166SOPE   C3718718   5.663   5.774   9.657 -0.2567 -0.7265  0.7564
  166SOPE   H7X18719   5.749   5.704   9.664  0.2798 -0.0171  1.3513
  166SOPE   H7Y18720   5.705   5.877   9.655  0.7484 -1.1296  0.5955
  166SOPE   C3818721   5.599   5.760   9.517 -0.7818 -1.0373  0.0164
  166SOPE   H8X18722   5.520   5.838   9.521 -0.5828 -0.7725 -0.8997
  166SOPE   H8Y18723   5.537   5.667   9.515 -0.3533 -1.4200  2.1993
  166SOPE   C3918724   5.704   5.792   9.399  0.3000 -0.4216  0.1145
  166SOPE   H9X18725   5.776   5.709   9.384  1.4197 -0.0994  3.0143
  166SOPE   H9Y18726   5.765   5.884   9.412  0.0866 -0.0472 -1.3996
  166SOPE  C31018727   5.638   5.804   9.259  1.0453 -0.0526  0.3465
  166SOPE  H10X18728   5.717   5.808   9.182 -1.3292  0.1767 -2.2222
  166SOPE  H10Y18729   5.585   5.900   9.245  2.4344  0.7363  0.3431
  166SOPE  C31118730   5.530   5.691   9.229 -0.3383  0.1025  0.3278
  166SOPE  H11X18731   5.438   5.714   9.286 -1.8356  0.6521 -2.1662
  166SOPE  H11Y18732   5.568   5.591   9.260  1.0604  0.1823 -0.9918
  166SOPE  C31218733   5.490   5.672   9.074 -0.0498 -0.0529 -0.0258
  166SOPE  H12X18734   5.437   5.575   9.060 -0.0756 -0.1242  0.5358
  166SOPE  H12Y18735   5.582   5.659   9.013 -1.9947 -0.0930 -3.1525
  166SOPE  C31318736   5.410   5.796   9.036  0.1642  0.2740  0.1844
  166SOPE  H13X18737   5.469   5.884   9.069  0.0312 -0.3299  2.1905
  166SOPE  H13Y18738   5.317   5.803   9.096 -1.0279 -2.7557 -1.1000
  166SOPE  C31418739   5.367   5.799   8.881  0.3803  0.1705  0.7432
  166SOPE  H14X18740   5.289   5.875   8.859  0.5026 -0.1230 -0.8209
  166SOPE  H14Y18741   5.311   5.706   8.855  0.9525 -0.1714  0.7255
  166SOPE  C31518742   5.495   5.816   8.790  0.5469  0.1192  0.4195
  166SOPE  H15X18743   5.450   5.790   8.692 -2.0533 -1.7664  1.9776
  166SOPE  H15Y18744   5.568   5.740   8.825  0.2572 -0.6883 -0.6733
  166SOPE  C31618745   5.570   5.953   8.799  0.4598 -0.2197  0.0152
  166SOPE  H16X18746   5.663   5.946   8.740  0.1093  0.7913 -0.6827
  166SOPE  H16Y18747   5.608   5.975   8.901  1.5238  2.5004 -0.8633
  166SOPE  C31718748   5.482   6.063   8.729 -0.0769 -0.5588 -0.1665
  166SOPE  H17X18749   5.424   6.132   8.794 -3.3708 -1.5707 -1.7730
  166SOPE  H17Y18750   5.406   6.011   8.666 -1.8978 -0.4424  1.8506
  166SOPE  C31818751   5.578   6.145   8.638 -0.1869  0.0378  0.0952
  166SOPE  H18X18752   5.541   6.248   8.620 -1.0048 -0.2969 -0.1630
  166SOPE  H18Y18753   5.603   6.091   8.544  1.0396  0.8330 -0.0734
  166SOPE  H18Z18754   5.677   6.165   8.685 -1.0013  1.2865  1.3776
  167SOPE     N18755   5.925   5.198   6.054 -0.8621  0.1156 -0.0787
  167SOPE   HN118756   5.847   5.266   6.066 -0.5661  0.3768  0.3427
  167SOPE   HN218757   5.883   5.108   6.023 -0.5399 -0.2258  0.4628
  167SOPE   HN318758   5.978   5.182   6.142 -1.8374 -0.7344  0.3869
  167SOPE   C1218759   6.020   5.249   5.952 -0.0151 -0.0349 -0.6398
  167SOPE  H12A18760   5.977   5.235   5.851 -1.7139 -1.4658  0.2205
  167SOPE  H12B18761   6.114   5.188   5.953  0.1349  0.1933  0.4612
  167SOPE   C1118762   6.064   5.396   5.981  0.1532  0.1672  0.0618
  167SOPE  H11A18763   5.978   5.465   5.968  0.9027  1.2197  0.5311
  167SOPE  H11B18764   6.139   5.426   5.904  0.0827  0.3688  0.0706
  167SOPE     P18765   6.149   5.546   6.173 -0.1450 -0.2849  0.0715
  167SOPE   O1318766   6.065   5.644   6.096 -0.1794 -0.0536  0.2663
  167SOPE   O1418767   6.293   5.576   6.184  0.4061  0.5796  0.5017
  167SOPE   O1218768   6.132   5.403   6.104  0.0803 -0.3673  0.2787
  167SOPE   O1118769   6.087   5.509   6.313  0.3654 -0.2683  0.4193
  167SOPE    C118770   6.149   5.483   6.433 -0.2474 -0.2694 -0.3740
  167SOPE    HA18771   6.136   5.569   6.503  1.6330 -0.0927 -0.1963
  167SOPE    HB18772   6.260   5.481   6.424 -0.2506  1.3639 -1.1165
  167SOPE    C218773   6.091   5.362   6.502 -0.6560  0.4198  0.3093
  167SOPE    HS18774   6.077   5.293   6.417  1.7160  1.3613 -0.9403
  167SOPE   O2118775   5.969   5.400   6.566  0.8756  0.0708 -0.3061
  167SOPE   C2118776   5.886   5.306   6.594  0.0787 -0.3225 -0.0021
  167SOPE   O2218777   5.890   5.196   6.548 -0.2900 -0.0114 -0.1532
  167SOPE   C2218778   5.769   5.366   6.669  0.1559  0.7733 -0.0884
  167SOPE   H2R18779   5.687   5.404   6.604 -0.4347  0.0891  0.2426
  167SOPE   H2S18780   5.793   5.453   6.734 -1.7855 -0.2354  2.1223
  167SOPE    C318781   6.193   5.301   6.601 -0.3211  0.3673  0.2975
  167SOPE    HX18782   6.269   5.252   6.537  0.2552 -0.3010  1.4474
  167SOPE    HY18783   6.145   5.216   6.655 -1.5358  0.9738  0.2147
  167SOPE   O3118784   6.250   5.410   6.683  0.5089 -0.7176 -0.0919
  167SOPE   C3118785   6.199   5.428   6.806  0.3104 -0.0751  0.3896
  167SOPE   O3218786   6.149   5.341   6.876  0.1070  0.3164  0.2033
  167SOPE   C3218787   6.216   5.574   6.837  0.7106 -0.2629 -0.4725
  167SOPE   H2X18788   6.184   5.625   6.744  1.8798  0.8801 -0.2869
  167SOPE   H2Y18789   6.326   5.582   6.850  0.4819  0.7529  1.1142
  167SOPE   C2318790   5.716   5.257   6.762 -1.1477  0.2923 -0.7099
  167SOPE   H3R18791   5.698   5.166   6.702 -0.4522 -0.4935  0.2229
  167SOPE   H3S18792   5.619   5.293   6.802 -0.7397 -0.7854  1.4196
  167SOPE   C2418793   5.812   5.222   6.878 -0.4808  0.3174 -0.3686
  167SOPE   H4R18794   5.889   5.153   6.837  0.2366  2.1946 -2.4046
  167SOPE   H4S18795   5.872   5.312   6.903 -1.4556  0.5422  1.2298
  167SOPE   C2518796   5.750   5.148   6.995  0.1268  0.1474 -0.0212
  167SOPE   H5R18797   5.829   5.138   7.072 -0.6728  0.4400  0.8698
  167SOPE   H5S18798   5.682   5.210   7.057 -0.3114 -0.6023  0.2584
  167SOPE   C2618799   5.687   5.013   6.953  0.7717  0.4523 -0.8314
  167SOPE   H6R18800   5.608   5.034   6.878  0.7378  0.1207 -0.8887
  167SOPE   H6S18801   5.759   4.940   6.911  0.5108 -0.2050 -0.1620
  167SOPE   C2718802   5.617   4.928   7.065 -0.2318  0.1539  0.4143
  167SOPE   H7R18803   5.556   4.986   7.138 -0.3786 -1.2183  1.4197
  167SOPE   H7S18804   5.541   4.874   7.005  1.4018 -0.2677 -1.3819
  167SOPE   C2818805   5.709   4.840   7.138  0.1966  0.5698 -0.2018
  167SOPE   H8R18806   5.752   4.789   7.048 -1.9648  1.0823 -1.6073
  167SOPE   H8S18807   5.787   4.896   7.194  0.2256  0.2021  0.1216
  167SOPE   C2918808   5.625   4.766   7.237  0.8260 -0.7046  0.2402
  167SOPE   H9118809   5.554   4.693   7.196  1.8505 -0.0691 -2.9198
  167SOPE  C21018810   5.606   4.803   7.368  0.4614  0.3068  0.4061
  167SOPE  H10118811   5.559   4.722   7.425 -0.8087 -0.4049 -1.5247
  167SOPE  C21118812   5.669   4.919   7.441  0.1040 -0.8162 -0.0937
  167SOPE  H11R18813   5.579   4.964   7.488 -1.3400 -3.3220 -0.2893
  167SOPE  H11S18814   5.725   4.986   7.372  0.2574 -3.3542 -2.6373
  167SOPE  C21218815   5.766   4.874   7.555  0.2264  0.0244  0.3385
  167SOPE  H12R18816   5.862   4.860   7.502 -0.1053  1.6496 -0.7957
  167SOPE  H12S18817   5.725   4.783   7.603 -0.5699 -1.3844 -2.7439
  167SOPE  C21318818   5.777   4.970   7.667  0.0569 -0.5541 -0.0029
  167SOPE  H13R18819   5.673   4.993   7.698 -0.8351 -0.6725 -2.6910
  167SOPE  H13S18820   5.827   5.062   7.631  0.5869  0.0752  2.1558
  167SOPE  C21418821   5.861   4.910   7.783  0.0904  0.3325  0.0583
  167SOPE  H14R18822   5.966   4.896   7.748  0.0820 -1.6472  0.7291
  167SOPE  H14S18823   5.824   4.808   7.801 -1.0010  0.4183 -1.4591
  167SOPE  C21518824   5.846   5.000   7.910  0.1522  0.5628 -0.1308
  167SOPE  H15R18825   5.737   4.998   7.931  0.2643  2.3629  0.7726
  167SOPE  H15S18826   5.886   5.100   7.885 -0.8180  0.9256 -0.2926
  167SOPE  C21618827   5.916   4.936   8.031  0.0313 -0.5091  0.1255
  167SOPE  H16R18828   6.017   4.912   7.990 -0.6462 -1.1758 -1.2350
  167SOPE  H16S18829   5.875   4.837   8.061  1.3760 -0.5693  1.9610
  167SOPE  C21718830   5.936   5.034   8.145  0.1109  0.4372  0.1078
  167SOPE  H17R18831   5.853   5.051   8.217 -1.1636  1.6464 -1.5631
  167SOPE  H17S18832   5.945   5.127   8.085 -0.7746 -0.1291 -0.9588
  167SOPE  C21818833   6.070   5.005   8.224  0.7661  0.6982  0.1194
  167SOPE  H18R18834   6.075   5.061   8.319  4.3802  0.1125  0.4233
  167SOPE  H18S18835   6.159   5.051   8.176  0.3695  1.2142 -0.1382
  167SOPE  H18T18836   6.079   4.897   8.248 -1.0028  0.5363  0.2194
  167SOPE   C3318837   6.144   5.628   6.962 -0.8074  0.8393  0.1903
  167SOPE   H3X18838   6.034   5.620   6.972 -1.1073  2.2677 -1.4368
  167SOPE   H3Y18839   6.165   5.737   6.960 -0.7823  0.8564  0.9074
  167SOPE   C3418840   6.193   5.570   7.087 -0.3024  0.0462  0.3126
  167SOPE   H4X18841   6.304   5.566   7.082 -0.3594 -0.2215 -1.2839
  167SOPE   H4Y18842   6.147   5.469   7.094 -1.3861  0.4725 -0.4418
  167SOPE   C3518843   6.164   5.651   7.207 -0.1359 -0.0517 -0.0809
  167SOPE   H5X18844   6.054   5.656   7.221 -0.0541  0.0970  0.5196
  167SOPE   H5Y18845   6.206   5.754   7.198 -1.0126  0.1256 -3.4601
  167SOPE   C3618846   6.208   5.579   7.335  0.8910 -0.1270  0.3749
  167SOPE   H6X18847   6.317   5.562   7.350  0.6556 -2.1774 -0.0097
  167SOPE   H6Y18848   6.166   5.476   7.340  0.0992  0.1718 -0.1041
  167SOPE   C3718849   6.157   5.649   7.469 -0.3119 -0.4614  0.2806
  167SOPE   H7X18850   6.186   5.584   7.554 -1.7885  1.2317  2.1682
  167SOPE   H7Y18851   6.047   5.657   7.472 -0.5497 -3.2182  2.0453
  167SOPE   C3818852   6.244   5.777   7.477  0.3848  0.7071 -0.2718
  167SOPE   H8X18853   6.208   5.845   7.398 -2.4396 -1.2318 -0.7952
  167SOPE   H8Y18854   6.351   5.750   7.462  0.2138  0.6769 -1.5434
  167SOPE   C3918855   6.230   5.857   7.611 -0.1174  0.8491 -0.2218
  167SOPE   H9X18856   6.120   5.875   7.616 -0.1112  0.7568  0.2868
  167SOPE   H9Y18857   6.280   5.954   7.591 -1.0799  1.1656 -1.2008
  167SOPE  C31018858   6.286   5.771   7.725 -1.2966 -0.0049 -0.6575
  167SOPE  H10X18859   6.387   5.737   7.693 -0.4637  2.0486 -0.3665
  167SOPE  H10Y18860   6.227   5.677   7.737  0.1182 -0.8581 -0.1317
  167SOPE  C31118861   6.296   5.848   7.855 -0.3537 -0.1116  0.6715
  167SOPE  H11X18862   6.200   5.877   7.902 -0.5740 -1.2022  0.9146
  167SOPE  H11Y18863   6.344   5.947   7.837 -1.7753  0.5563  0.4065
  167SOPE  C31218864   6.371   5.779   7.965  0.2219  0.2937  0.1951
  167SOPE  H12X18865   6.443   5.710   7.918 -1.4183 -1.9367  0.7964
  167SOPE  H12Y18866   6.302   5.722   8.031 -2.7101  2.5552 -0.6887
  167SOPE  C31318867   6.450   5.867   8.060 -0.4642 -0.4060  0.6841
  167SOPE  H13X18868   6.376   5.909   8.132 -2.5625 -0.0871 -1.5430
  167SOPE  H13Y18869   6.484   5.959   8.006 -3.0008 -1.1674 -2.5166
  167SOPE  C31418870   6.565   5.789   8.121 -0.0788  0.4541  0.0937
  167SOPE  H14X18871   6.633   5.855   8.179 -0.5436  1.2174 -0.2079
  167SOPE  H14Y18872   6.624   5.742   8.040  0.7576  1.9725 -0.2174
  167SOPE  C31518873   6.514   5.679   8.210  0.1668  0.5433  0.8342
  167SOPE  H15X18874   6.465   5.594   8.157  1.2903  0.3609  0.0583
  167SOPE  H15Y18875   6.447   5.722   8.288  0.9764 -0.1283  1.9255
  167SOPE  C31618876   6.625   5.618   8.295  0.5759  0.6299 -0.2116
  167SOPE  H16X18877   6.692   5.700   8.330 -0.4561  1.7354 -0.7587
  167SOPE  H16Y18878   6.686   5.547   8.234  1.2696  0.3340  0.8048
  167SOPE  C31718879   6.577   5.546   8.427  0.0706  1.0547  0.2624
  167SOPE  H17X18880   6.544   5.447   8.388  0.1304  1.8772 -2.0631
  167SOPE  H17Y18881   6.486   5.597   8.465 -0.0578  2.5392 -1.8701
  167SOPE  C31818882   6.688   5.521   8.528  0.3939  0.7372  1.1823
  167SOPE  H18X18883   6.769   5.454   8.491 -0.4417  0.7298 -0.7120
  167SOPE  H18Y18884   6.656   5.463   8.617 -0.7050  1.3039  1.1691
  167SOPE  H18Z18885   6.732   5.616   8.567  1.0016  0.9730 -0.0367
  168SOPE     N18886   6.559   0.814   6.307  0.8367  0.1396  0.3271
  168SOPE   HN118887   6.543   0.754   6.390  1.2769  0.7368  0.8583
  168SOPE   HN218888   6.473   0.869   6.286 -0.1123 -0.6757  1.9481
  168SOPE   HN318889   6.591   0.761   6.223 -0.4063  0.0268 -0.0941
  168SOPE   C1218890   6.683   0.893   6.340 -0.1866 -0.4465  0.9938
  168SOPE  H12A18891   6.695   0.960   6.252 -0.9958  2.9389  3.2755
  168SOPE  H12B18892   6.764   0.819   6.358  0.3252 -0.2574 -0.4147
  168SOPE   C1118893   6.650   0.988   6.463 -0.1781  0.5531  0.6323
  168SOPE  H11A18894   6.742   1.042   6.495 -0.3481  3.3000 -2.9082
  168SOPE  H11B18895   6.628   0.913   6.542 -0.3150  0.1362  0.2003
  168SOPE     P18896   6.541   1.204   6.354  0.3842 -0.7408  0.2917
  168SOPE   O1318897   6.416   1.233   6.288 -0.0455  0.3722  0.2006
  168SOPE   O1418898   6.656   1.190   6.260  0.2946  0.1660 -0.4680
  168SOPE   O1218899   6.533   1.071   6.440  0.1465 -0.8618 -0.1219
  168SOPE   O1118900   6.575   1.324   6.455 -0.1141 -0.5624 -0.5954
  168SOPE    C118901   6.566   1.292   6.593  0.0958 -0.3777 -0.2608
  168SOPE    HA18902   6.632   1.362   6.648  1.5611 -0.9903 -1.1733
  168SOPE    HB18903   6.591   1.190   6.630  1.4141  0.4974  1.3881
  168SOPE    C218904   6.419   1.303   6.649  0.2007 -0.7257  0.0408
  168SOPE    HS18905   6.359   1.226   6.597  0.4927 -0.9030 -0.0359
  168SOPE   O2118906   6.365   1.431   6.622  0.3555 -0.2484 -0.4847
  168SOPE   C2118907   6.233   1.431   6.642  0.1751 -0.0523  0.3061
  168SOPE   O2218908   6.169   1.329   6.658 -0.1567 -0.2344  0.3272
  168SOPE   C2218909   6.182   1.574   6.648  0.2667  0.0779  0.1040
  168SOPE   H2R18910   6.179   1.617   6.545 -0.2783  0.2457  0.1833
  168SOPE   H2S18911   6.255   1.641   6.698  0.4387 -0.8687  1.1569
  168SOPE    C318912   6.418   1.266   6.808  0.5723  0.3094  0.1849
  168SOPE    HX18913   6.455   1.163   6.825 -0.5835 -0.4158 -1.4827
  168SOPE    HY18914   6.311   1.267   6.837  0.2296 -3.3753 -0.5539
  168SOPE   O3118915   6.503   1.353   6.882 -0.0570  0.2923 -0.4503
  168SOPE   C3118916   6.440   1.451   6.948 -0.6022 -0.2550 -0.1746
  168SOPE   O3218917   6.317   1.468   6.947  0.0009  0.4428 -0.7650
  168SOPE   C3218918   6.536   1.512   7.044 -0.3676 -0.3617  0.6222
  168SOPE   H2X18919   6.595   1.578   6.976 -1.6906 -0.7069 -0.9159
  168SOPE   H2Y18920   6.604   1.440   7.095  0.2703  0.2751  0.6952
  168SOPE   C2318921   6.040   1.573   6.716 -0.4603 -0.0328 -0.2086
  168SOPE   H3R18922   6.028   1.522   6.814 -2.0974  0.4368 -0.1433
  168SOPE   H3S18923   5.966   1.531   6.645 -1.6213 -0.5070  1.2381
  168SOPE   C2418924   6.012   1.724   6.744 -0.3384  0.5334  0.5295
  168SOPE   H4R18925   6.080   1.771   6.817  0.1768 -0.8596  0.9844
  168SOPE   H4S18926   6.013   1.774   6.645  0.6882  0.1935  0.3621
  168SOPE   C2518927   5.866   1.756   6.794 -0.0196  0.3158  0.5865
  168SOPE   H5R18928   5.794   1.716   6.719  1.4288  1.9280 -1.7918
  168SOPE   H5S18929   5.852   1.716   6.897 -0.3920  1.4619  0.9951
  168SOPE   C2618930   5.838   1.907   6.795 -0.5041 -0.0863  0.1249
  168SOPE   H6R18931   5.885   1.962   6.711  1.1078  1.0225  1.6670
  168SOPE   H6S18932   5.727   1.914   6.787 -0.4544  0.6553 -0.0351
  168SOPE   C2718933   5.874   1.982   6.923  0.7158 -1.1281 -0.3439
  168SOPE   H7R18934   5.807   1.973   7.011 -0.9343  0.9743 -1.3108
  168SOPE   H7S18935   5.978   1.958   6.957  1.9646  0.1153 -3.0182
  168SOPE   C2818936   5.871   2.133   6.888 -1.3528 -0.3437 -0.7066
  168SOPE   H8R18937   5.920   2.196   6.965 -2.4019  0.7413 -0.8912
  168SOPE   H8S18938   5.929   2.136   6.793  0.0466  0.0310  0.1432
  168SOPE   C2918939   5.731   2.183   6.865 -0.5032  0.4395  0.6287
  168SOPE   H9118940   5.692   2.161   6.765  1.0358  2.1338 -0.4107
  168SOPE  C21018941   5.652   2.256   6.950 -0.2034 -0.1730  0.9351
  168SOPE  H10118942   5.548   2.281   6.925  0.3632  1.3276  0.0130
  168SOPE  C21118943   5.689   2.297   7.088  0.9141  0.3675  0.2942
  168SOPE  H11R18944   5.766   2.376   7.097 -0.4599  1.6902  0.8076
  168SOPE  H11S18945   5.739   2.213   7.141  0.0716  0.6742  1.6376
  168SOPE  C21218946   5.568   2.337   7.170  0.5211 -0.5658 -0.5744
  168SOPE  H12R18947   5.499   2.251   7.185 -0.6533  0.6550  1.4160
  168SOPE  H12S18948   5.519   2.421   7.116 -0.5368 -0.3305  0.6871
  168SOPE  C21318949   5.612   2.378   7.310  0.1448 -0.2803 -0.7436
  168SOPE  H13R18950   5.674   2.468   7.287 -1.1917  0.7785 -0.2713
  168SOPE  H13S18951   5.671   2.294   7.352 -0.9195  0.5753  2.7119
  168SOPE  C21418952   5.497   2.426   7.397 -0.3611 -0.3050  0.7473
  168SOPE  H14R18953   5.410   2.358   7.395  0.3907 -1.2981 -0.8044
  168SOPE  H14S18954   5.455   2.508   7.334 -0.5837  0.8558  2.3495
  168SOPE  C21518955   5.535   2.466   7.542  0.8039  0.0689 -0.3353
  168SOPE  H15R18956   5.605   2.552   7.534 -0.4613  1.2581  0.7375
  168SOPE  H15S18957   5.585   2.376   7.583  1.6084  0.4594 -0.4439
  168SOPE  C21618958   5.414   2.511   7.620  0.6459  0.7714 -0.5063
  168SOPE  H16R18959   5.345   2.577   7.563 -1.9248 -0.9712  0.4030
  168SOPE  H16S18960   5.442   2.555   7.717 -1.3175 -1.3554  1.1314
  168SOPE  C21718961   5.333   2.388   7.657  0.2336  0.0015 -0.2601
  168SOPE  H17R18962   5.404   2.330   7.720  0.4213  1.2449  0.7301
  168SOPE  H17S18963   5.295   2.329   7.571 -1.0279 -1.8601  1.4772
  168SOPE  C21818964   5.208   2.420   7.744  0.2902 -0.3033  0.0686
  168SOPE  H18R18965   5.151   2.502   7.696 -0.9762 -0.2464  1.5736
  168SOPE  H18S18966   5.232   2.454   7.847  0.7509  0.0279 -0.1423
  168SOPE  H18T18967   5.144   2.330   7.758  0.9450 -1.1384 -2.0057
  168SOPE   C3318968   6.464   1.599   7.150  0.4628  0.3417  0.0395
  168SOPE   H3X18969   6.392   1.533   7.202  1.0086  0.0655  0.4508
  168SOPE   H3Y18970   6.402   1.676   7.099 -0.5956 -0.5325 -0.0384
  168SOPE   C3418971   6.555   1.656   7.258  0.1402 -0.0902  0.9410
  168SOPE   H4X18972   6.645   1.684   7.198 -0.4701 -0.5495 -0.2179
  168SOPE   H4Y18973   6.592   1.581   7.332  0.8537  0.0016  0.6905
  168SOPE   C3518974   6.503   1.776   7.339  0.4064 -0.3779  0.1051
  168SOPE   H5X18975   6.425   1.738   7.409  0.2247  1.1384  0.7838
  168SOPE   H5Y18976   6.430   1.836   7.281 -0.0924 -2.0419 -1.0510
  168SOPE   C3618977   6.609   1.864   7.405 -0.1178  0.0266 -0.0688
  168SOPE   H6X18978   6.684   1.897   7.331  0.2552 -1.6625 -0.4851
  168SOPE   H6Y18979   6.668   1.811   7.482 -1.2961  0.5300  1.2326
  168SOPE   C3718980   6.538   1.983   7.469  0.2545  1.0669 -0.3154
  168SOPE   H7X18981   6.470   1.930   7.539  1.6614 -0.9701 -0.4295
  168SOPE   H7Y18982   6.481   2.036   7.390  0.2466  1.9756  0.2825
  168SOPE   C3818983   6.619   2.099   7.548 -0.4250  0.6457 -0.1477
  168SOPE   H8X18984   6.706   2.118   7.483 -0.9785  0.9161 -0.8251
  168SOPE   H8Y18985   6.669   2.063   7.640 -1.2133  0.0944  0.0762
  168SOPE   C3918986   6.531   2.219   7.571 -0.0064 -0.0192 -0.2544
  168SOPE   H9X18987   6.496   2.270   7.479  0.3819 -2.1046 -1.6267
  168SOPE   H9Y18988   6.596   2.288   7.629  1.7113 -3.8496  2.8858
  168SOPE  C31018989   6.410   2.199   7.666 -0.2311 -0.2994 -0.0148
  168SOPE  H10X18990   6.349   2.121   7.617 -0.4626 -0.4159  0.4553
  168SOPE  H10Y18991   6.356   2.293   7.691  0.9834  0.2507  0.6557
  168SOPE  C31118992   6.460   2.150   7.799 -0.0839 -0.1119 -0.8604
  168SOPE  H11X18993   6.529   2.221   7.849 -0.7327 -0.4906  0.6219
  168SOPE  H11Y18994   6.513   2.054   7.785 -0.5657 -0.3516 -1.0932
  168SOPE  C31218995   6.351   2.138   7.910 -0.5006  0.0124  0.4017
  168SOPE  H12X18996   6.393   2.087   7.999 -0.3849  0.1421  0.4220
  168SOPE  H12Y18997   6.269   2.068   7.885 -0.2662 -0.0038 -0.3621
  168SOPE  C31318998   6.311   2.273   7.969  0.5132 -0.0684 -1.0439
  168SOPE  H13X18999   6.235   2.325   7.907 -1.5148  3.2912  3.6394
  168SOPE  H13Y19000   6.399   2.340   7.972  1.8153 -1.6839 -1.5998
  168SOPE  C31419001   6.250   2.251   8.114 -0.1412 -0.0614 -0.8768
  168SOPE  H14X19002   6.196   2.154   8.105  1.5233 -1.0600 -0.4334
  168SOPE  H14Y19003   6.184   2.335   8.143  2.0056  1.5141 -0.3318
  168SOPE  C31519004   6.344   2.269   8.233  0.6376 -0.3159 -0.7993
  168SOPE  H15X19005   6.334   2.369   8.280  2.9987 -0.2261 -0.3197
  168SOPE  H15Y19006   6.450   2.268   8.197  0.9891 -0.1253  0.1911
  168SOPE  C31619007   6.335   2.153   8.336  0.5296  0.1638  0.6783
  168SOPE  H16X19008   6.353   2.060   8.277 -3.0472 -0.8131  0.8759
  168SOPE  H16Y19009   6.229   2.146   8.369 -0.1449  0.4190 -1.2799
  168SOPE  C31719010   6.436   2.154   8.446  0.0728 -1.2123 -0.6042
  168SOPE  H17X19011   6.406   2.242   8.507  0.4355 -1.2638 -0.3482
  168SOPE  H17Y19012   6.539   2.180   8.413  0.6189 -1.3518  0.9130
  168SOPE  C31819013   6.443   2.018   8.524  0.1451  0.4308  0.5456
  168SOPE  H18X19014   6.482   1.937   8.458  0.3741 -0.7781  2.0892
  168SOPE  H18Y19015   6.342   1.990   8.562 -1.2372  0.0370 -3.0031
  168SOPE  H18Z19016   6.506   2.033   8.614  0.4756  0.5532  0.2957
  169SOPE     N19017   6.715   4.069   6.098 -0.1051  0.4313 -0.2954
  169SOPE   HN119018   6.779   3.991   6.071 -0.8551 -0.8970  1.5076
  169SOPE   HN219019   6.620   4.034   6.074  0.1661 -1.0555  0.6520
  169SOPE   HN319020   6.745   4.150   6.041 -0.8525  1.5519  0.8478
  169SOPE   C1219021   6.735   4.097   6.244 -0.0126  0.1523  0.3021
  169SOPE  H12A19022   6.662   4.174   6.276  1.2611  1.7924 -0.6094
  169SOPE  H12B19023   6.831   4.152   6.250 -0.0402  0.0897  2.0202
  169SOPE   C1119024   6.742   3.962   6.324 -0.3440 -0.4445 -0.5259
  169SOPE  H11A19025   6.647   3.904   6.318 -0.7632 -0.0538  1.4923
  169SOPE  H11B19026   6.746   3.996   6.430  0.2831 -0.8451 -0.4145
  169SOPE     P19027   6.999   3.867   6.346 -0.1929 -0.1737  0.3343
  169SOPE   O1319028   7.099   3.902   6.242 -0.3994  0.1166 -0.6663
  169SOPE   O1419029   7.009   3.728   6.400 -0.1754  0.0233 -0.0981
  169SOPE   O1219030   6.857   3.880   6.283  0.2538 -0.6548 -0.4509
  169SOPE   O1119031   7.006   3.979   6.462  0.5287  0.1894  0.1956
  169SOPE    C119032   7.058   4.104   6.431  0.1397 -1.0839 -0.2519
  169SOPE    HA19033   6.994   4.190   6.462  0.7421 -0.0983 -1.6440
  169SOPE    HB19034   7.067   4.128   6.323  0.2018 -0.9275 -0.2124
  169SOPE    C219035   7.196   4.132   6.503  0.2166  0.6865 -0.3854
  169SOPE    HS19036   7.272   4.064   6.459  0.3192  0.2815  0.3956
  169SOPE   O2119037   7.187   4.117   6.652  0.0511  0.4244 -0.5500
  169SOPE   C2119038   7.207   3.992   6.695  0.3647  0.1888 -0.6038
  169SOPE   O2219039   7.246   3.897   6.626  0.2850  0.2716  0.2917
  169SOPE   C2219040   7.160   3.981   6.840 -0.0841 -0.1952 -0.4712
  169SOPE   H2R19041   7.150   3.876   6.876 -0.5518 -0.0231 -0.0963
  169SOPE   H2S19042   7.059   4.025   6.850  0.2247  1.0284 -2.2205
  169SOPE    C319043   7.248   4.267   6.475 -0.3228 -0.9523  0.0339
  169SOPE    HX19044   7.163   4.328   6.513  1.2041  0.7994  0.8522
  169SOPE    HY19045   7.263   4.286   6.367  0.8218 -2.3848 -0.0868
  169SOPE   O3119046   7.358   4.309   6.556  0.1922  0.1329 -0.3888
  169SOPE   C3119047   7.476   4.288   6.487  0.4785  0.3408  0.8416
  169SOPE   O3219048   7.485   4.246   6.373  0.0015  0.0943  0.6193
  169SOPE   C3219049   7.600   4.328   6.571 -0.2865  0.3120  0.1614
  169SOPE   H2X19050   7.639   4.428   6.541  2.1123 -0.3719  0.8324
  169SOPE   H2Y19051   7.679   4.256   6.543 -2.4800 -0.9375 -3.3797
  169SOPE   C2319052   7.249   4.053   6.936 -0.2608 -0.5710 -0.1598
  169SOPE   H3R19053   7.242   4.162   6.913 -0.0148 -0.6705 -0.7078
  169SOPE   H3S19054   7.352   4.022   6.907 -0.2548  1.2667 -2.4001
  169SOPE   C2419055   7.217   4.024   7.087 -0.0108  0.1595  0.3769
  169SOPE   H4R19056   7.111   4.045   7.112  0.4810  1.5205  1.5070
  169SOPE   H4S19057   7.235   3.917   7.109 -0.1469 -0.2819 -1.4842
  169SOPE   C2519058   7.294   4.120   7.174 -0.5045 -0.7854  0.1358
  169SOPE   H5R19059   7.401   4.091   7.177 -0.4749 -0.5935  1.6805
  169SOPE   H5S19060   7.291   4.223   7.132  1.3131 -1.0728 -0.8026
  169SOPE   C2619061   7.233   4.134   7.325  0.0834 -0.0947  0.2830
  169SOPE   H6R19062   7.127   4.161   7.303 -0.7675 -2.9473  0.4061
  169SOPE   H6S19063   7.225   4.034   7.373 -2.4412  0.4862  1.2395
  169SOPE   C2719064   7.306   4.229   7.428 -0.6170  0.1363  0.0074
  169SOPE   H7R19065   7.301   4.332   7.387 -0.2265 -0.3443 -1.3108
  169SOPE   H7S19066   7.247   4.228   7.521  0.1491  0.6452  0.5125
  169SOPE   C2819067   7.446   4.182   7.475  0.6595 -0.1525  0.3066
  169SOPE   H8R19068   7.423   4.081   7.514 -0.7654  0.9154  2.3806
  169SOPE   H8S19069   7.512   4.179   7.385  0.0539 -0.1105 -0.1459
  169SOPE   C2919070   7.505   4.279   7.577  0.1476 -0.7600 -0.4437
  169SOPE   H9119071   7.545   4.377   7.548 -0.6212 -0.4998 -0.6412
  169SOPE  C21019072   7.514   4.257   7.712  0.1026 -0.3971 -0.4065
  169SOPE  H10119073   7.554   4.342   7.770  0.1672 -1.7262  1.5694
  169SOPE  C21119074   7.464   4.131   7.786 -0.3236 -0.2164 -0.0498
  169SOPE  H11R19075   7.431   4.052   7.715 -0.7747  1.1535 -1.4305
  169SOPE  H11S19076   7.378   4.170   7.843 -0.9950  0.5942 -1.5501
  169SOPE  C21219077   7.582   4.071   7.869  0.4226 -0.3968 -0.7469
  169SOPE  H12R19078   7.597   4.143   7.952  0.4421 -0.6466 -0.5333
  169SOPE  H12S19079   7.676   4.074   7.810  1.4872  1.8101  0.8949
  169SOPE  C21319080   7.549   3.927   7.930  0.3149 -0.2935 -0.0348
  169SOPE  H13R19081   7.506   3.858   7.854 -0.0116 -1.0873  0.8510
  169SOPE  H13S19082   7.472   3.930   8.010 -0.9727 -0.2017 -1.2518
  169SOPE  C21419083   7.666   3.863   7.998  0.5313  0.6623 -0.0344
  169SOPE  H14R19084   7.746   3.866   7.920 -0.7506 -1.2845 -1.5121
  169SOPE  H14S19085   7.657   3.757   8.029  0.3644  1.2842  2.2074
  169SOPE  C21519086   7.708   3.934   8.130  0.5421 -0.0876  0.0747
  169SOPE  H15R19087   7.711   4.043   8.110 -0.6466 -0.0686 -0.0805
  169SOPE  H15S19088   7.808   3.899   8.163  0.9558 -0.2415 -1.2832
  169SOPE  C21619089   7.611   3.915   8.253 -0.2586  0.1350 -0.7319
  169SOPE  H16R19090   7.617   3.810   8.288 -1.6887  0.6446  1.2095
  169SOPE  H16S19091   7.506   3.934   8.225 -0.3138 -1.9673 -2.1818
  169SOPE  C21719092   7.656   4.000   8.372  0.3955 -0.3556 -0.6009
  169SOPE  H17R19093   7.653   4.107   8.342 -2.6491 -0.5644 -1.3744
  169SOPE  H17S19094   7.758   3.962   8.396  0.0412  0.0271  1.7699
  169SOPE  C21819095   7.561   3.984   8.496 -0.2459  0.3312  0.2567
  169SOPE  H18R19096   7.515   3.884   8.507  0.8125 -0.6264 -2.8651
  169SOPE  H18S19097   7.467   4.042   8.483 -2.0626 -1.6823  3.3554
  169SOPE  H18T19098   7.609   4.025   8.587 -0.4380 -1.6871  1.3176
  169SOPE   C3319099   7.570   4.323   6.723  0.1792  0.7765 -0.1458
  169SOPE   H3X19100   7.531   4.223   6.753  2.4154 -0.4014 -0.9216
  169SOPE   H3Y19101   7.495   4.403   6.736 -1.6620 -0.1422 -3.7471
  169SOPE   C3419102   7.694   4.331   6.809 -0.1764 -0.0166 -0.2024
  169SOPE   H4X19103   7.753   4.415   6.766  0.5279 -0.6426 -0.5000
  169SOPE   H4Y19104   7.757   4.242   6.789 -1.8643 -1.1707 -0.5710
  169SOPE   C3519105   7.666   4.344   6.955 -0.1707 -0.4259  0.4586
  169SOPE   H5X19106   7.668   4.241   6.996  1.3139 -0.1912  1.0203
  169SOPE   H5Y19107   7.562   4.379   6.969  0.3742  0.6726  1.9695
  169SOPE   C3619108   7.760   4.432   7.046 -0.3473  0.1787  0.3952
  169SOPE   H6X19109   7.751   4.529   6.992  1.1119 -0.7332 -1.6142
  169SOPE   H6Y19110   7.867   4.405   7.036 -0.0816  1.5235 -0.8730
  169SOPE   C3719111   7.718   4.445   7.186 -0.3185  0.0803 -0.6308
  169SOPE   H7X19112   7.714   4.341   7.225 -1.7800  1.1681  2.4384
  169SOPE   H7Y19113   7.619   4.493   7.196 -0.0579  0.3180  0.9857
  169SOPE   C3819114   7.811   4.529   7.268 -0.5987  0.1006  0.1405
  169SOPE   H8X19115   7.916   4.497   7.251 -0.1686  2.0780 -1.3283
  169SOPE   H8Y19116   7.826   4.633   7.232 -0.0956  0.4396  1.2775
  169SOPE   C3919117   7.777   4.549   7.417 -0.8823 -0.2035 -0.5174
  169SOPE   H9X19118   7.783   4.447   7.462 -1.6992  0.3158  0.8307
  169SOPE   H9Y19119   7.671   4.582   7.421  0.4615  4.9577 -0.4020
  169SOPE  C31019120   7.866   4.639   7.503  0.2842 -0.1703  0.3235
  169SOPE  H10X19121   7.900   4.718   7.432  1.3811 -1.4370 -0.6126
  169SOPE  H10Y19122   7.959   4.586   7.532  0.5366  0.5239  0.8277
  169SOPE  C31119123   7.794   4.694   7.622 -0.3590 -0.3920 -0.4269
  169SOPE  H11X19124   7.698   4.746   7.603  0.2192  0.7041 -0.4408
  169SOPE  H11Y19125   7.867   4.765   7.667  1.4058 -2.2334 -0.2465
  169SOPE  C31219126   7.769   4.590   7.722 -0.0703  0.1824 -0.5843
  169SOPE  H12X19127   7.699   4.512   7.686 -0.7948 -0.1392  1.3852
  169SOPE  H12Y19128   7.715   4.645   7.802  2.8414 -1.2020  2.5590
  169SOPE  C31319129   7.894   4.541   7.796  0.0199 -0.0534  0.7880
  169SOPE  H13X19130   7.936   4.636   7.837 -1.8315  1.1619  0.0093
  169SOPE  H13Y19131   7.970   4.502   7.724 -1.5427 -3.4462  0.8002
  169SOPE  C31419132   7.870   4.442   7.909 -0.9233  0.8713 -0.0154
  169SOPE  H14X19133   7.974   4.416   7.937  0.7535  3.0623 -3.5201
  169SOPE  H14Y19134   7.817   4.353   7.868 -3.5579  2.5107 -0.4559
  169SOPE  C31519135   7.783   4.505   8.019 -0.7773 -0.7908 -0.0455
  169SOPE  H15X19136   7.694   4.549   7.970  0.4256  1.8084 -0.0571
  169SOPE  H15Y19137   7.842   4.582   8.074 -2.4997 -1.4841  3.0090
  169SOPE  C31619138   7.758   4.410   8.132 -0.5381  0.2696 -0.4903
  169SOPE  H16X19139   7.854   4.357   8.152  0.6810  1.8572 -1.7832
  169SOPE  H16Y19140   7.682   4.341   8.092 -0.6808  0.7401 -1.0420
  169SOPE  C31719141   7.704   4.483   8.257 -0.2364  0.5455  0.1965
  169SOPE  H17X19142   7.650   4.417   8.328  2.2047 -0.6862  1.0582
  169SOPE  H17Y19143   7.635   4.567   8.236  0.4346  1.2803  0.8259
  169SOPE  C31819144   7.817   4.541   8.330 -0.1773 -0.1717 -0.5976
  169SOPE  H18X19145   7.892   4.601   8.274 -1.0739  2.4386  0.8519
  169SOPE  H18Y19146   7.881   4.466   8.381  1.4982  1.9917  0.6848
  169SOPE  H18Z19147   7.789   4.612   8.411 -1.5031 -1.7650  0.3972
  170SOPE     N19148   2.112   4.513   6.242  0.1428  0.4600 -0.0983
  170SOPE   HN119149   2.171   4.431   6.268 -0.4950 -0.0778 -0.3222
  170SOPE   HN219150   2.141   4.586   6.309  1.3153  1.6413 -1.7990
  170SOPE   HN319151   2.016   4.477   6.258  0.1619 -0.8763 -2.4763
  170SOPE   C1219152   2.147   4.552   6.099  0.2060 -0.0075  0.6262
  170SOPE  H12A19153   2.258   4.556   6.098  0.2149 -0.1281 -0.5590
  170SOPE  H12B19154   2.104   4.652   6.076 -1.4558 -0.9955 -0.8174
  170SOPE   C1119155   2.097   4.460   5.984 -0.2013 -0.6364  0.2402
  170SOPE  H11A19156   2.128   4.508   5.889  2.3501  2.0051  2.1970
  170SOPE  H11B19157   1.986   4.453   5.988 -0.3696 -0.0943 -2.3268
  170SOPE     P19158   2.083   4.200   6.055  0.2345 -0.0310  0.3483
  170SOPE   O1319159   2.161   4.078   6.040 -0.7868  0.0012  0.1950
  170SOPE   O1419160   1.947   4.200   5.994  0.3069 -0.4296 -0.2906
  170SOPE   O1219161   2.161   4.327   5.992  0.1637  0.1471 -0.6357
  170SOPE   O1119162   2.070   4.233   6.211  0.1740  0.3236  0.7611
  170SOPE    C119163   2.012   4.147   6.306  0.2238 -0.3026  0.5328
  170SOPE    HA19164   2.025   4.039   6.287  1.0985 -0.1955  0.4896
  170SOPE    HB19165   1.902   4.164   6.298  0.5168  1.0938 -1.2211
  170SOPE    C219166   2.074   4.165   6.440  0.0750 -0.8689  0.4625
  170SOPE    HS19167   2.061   4.274   6.462  0.5884 -0.6466 -0.3325
  170SOPE   O2119168   2.214   4.123   6.437 -1.0949 -0.3396  0.2084
  170SOPE   C2119169   2.303   4.220   6.416  0.4129  0.0531 -0.7176
  170SOPE   O2219170   2.281   4.334   6.386  0.1641 -0.1432 -0.2954
  170SOPE   C2219171   2.440   4.170   6.464  0.3042 -0.0540 -0.5665
  170SOPE   H2R19172   2.497   4.152   6.371 -0.9381 -1.4513 -1.0878
  170SOPE   H2S19173   2.426   4.072   6.514 -1.0101  1.1053  1.5109
  170SOPE    C319174   1.999   4.077   6.549  0.0114  0.1346  0.2812
  170SOPE    HX19175   2.025   3.973   6.523 -1.9020 -0.0536 -1.0575
  170SOPE    HY19176   1.889   4.090   6.540 -0.1532 -0.6496  1.0544
  170SOPE   O3119177   2.040   4.133   6.683  0.7043  0.3205 -0.3029
  170SOPE   C3119178   2.102   4.048   6.763 -0.2498  0.2089 -0.1582
  170SOPE   O3219179   2.143   3.938   6.730 -0.2353 -0.2805  0.2741
  170SOPE   C3219180   2.130   4.112   6.898  0.1905 -0.7141 -0.5358
  170SOPE   H2X19181   2.032   4.138   6.944 -0.4375 -1.9277 -1.1277
  170SOPE   H2Y19182   2.196   4.200   6.885  2.7944 -2.3770  0.5978
  170SOPE   C2319183   2.502   4.270   6.561 -0.2919  0.1271  0.3717
  170SOPE   H3R19184   2.503   4.373   6.519  0.4028 -0.1354 -0.2712
  170SOPE   H3S19185   2.606   4.234   6.573 -0.2592  0.2601  0.4845
  170SOPE   C2419186   2.444   4.279   6.702  0.0077 -0.0133  0.8424
  170SOPE   H4R19187   2.345   4.329   6.703 -0.6244 -1.1400 -0.6180
  170SOPE   H4S19188   2.427   4.176   6.741  1.2086 -0.2834  0.6848
  170SOPE   C2519189   2.527   4.353   6.804  0.5990  0.3742 -0.1126
  170SOPE   H5R19190   2.623   4.300   6.821 -0.2896 -2.1334 -2.2501
  170SOPE   H5S19191   2.548   4.458   6.772  0.1595 -0.7754 -4.8004
  170SOPE   C2619192   2.449   4.363   6.934  0.3461  0.0740 -1.1288
  170SOPE   H6R19193   2.361   4.429   6.923  1.1407  1.2628 -0.6266
  170SOPE   H6S19194   2.419   4.260   6.962  2.6595 -0.8923 -1.9756
  170SOPE   C2719195   2.544   4.427   7.037 -0.5394  0.6547  0.2493
  170SOPE   H7R19196   2.625   4.355   7.060 -1.2816 -0.1680  0.3650
  170SOPE   H7S19197   2.582   4.522   6.993 -0.0480 -1.2356 -3.8165
  170SOPE   C2819198   2.470   4.451   7.179 -0.1490  0.3534  0.0197
  170SOPE   H8R19199   2.389   4.525   7.163  0.4975  1.0438 -0.0858
  170SOPE   H8S19200   2.424   4.355   7.212  0.4748 -0.7110 -2.0298
  170SOPE   C2919201   2.577   4.521   7.269  0.0627 -0.1386  0.4338
  170SOPE   H9119202   2.625   4.612   7.232 -2.0710  0.9247  0.1223
  170SOPE  C21019203   2.592   4.491   7.398  0.1787 -0.3183 -0.4629
  170SOPE  H10119204   2.672   4.549   7.449  0.1111 -1.2579  0.7656
  170SOPE  C21119205   2.528   4.391   7.482 -0.1785  0.9351  0.8209
  170SOPE  H11R19206   2.464   4.327   7.418  2.1630 -1.2701  0.5586
  170SOPE  H11S19207   2.465   4.439   7.561  0.2343  0.3054  1.5392
  170SOPE  C21219208   2.628   4.298   7.559  0.8681  0.1383  0.4229
  170SOPE  H12R19209   2.699   4.374   7.598  1.2142  1.1569 -2.0238
  170SOPE  H12S19210   2.686   4.230   7.494  2.1092  0.8308  0.7648
  170SOPE  C21319211   2.563   4.219   7.679  0.4290 -0.4208 -0.5835
  170SOPE  H13R19212   2.507   4.128   7.648 -0.9000  0.3842 -0.6209
  170SOPE  H13S19213   2.484   4.280   7.727  1.2514 -0.0261  0.3006
  170SOPE  C21419214   2.674   4.169   7.772 -0.8042  0.1751 -0.6923
  170SOPE  H14R19215   2.727   4.259   7.810 -2.4352  0.0010  2.2493
  170SOPE  H14S19216   2.742   4.100   7.718 -0.7245 -0.6757  0.4597
  170SOPE  C21519217   2.611   4.099   7.891  0.2024  0.3972  0.2864
  170SOPE  H15R19218   2.542   4.021   7.853  0.4829 -0.4896  1.5440
  170SOPE  H15S19219   2.551   4.168   7.953  0.6130 -1.1364  2.5057
  170SOPE  C21619220   2.725   4.033   7.975  0.1574  0.2302 -0.4866
  170SOPE  H16R19221   2.788   4.121   7.998  0.9105 -0.2662 -0.6293
  170SOPE  H16S19222   2.789   3.960   7.921  0.0528 -0.2304  0.0060
  170SOPE  C21719223   2.680   3.973   8.113  0.7595 -0.2587  0.7391
  170SOPE  H17R19224   2.623   3.877   8.108  0.1214  0.1517 -0.1324
  170SOPE  H17S19225   2.607   4.043   8.159 -0.5778 -0.6427 -0.6810
  170SOPE  C21819226   2.798   3.959   8.208 -0.2230 -0.4852  0.4434
  170SOPE  H18R19227   2.886   3.911   8.160  0.1164 -0.1027  0.6779
  170SOPE  H18S19228   2.758   3.908   8.299 -2.2033 -0.2974 -0.2644
  170SOPE  H18T19229   2.832   4.058   8.245  0.6794  0.2852 -2.2025
  170SOPE   C3319230   2.202   4.025   6.993 -0.7561 -0.4667 -0.1351
  170SOPE   H3X19231   2.306   4.028   6.954 -0.6092  2.4853  0.2546
  170SOPE   H3Y19232   2.162   3.921   6.987  0.4354 -0.8691 -1.8938
  170SOPE   C3419233   2.198   4.087   7.134 -0.2484 -0.2954  0.2130
  170SOPE   H4X19234   2.092   4.081   7.165 -1.5055  2.2861 -2.9875
  170SOPE   H4Y19235   2.234   4.192   7.136  1.2649 -0.7950  1.3542
  170SOPE   C3519236   2.283   4.002   7.221  0.1230  0.6607 -0.8646
  170SOPE   H5X19237   2.385   4.041   7.241  0.2593  0.1347 -0.5181
  170SOPE   H5Y19238   2.299   3.905   7.169 -0.7066 -1.3819  2.4165
  170SOPE   C3619239   2.210   3.963   7.361  0.1544  0.5447  0.9962
  170SOPE   H6X19240   2.133   3.890   7.331  0.2860  0.9319 -0.3712
  170SOPE   H6Y19241   2.157   4.057   7.388 -0.2204  0.2077  1.4563
  170SOPE   C3719242   2.303   3.914   7.473 -0.0118 -0.2448  0.5888
  170SOPE   H7X19243   2.234   3.916   7.560 -0.6741  1.4381  0.0810
  170SOPE   H7Y19244   2.377   3.992   7.499 -1.5894  0.7359  2.3519
  170SOPE   C3819245   2.367   3.778   7.456  0.0627 -0.3898 -0.2611
  170SOPE   H8X19246   2.440   3.794   7.374  1.2131  1.6637  1.0993
  170SOPE   H8Y19247   2.290   3.708   7.416 -0.4691  0.4051 -0.6591
  170SOPE   C3919248   2.442   3.727   7.581  0.1826  0.9046 -0.6470
  170SOPE   H9X19249   2.510   3.809   7.613  1.7803 -1.2020  1.7162
  170SOPE   H9Y19250   2.503   3.642   7.545  0.8424  0.8489  0.5457
  170SOPE  C31019251   2.360   3.668   7.695 -0.0998 -0.5634 -0.6891
  170SOPE  H10X19252   2.297   3.590   7.647 -0.3108  0.5322 -2.2532
  170SOPE  H10Y19253   2.289   3.751   7.718  0.4794 -0.3189  0.2522
  170SOPE  C31119254   2.424   3.622   7.825 -0.7589  0.2523 -0.1746
  170SOPE  H11X19255   2.465   3.704   7.887 -2.0032 -0.4711  1.6722
  170SOPE  H11Y19256   2.509   3.556   7.800 -0.6130  0.1886  0.4845
  170SOPE  C31219257   2.329   3.542   7.915 -0.1633 -0.4369 -0.0466
  170SOPE  H12X19258   2.337   3.440   7.871 -0.0848 -0.7165  0.6126
  170SOPE  H12Y19259   2.226   3.576   7.891  0.1843 -0.9136 -2.5008
  170SOPE  C31319260   2.376   3.551   8.056 -0.2053 -0.0710  0.2981
  170SOPE  H13X19261   2.367   3.655   8.094 -1.1013  0.1718 -0.5582
  170SOPE  H13Y19262   2.485   3.530   8.060  0.3602  2.6682  1.8398
  170SOPE  C31419263   2.299   3.456   8.150 -0.2176 -0.0024 -0.1805
  170SOPE  H14X19264   2.342   3.355   8.134  1.4121  0.9176 -2.0334
  170SOPE  H14Y19265   2.194   3.435   8.121 -0.2977  1.0938 -0.7320
  170SOPE  C31519266   2.315   3.488   8.294 -0.1931 -0.1289 -0.7274
  170SOPE  H15X19267   2.239   3.569   8.307  0.8074  0.8218 -0.6251
  170SOPE  H15Y19268   2.413   3.537   8.309  0.0528 -0.8109 -0.0589
  170SOPE  C31619269   2.311   3.365   8.385 -0.2026 -0.0261  0.0136
  170SOPE  H16X19270   2.394   3.294   8.371 -1.1903 -0.9324 -1.5218
  170SOPE  H16Y19271   2.226   3.299   8.357 -0.7692  0.8886 -0.4713
  170SOPE  C31719272   2.304   3.408   8.532  0.2956  0.5443 -1.0713
  170SOPE  H17X19273   2.210   3.463   8.551  1.1917  1.5167  0.8583
  170SOPE  H17Y19274   2.391   3.474   8.554  0.7003 -0.2627 -0.1468
  170SOPE  C31819275   2.313   3.280   8.618 -0.1638 -0.1189 -0.0048
  170SOPE  H18X19276   2.322   3.299   8.727 -1.4794 -1.2250  0.3314
  170SOPE  H18Y19277   2.401   3.219   8.588 -0.4730  0.3997 -2.1134
  170SOPE  H18Z19278   2.230   3.209   8.597  0.4937 -0.7057 -0.6481
  171SOPE     N19279   2.714   6.027   6.363  0.3818 -0.0529 -0.3924
  171SOPE   HN119280   2.812   5.997   6.380  0.8238  2.1474  1.4231
  171SOPE   HN219281   2.649   5.945   6.357  0.6485 -0.4099  1.0475
  171SOPE   HN319282   2.698   6.085   6.279 -2.0584  0.1308  0.1000
  171SOPE   C1219283   2.680   6.117   6.478  0.6313  0.1367 -0.1341
  171SOPE  H12A19284   2.711   6.065   6.571  1.8590  0.7457 -0.1715
  171SOPE  H12B19285   2.570   6.126   6.470  0.8277  1.9413 -1.7013
  171SOPE   C1119286   2.758   6.249   6.465  0.3016 -0.3022 -0.3842
  171SOPE  H11A19287   2.773   6.289   6.567 -3.3574 -2.7550  1.3183
  171SOPE  H11B19288   2.705   6.320   6.398  1.1690  1.3167  0.5833
  171SOPE     P19289   3.008   6.316   6.406  0.3884  0.4218 -0.4519
  171SOPE   O1319290   3.051   6.335   6.268 -0.1309 -1.0904  0.4101
  171SOPE   O1419291   3.102   6.256   6.503 -0.9021 -0.2054  0.2570
  171SOPE   O1219292   2.893   6.214   6.411  0.5721  0.3463  0.4799
  171SOPE   O1119293   2.956   6.450   6.475  0.5691 -0.5438  0.8349
  171SOPE    C119294   3.042   6.526   6.552 -0.3433 -0.3220 -0.2347
  171SOPE    HA19295   3.003   6.629   6.567 -2.8928 -1.3168  0.5225
  171SOPE    HB19296   3.138   6.535   6.497 -0.2681 -1.2051 -0.2709
  171SOPE    C219297   3.059   6.481   6.705  0.0548  1.0554 -0.1446
  171SOPE    HS19298   3.096   6.376   6.705 -1.4628  0.4265 -2.5545
  171SOPE   O2119299   2.931   6.488   6.768 -0.3631  0.2607  0.2745
  171SOPE   C2119300   2.909   6.398   6.858  0.6361  0.9554 -0.8413
  171SOPE   O2219301   2.973   6.293   6.884  0.3303  0.4111  0.2809
  171SOPE   C2219302   2.777   6.431   6.923  0.1218  0.8591 -0.8819
  171SOPE   H2R19303   2.731   6.331   6.933  1.2933  0.5767  3.1735
  171SOPE   H2S19304   2.714   6.504   6.866 -1.4335 -0.3731 -0.8055
  171SOPE    C319305   3.164   6.565   6.779 -0.5786  0.1762 -0.6437
  171SOPE    HX19306   3.119   6.664   6.802 -0.1209  0.4972 -1.1294
  171SOPE    HY19307   3.259   6.569   6.723 -0.4798 -2.4195 -0.8029
  171SOPE   O3119308   3.200   6.505   6.906  0.3917 -0.5384 -0.3907
  171SOPE   C3119309   3.278   6.388   6.899  0.1579  0.1457 -0.7968
  171SOPE   O3219310   3.325   6.339   6.799  0.6036  0.5929  0.0927
  171SOPE   C3219311   3.296   6.323   7.040  0.7797  0.3584 -0.3170
  171SOPE   H2X19312   3.402   6.344   7.065  0.2425  4.0064 -0.5218
  171SOPE   H2Y19313   3.283   6.214   7.026  1.6216  0.3363 -0.9933
  171SOPE   C2319314   2.810   6.475   7.063  0.4221 -0.0120  0.3305
  171SOPE   H3R19315   2.849   6.579   7.061 -2.7501  1.3015  0.8179
  171SOPE   H3S19316   2.883   6.405   7.109  0.5970  0.3161  0.5546
  171SOPE   C2419317   2.686   6.477   7.160  0.2172 -1.3515 -0.7764
  171SOPE   H4R19318   2.609   6.547   7.122  2.2059  3.1442  2.5402
  171SOPE   H4S19319   2.655   6.372   7.171  2.2230 -2.1546 -2.0866
  171SOPE   C2519320   2.742   6.538   7.290 -0.4179 -0.1789 -0.5679
  171SOPE   H5R19321   2.828   6.475   7.325  0.7528 -0.2284 -3.3059
  171SOPE   H5S19322   2.766   6.646   7.281  0.9365 -0.5556 -1.9121
  171SOPE   C2619323   2.620   6.518   7.386 -0.4519 -0.4652 -0.4963
  171SOPE   H6R19324   2.563   6.613   7.374  2.2895  1.2691 -0.6310
  171SOPE   H6S19325   2.551   6.435   7.360 -0.3884 -1.0935  1.2508
  171SOPE   C2719326   2.680   6.494   7.521  0.2873 -0.2738  0.8371
  171SOPE   H7R19327   2.738   6.399   7.523  0.1247 -0.5296 -1.9669
  171SOPE   H7S19328   2.752   6.574   7.548  0.7533 -0.6926  0.8602
  171SOPE   C2819329   2.576   6.482   7.635 -0.2190 -0.0401  0.2936
  171SOPE   H8R19330   2.511   6.395   7.614  0.4662 -0.6473  0.6225
  171SOPE   H8S19331   2.635   6.460   7.726  0.9494  0.6642 -0.2575
  171SOPE   C2919332   2.488   6.601   7.651  0.1958  0.1162  0.0580
  171SOPE   H9119333   2.422   6.609   7.564  0.4011  0.2918 -0.0813
  171SOPE  C21019334   2.485   6.693   7.748 -0.6914 -0.1478  0.1708
  171SOPE  H10119335   2.417   6.778   7.736 -0.4183  0.0745  0.1769
  171SOPE  C21119336   2.578   6.702   7.868  0.1970  0.3604  0.4569
  171SOPE  H11R19337   2.633   6.798   7.878 -0.2891  0.7022 -0.0736
  171SOPE  H11S19338   2.664   6.633   7.861  0.7536  1.1869 -1.7778
  171SOPE  C21219339   2.501   6.681   7.997  0.3834 -0.1162  0.3277
  171SOPE  H12R19340   2.429   6.764   8.014  1.0416  0.9588 -1.7097
  171SOPE  H12S19341   2.577   6.683   8.077  1.1855  2.1416 -0.4212
  171SOPE  C21319342   2.423   6.543   8.011  0.2125  0.4088  0.1278
  171SOPE  H13R19343   2.471   6.464   7.948 -2.0053 -1.7666  1.0250
  171SOPE  H13S19344   2.323   6.570   7.972  0.8904  1.5538 -0.8714
  171SOPE  C21419345   2.421   6.475   8.150 -0.0634  0.1896  0.0491
  171SOPE  H14R19346   2.434   6.547   8.233  2.2816 -0.4039  0.2555
  171SOPE  H14S19347   2.520   6.426   8.158  0.0340  0.2828 -0.5008
  171SOPE  C21519348   2.296   6.389   8.178  0.2345 -0.0079 -0.2245
  171SOPE  H15R19349   2.283   6.310   8.101  0.0566  0.2910 -0.5041
  171SOPE  H15S19350   2.206   6.452   8.158 -1.9959 -2.8404  0.2024
  171SOPE  C21619351   2.284   6.321   8.311 -0.2294 -0.0722 -0.1658
  171SOPE  H16R19352   2.180   6.292   8.338 -0.1362  0.1037  0.3926
  171SOPE  H16S19353   2.315   6.400   8.383  2.7054 -0.0948 -1.2838
  171SOPE  C21719354   2.392   6.209   8.331 -0.6235 -0.2760 -0.1156
  171SOPE  H17R19355   2.488   6.247   8.291 -0.5231 -2.4482 -2.1612
  171SOPE  H17S19356   2.373   6.124   8.262  0.2566 -1.1348  0.6684
  171SOPE  C21819357   2.406   6.159   8.477 -0.5563  0.1565 -0.5424
  171SOPE  H18R19358   2.466   6.234   8.533  0.6244  1.4565 -3.3740
  171SOPE  H18S19359   2.477   6.074   8.484  1.2066  1.6497  0.5885
  171SOPE  H18T19360   2.308   6.130   8.521 -0.7144  1.5823  0.0923
  171SOPE   C3319361   3.192   6.377   7.150 -0.1586  0.4482  0.0552
  171SOPE   H3X19362   3.086   6.349   7.132 -0.3280 -0.3771  2.0768
  171SOPE   H3Y19363   3.187   6.488   7.157 -0.8597  0.5662 -1.7944
  171SOPE   C3419364   3.216   6.301   7.274 -0.5092  0.2689 -0.2753
  171SOPE   H4X19365   3.324   6.294   7.301  0.0019 -1.3067 -2.4142
  171SOPE   H4Y19366   3.179   6.198   7.255 -0.5898  0.4027 -0.8883
  171SOPE   C3519367   3.135   6.353   7.397 -0.1885 -0.2028 -0.2005
  171SOPE   H5X19368   3.026   6.357   7.378 -0.2247 -0.4355 -0.0410
  171SOPE   H5Y19369   3.167   6.459   7.413  1.8819 -0.6898 -0.7182
  171SOPE   C3619370   3.157   6.290   7.533  0.3959 -0.2682 -0.0692
  171SOPE   H6X19371   3.251   6.235   7.510 -0.3638 -1.3804 -0.5689
  171SOPE   H6Y19372   3.076   6.219   7.559 -0.4797  0.9886  0.8011
  171SOPE   C3719373   3.183   6.402   7.633  0.1885  0.4065 -1.0883
  171SOPE   H7X19374   3.091   6.462   7.643  1.1286  1.6357  0.6144
  171SOPE   H7Y19375   3.261   6.473   7.598  0.6938 -0.6032 -2.0913
  171SOPE   C3819376   3.223   6.355   7.772  0.3206 -0.3831 -0.0902
  171SOPE   H8X19377   3.310   6.286   7.767  0.3307 -0.4860  1.0831
  171SOPE   H8Y19378   3.135   6.298   7.808  0.5791  0.3629  1.8500
  171SOPE   C3919379   3.254   6.474   7.869 -0.3216 -0.7158 -0.2368
  171SOPE   H9X19380   3.179   6.556   7.864 -0.9573 -1.3608 -3.5442
  171SOPE   H9Y19381   3.353   6.515   7.841 -0.5491 -0.2613 -0.3792
  171SOPE  C31019382   3.277   6.421   8.017 -0.0254  0.0950 -0.1000
  171SOPE  H10X19383   3.350   6.337   8.015  0.8317  0.6838  2.7817
  171SOPE  H10Y19384   3.184   6.368   8.045  0.3455 -0.2723  0.4526
  171SOPE  C31119385   3.318   6.524   8.126 -0.4217  0.4518 -0.5541
  171SOPE  H11X19386   3.226   6.584   8.138 -1.7825 -1.2581 -1.9489
  171SOPE  H11Y19387   3.384   6.604   8.087 -0.4362  1.6979  1.7824
  171SOPE  C31219388   3.361   6.465   8.262 -0.3150 -0.4477  0.1985
  171SOPE  H12X19389   3.400   6.547   8.326 -1.3772 -0.2847  0.6490
  171SOPE  H12Y19390   3.439   6.387   8.250  0.3401  0.2863 -0.4146
  171SOPE  C31319391   3.242   6.412   8.343 -0.3598  0.5778  0.6854
  171SOPE  H13X19392   3.210   6.316   8.295  0.8434  0.3789  0.2266
  171SOPE  H13Y19393   3.154   6.474   8.371 -0.9193 -0.4941  1.3874
  171SOPE  C31419394   3.299   6.368   8.482  0.4077 -0.7343 -0.2209
  171SOPE  H14X19395   3.381   6.297   8.463 -0.5633 -1.5827 -1.4562
  171SOPE  H14Y19396   3.205   6.315   8.511 -1.1768  1.6796 -0.6045
  171SOPE  C31519397   3.301   6.476   8.593  0.2125  0.4456 -0.6243
  171SOPE  H15X19398   3.212   6.541   8.582  0.3025  0.9031  1.0640
  171SOPE  H15Y19399   3.389   6.541   8.575  0.2086  0.2154 -1.5286
  171SOPE  C31619400   3.298   6.419   8.738 -0.2247 -0.7529  0.3928
  171SOPE  H16X19401   3.219   6.341   8.748 -1.5724  0.4685 -0.2689
  171SOPE  H16Y19402   3.282   6.510   8.800  0.7390  0.3772 -0.9472
  171SOPE  C31719403   3.428   6.346   8.777  0.0107 -0.0675 -0.9469
  171SOPE  H17X19404   3.494   6.433   8.800 -2.1429  1.4093 -0.0586
  171SOPE  H17Y19405   3.472   6.311   8.681 -2.5303  0.2780 -2.3304
  171SOPE  C31819406   3.408   6.237   8.879  0.2936  0.2650 -0.0606
  171SOPE  H18X19407   3.502   6.184   8.905  0.4495  1.3242  1.6247
  171SOPE  H18Y19408   3.343   6.156   8.839 -1.6092  1.1165  1.1244
  171SOPE  H18Z19409   3.347   6.271   8.965  0.5518  1.1673 -0.2233
  172SOPE     N19410   3.805   1.041   6.282 -0.4445  0.2442 -0.2530
  172SOPE   HN119411   3.893   0.999   6.245  0.7399  1.9878  0.4296
  172SOPE   HN219412   3.723   1.009   6.226 -0.4871  0.5137 -0.3457
  172SOPE   HN319413   3.811   1.145   6.273 -1.5406  0.2802 -0.7835
  172SOPE   C1219414   3.784   1.033   6.433  0.1355  0.0721 -0.0214
  172SOPE  H12A19415   3.732   0.938   6.458 -0.5495  0.6971  1.0360
  172SOPE  H12B19416   3.711   1.111   6.463 -0.4592  0.8444 -3.1578
  172SOPE   C1119417   3.910   1.047   6.514 -0.2508  0.3485 -0.0617
  172SOPE  H11A19418   3.900   1.035   6.624 -0.1912 -1.8764 -0.2478
  172SOPE  H11B19419   3.937   1.152   6.491 -3.4070  1.1804 -0.4982
  172SOPE     P19420   4.121   0.950   6.375 -0.1135  0.0910  0.3818
  172SOPE   O1319421   4.085   1.038   6.267 -0.1844 -0.2715  0.1159
  172SOPE   O1419422   4.172   0.818   6.337  0.2816  0.2135  0.3383
  172SOPE   O1219423   3.998   0.936   6.472  0.7432  0.2168  0.9831
  172SOPE   O1119424   4.222   1.018   6.474 -0.0043  0.3604  0.1172
  172SOPE    C119425   4.212   0.991   6.617  0.2861 -0.5547 -0.1387
  172SOPE    HA19426   4.118   0.949   6.657  1.0576 -1.1813  1.0747
  172SOPE    HB19427   4.232   1.083   6.675 -0.3904  0.0820 -0.8908
  172SOPE    C219428   4.323   0.896   6.674 -0.4729 -0.2976  0.0630
  172SOPE    HS19429   4.309   0.798   6.624 -1.7309  0.1697 -0.5450
  172SOPE   O2119430   4.312   0.888   6.812  0.0522  0.3385 -0.1011
  172SOPE   C2119431   4.228   0.790   6.863  0.1428 -0.0887  0.1657
  172SOPE   O2219432   4.139   0.729   6.804 -0.3063  0.3120 -0.2060
  172SOPE   C2219433   4.248   0.774   7.012  0.9656 -0.0910 -0.1446
  172SOPE   H2R19434   4.153   0.807   7.060 -0.0360  0.9998 -2.7105
  172SOPE   H2S19435   4.331   0.842   7.042  0.4871  0.3509  0.2036
  172SOPE    C319436   4.465   0.945   6.641 -0.3868 -0.4586 -0.2902
  172SOPE    HX19437   4.457   1.053   6.667 -0.7201 -0.6273  0.3403
  172SOPE    HY19438   4.487   0.940   6.533 -2.2055 -3.5009 -0.6538
  172SOPE   O3119439   4.561   0.882   6.724 -0.1242 -0.7972  0.0989
  172SOPE   C3119440   4.649   0.966   6.779 -0.5615  0.8745 -0.5664
  172SOPE   O3219441   4.675   1.082   6.746 -0.3077 -0.7525 -0.2081
  172SOPE   C3219442   4.710   0.897   6.906  0.0581 -0.3153 -0.1501
  172SOPE   H2X19443   4.783   0.823   6.865  0.4157  0.4929 -0.9978
  172SOPE   H2Y19444   4.628   0.856   6.968 -0.9757  0.1020 -1.2140
  172SOPE   C2319445   4.302   0.637   7.063  0.6522 -0.7579 -0.2481
  172SOPE   H3R19446   4.397   0.625   7.006  0.8183  1.8964 -0.6515
  172SOPE   H3S19447   4.224   0.564   7.034 -1.8720  2.5533 -2.6347
  172SOPE   C2419448   4.332   0.643   7.211  0.7656 -0.4876  0.1601
  172SOPE   H4R19449   4.391   0.555   7.245  0.5560  0.2398  2.5950
  172SOPE   H4S19450   4.384   0.738   7.236 -1.3723  0.8605 -0.2426
  172SOPE   C2519451   4.199   0.660   7.293  0.1668  0.3706  0.4450
  172SOPE   H5R19452   4.181   0.768   7.311  1.1001  0.6103  0.0057
  172SOPE   H5S19453   4.114   0.613   7.240 -0.1306 -1.0314  2.0807
  172SOPE   C2619454   4.220   0.599   7.433 -0.0413  0.5288  0.3703
  172SOPE   H6R19455   4.228   0.488   7.429 -4.7269  0.0472 -1.8238
  172SOPE   H6S19456   4.316   0.642   7.470 -0.1024  0.3927  0.6851
  172SOPE   C2719457   4.115   0.627   7.534 -0.0272 -0.7890  0.2168
  172SOPE   H7R19458   4.097   0.736   7.542 -1.1187 -0.6854 -2.5034
  172SOPE   H7S19459   4.024   0.591   7.480 -0.7832 -0.1304  1.0272
  172SOPE   C2819460   4.126   0.536   7.654 -0.3588 -0.0074 -0.5192
  172SOPE   H8R19461   4.029   0.542   7.708 -0.1611  0.2522 -0.1936
  172SOPE   H8S19462   4.135   0.432   7.616  2.1046  0.1410 -0.4984
  172SOPE   C2919463   4.243   0.575   7.745  0.3998 -0.2730  0.3972
  172SOPE   H9119464   4.341   0.592   7.698 -0.0389 -1.4051 -1.0109
  172SOPE  C21019465   4.235   0.571   7.875  0.7537 -0.4906 -1.1159
  172SOPE  H10119466   4.326   0.599   7.930  0.5063 -1.6781 -0.0644
  172SOPE  C21119467   4.114   0.538   7.965  0.4658 -0.3499 -0.6592
  172SOPE  H11R19468   4.063   0.441   7.946  0.3101 -0.3194 -0.3916
  172SOPE  H11S19469   4.032   0.609   7.938  2.0656  1.1530 -1.7946
  172SOPE  C21219470   4.147   0.547   8.117 -0.0029 -0.0773  0.0940
  172SOPE  H12R19471   4.242   0.492   8.132  0.3588  0.0944 -1.4388
  172SOPE  H12S19472   4.070   0.504   8.184 -0.2161  1.6039  0.9933
  172SOPE  C21319473   4.179   0.687   8.174  0.4033  0.1290  1.3222
  172SOPE  H13R19474   4.105   0.762   8.141 -0.4961 -0.9839  0.7663
  172SOPE  H13S19475   4.266   0.715   8.110 -0.3430 -0.4098  0.0208
  172SOPE  C21419476   4.208   0.693   8.326  0.0943 -0.0977 -0.1006
  172SOPE  H14R19477   4.264   0.601   8.354 -0.4114  0.1040  1.6844
  172SOPE  H14S19478   4.118   0.685   8.390  1.0653  3.2939  1.9452
  172SOPE  C21519479   4.293   0.816   8.371 -0.0621  0.3787 -0.1714
  172SOPE  H15R19480   4.383   0.808   8.306  0.0722 -0.5590  0.1125
  172SOPE  H15S19481   4.331   0.793   8.472 -1.2599  4.2328  1.3484
  172SOPE  C21619482   4.223   0.950   8.368  0.2399  0.0245 -0.1077
  172SOPE  H16R19483   4.117   0.937   8.396 -0.2335 -1.1587 -2.2248
  172SOPE  H16S19484   4.221   1.003   8.270  0.8912  1.1245  0.4498
  172SOPE  C21719485   4.282   1.054   8.466 -0.2948  0.2477 -0.6031
  172SOPE  H17R19486   4.381   1.092   8.434 -1.1509  2.1120 -1.1727
  172SOPE  H17S19487   4.296   1.001   8.562 -0.4340  0.5610 -0.4099
  172SOPE  C21819488   4.189   1.171   8.476 -0.1170  0.3830 -0.6152
  172SOPE  H18R19489   4.236   1.263   8.518  1.4298 -1.2098  1.2851
  172SOPE  H18S19490   4.110   1.165   8.554  1.5535  1.0514  1.1993
  172SOPE  H18T19491   4.137   1.194   8.380 -1.5483  0.4252  0.1412
  172SOPE   C3319492   4.803   1.003   6.992  0.0335 -0.1638  0.4415
  172SOPE   H3X19493   4.735   1.087   7.019 -2.1403 -1.3746 -0.9150
  172SOPE   H3Y19494   4.885   1.038   6.926 -0.3653 -2.3423 -1.3211
  172SOPE   C3419495   4.865   0.939   7.118 -0.4366 -0.2852 -0.2983
  172SOPE   H4X19496   4.951   0.894   7.065 -0.2450 -0.9201  0.5376
  172SOPE   H4Y19497   4.805   0.857   7.161  1.7630 -3.3602 -2.6273
  172SOPE   C3519498   4.900   1.046   7.222 -0.2330 -0.2277  0.4895
  172SOPE   H5X19499   4.806   1.089   7.265 -0.3732 -0.9736  0.9547
  172SOPE   H5Y19500   4.956   1.128   7.173 -4.7131  2.3743 -0.8962
  172SOPE   C3619501   4.972   0.998   7.344 -1.4777 -0.5752  0.8230
  172SOPE   H6X19502   4.969   1.083   7.415 -1.4663 -0.4242  0.6416
  172SOPE   H6Y19503   5.079   0.978   7.324 -0.0772  2.3138  4.3298
  172SOPE   C3719504   4.917   0.868   7.397  0.0439  1.0039  0.0982
  172SOPE   H7X19505   4.940   0.788   7.324 -1.0733  1.6987 -1.0594
  172SOPE   H7Y19506   4.807   0.868   7.415  0.3551  0.8733  2.4067
  172SOPE   C3819507   4.992   0.821   7.523 -0.2225 -0.6349 -0.1375
  172SOPE   H8X19508   5.102   0.824   7.506  0.0690 -2.2410  1.2800
  172SOPE   H8Y19509   4.962   0.715   7.537 -1.5612 -0.0535  1.8195
  172SOPE   C3919510   4.956   0.895   7.652 -0.3178  0.2018 -0.5443
  172SOPE   H9X19511   4.847   0.917   7.661 -0.2515  1.9570 -2.9212
  172SOPE   H9Y19512   5.003   0.994   7.635 -0.9987  0.3537 -1.6071
  172SOPE  C31019513   5.012   0.824   7.779 -0.3737  0.0510  0.4080
  172SOPE  H10X19514   5.113   0.780   7.769 -0.5822 -0.3618  0.0928
  172SOPE  H10Y19515   4.939   0.741   7.794 -0.4994  0.1279  0.2301
  172SOPE  C31119516   5.026   0.917   7.897 -0.6008  0.4027  0.5215
  172SOPE  H11X19517   4.931   0.952   7.941 -0.8201  0.8731 -0.3144
  172SOPE  H11Y19518   5.077   1.012   7.873 -0.7319 -0.0115 -1.5918
  172SOPE  C31219519   5.102   0.853   8.017  0.0113  0.3535  0.6911
  172SOPE  H12X19520   5.128   0.931   8.092 -0.6189  0.0840  1.2013
  172SOPE  H12Y19521   5.197   0.820   7.970  0.1923  1.1784  0.4576
  172SOPE  C31319522   5.027   0.742   8.085  0.2891  0.3596  0.4325
  172SOPE  H13X19523   5.081   0.714   8.178  0.8965  0.4907  0.1221
  172SOPE  H13Y19524   5.009   0.664   8.007 -2.0192  1.9880 -0.7730
  172SOPE  C31419525   4.884   0.779   8.137 -0.0370  0.2624 -0.2604
  172SOPE  H14X19526   4.826   0.817   8.050  0.5257  0.7930 -0.4086
  172SOPE  H14Y19527   4.905   0.862   8.208  2.5084 -0.6425  0.1416
  172SOPE  C31519528   4.821   0.659   8.204 -0.4351 -0.1221 -0.1773
  172SOPE  H15X19529   4.885   0.619   8.285 -0.3272 -2.5750 -1.3702
  172SOPE  H15Y19530   4.817   0.573   8.134 -0.5940 -0.8877  0.7482
  172SOPE  C31619531   4.679   0.683   8.262 -0.3153  0.0054  1.1704
  172SOPE  H16X19532   4.627   0.588   8.285  0.4738 -1.0614 -1.1541
  172SOPE  H16Y19533   4.623   0.734   8.180  2.4527  4.0037  1.4977
  172SOPE  C31719534   4.665   0.774   8.385  0.4553  0.6804 -0.0063
  172SOPE  H17X19535   4.568   0.753   8.436  1.7495  1.1954  2.8435
  172SOPE  H17Y19536   4.667   0.882   8.361 -0.4515  0.5559 -0.6941
  172SOPE  C31819537   4.774   0.760   8.497 -0.8395 -0.5862  0.0268
  172SOPE  H18X19538   4.755   0.821   8.588  2.2064 -1.7219  1.5606
  172SOPE  H18Y19539   4.866   0.794   8.444 -0.0808 -0.0002  1.6455
  172SOPE  H18Z19540   4.788   0.654   8.525 -1.2351 -0.9672 -1.1479
  173SAPI   C1219541   5.861   3.494  10.805  0.4063  0.2474  0.0201
  173SAPI    H219542   5.815   3.409  10.751 -0.6990  0.9180 -0.1370
  173SAPI    O219543   5.765   3.601  10.786  0.0021 -0.3388  0.2613
  173SAPI   HO219544   5.676   3.569  10.769 -0.0545 -0.1195  0.1414
  173SAPI   C1319545   5.864   3.440  10.947  0.1049  0.0250 -0.8732
  173SAPI    H319546   5.930   3.351  10.958 -3.2271 -2.4121  1.5628
  173SAPI    O319547   5.733   3.385  10.989 -0.4594  0.2983  0.0031
  173SAPI   HO319548   5.661   3.450  10.989 -1.1676 -0.3373  3.1468
  173SAPI   C1419549   5.919   3.550  11.046  0.3368  0.0753  0.2929
  173SAPI    H419550   5.850   3.636  11.049 -1.2097 -1.1275  0.2648
  173SAPI    O419551   5.926   3.499  11.184  0.0681 -0.2288 -0.6176
  173SAPI   HO419552   5.902   3.406  11.182 -1.2730  0.0940 -2.6179
  173SAPI   C1519553   6.051   3.594  11.001 -0.4445  0.0722  0.7751
  173SAPI    H519554   6.115   3.505  11.018 -0.1524 -0.2534 -1.6928
  173SAPI    O519555   6.098   3.695  11.090  0.4092 -0.4581  0.5680
  173SAPI   HO519556   6.027   3.758  11.085 -1.7241 -2.6061  1.7793
  173SAPI   C1619557   6.052   3.640  10.855 -0.3619  0.4248 -0.3701
  173SAPI    H619558   5.985   3.726  10.835  0.3503  0.8823 -0.8226
  173SAPI    O619559   6.185   3.689  10.826 -0.1308 -0.2383  0.3829
  173SAPI   HO619560   6.252   3.645  10.879  0.9055  1.7467  0.8056
  173SAPI   C1119561   6.001   3.520  10.769  0.3008  0.2279 -0.3413
  173SAPI    H119562   6.062   3.432  10.802  0.3114  0.8161  1.2692
  173SAPI     P19563   6.029   3.401  10.524 -0.0469  0.4741 -0.3335
  173SAPI   O1319564   6.116   3.299  10.589 -1.1066 -0.1156 -0.4253
  173SAPI   O1419565   6.065   3.448  10.389 -0.4447  0.0436  0.4607
  173SAPI   O1219566   6.016   3.539  10.629 -0.3246 -0.1644  0.1426
  173SAPI   O1119567   5.881   3.337  10.523  0.0841  0.0137  0.6283
  173SAPI    C119568   5.768   3.422  10.492  0.2015  0.1667 -0.5313
  173SAPI    HA19569   5.702   3.408  10.580  1.6838  3.5174  1.3187
  173SAPI    HB19570   5.791   3.531  10.490 -0.0228  0.2643  0.9794
  173SAPI    C219571   5.704   3.388  10.356  0.5861  0.4950  0.4634
  173SAPI    HS19572   5.697   3.278  10.343  0.5351  0.5305  0.1921
  173SAPI   O2119573   5.782   3.446  10.249 -0.4299 -0.2764  0.0726
  173SAPI   C2119574   5.872   3.356  10.185  0.2542 -0.5062 -1.0725
  173SAPI   O2219575   5.877   3.238  10.212  0.1065  0.2670 -0.1870
  173SAPI   C2219576   5.956   3.426  10.083 -0.0268  0.3369  0.4093
  173SAPI   H2R19577   6.001   3.506  10.146 -1.3128 -0.1151  1.9661
  173SAPI   H2S19578   6.036   3.356  10.050 -0.9751 -0.7064  0.2494
  173SAPI    C319579   5.559   3.446  10.366 -0.9552 -0.0202 -0.1842
  173SAPI    HX19580   5.571   3.552  10.397 -1.3019 -0.2285  0.6977
  173SAPI    HY19581   5.503   3.405  10.453 -1.4514  2.3254  0.6755
  173SAPI   O3119582   5.493   3.422  10.247  0.7866 -0.4524  0.2271
  173SAPI   C3119583   5.504   3.521  10.159  0.0433 -0.0432  1.1068
  173SAPI   O3219584   5.545   3.631  10.179  0.3144 -0.5982 -0.5842
  173SAPI   C3219585   5.439   3.482  10.031  0.3163  0.0352  0.0550
  173SAPI   H2X19586   5.328   3.482  10.045  0.1781  1.2719 -0.9368
  173SAPI   H2Y19587   5.479   3.383   9.999  0.2173  0.6502 -2.0705
  173SAPI   C2319588   5.874   3.479   9.964 -0.1019 -0.1491  0.9324
  173SAPI   H3R19589   5.790   3.534  10.011  1.0547  0.5150  2.2881
  173SAPI   H3S19590   5.834   3.405   9.891 -0.5288  0.9751  0.0071
  173SAPI   C2419591   5.953   3.590   9.887 -0.0238 -0.2818 -0.3099
  173SAPI   H4R19592   5.977   3.670   9.960 -1.0620 -0.7444  0.5537
  173SAPI   H4S19593   5.880   3.647   9.826  0.6539  2.5022  1.3125
  173SAPI   C2519594   6.068   3.553   9.798 -1.0030 -0.1404  0.1045
  173SAPI   H5R19595   6.148   3.493   9.844 -2.1801 -1.4775  0.4670
  173SAPI   C2619596   6.077   3.565   9.664 -0.5107 -0.6434 -0.6107
  173SAPI   H6R19597   6.170   3.535   9.614 -0.2786 -0.0282 -0.5594
  173SAPI   C2719598   5.974   3.631   9.572 -1.0389 -0.6820  0.1596
  173SAPI   H7R19599   6.014   3.663   9.473  0.2867 -0.8842  0.6070
  173SAPI   H7S19600   5.944   3.729   9.615  1.4904  0.7657 -1.1160
  173SAPI   C2819601   5.856   3.542   9.553 -0.2049  0.2001  0.9430
  173SAPI   H8R19602   5.828   3.491   9.647 -0.5440  1.7943  1.7439
  173SAPI   C2919603   5.787   3.529   9.440  0.4373  0.1180  0.3809
  173SAPI   H9R19604   5.708   3.453   9.439  0.3212  0.2390  0.2674
  173SAPI  C21019605   5.806   3.609   9.312 -0.1014 -0.0162  0.4548
  173SAPI  H10R19606   5.816   3.717   9.336 -1.0749 -0.1187  1.3802
  173SAPI  H10S19607   5.714   3.592   9.252 -0.8929 -0.2326  1.6979
  173SAPI  C21119608   5.924   3.562   9.225 -0.1456 -0.0661  0.0529
  173SAPI  H11R19609   5.953   3.457   9.242 -0.6656 -0.3245 -0.6026
  173SAPI  C21219610   5.991   3.638   9.130  0.7022 -0.3359  0.0932
  173SAPI  H12R19611   6.056   3.586   9.057  0.6149 -1.3985  0.7479
  173SAPI  C21319612   5.963   3.778   9.090  0.2988  0.5943  0.7850
  173SAPI  H13R19613   5.892   3.832   9.156 -1.3824 -1.7054  0.9870
  173SAPI  H13S19614   5.911   3.768   8.992  1.5567  0.7341  0.0760
  173SAPI  C21419615   6.091   3.862   9.066  0.3790 -0.1058 -0.2535
  173SAPI  H14R19616   6.181   3.804   9.091  1.8107  0.7265 -2.9994
  173SAPI  C21519617   6.101   3.977   8.997 -0.0056  0.2358 -0.0644
  173SAPI  H15R19618   6.196   4.033   8.998 -0.1777  0.6599 -2.2754
  173SAPI  C21619619   5.991   4.043   8.920  0.2295 -0.0372  0.0954
  173SAPI  H16R19620   5.952   4.136   8.966  0.7098  0.3775 -0.3307
  173SAPI  H16S19621   5.912   3.967   8.902 -0.1877  0.2767  0.5512
  173SAPI  C21719622   6.050   4.080   8.784 -0.3287  0.2298  1.0350
  173SAPI  H17R19623   6.146   4.134   8.794  0.2388  0.0927 -2.4347
  173SAPI  H17S19624   5.991   4.160   8.733  0.4550  0.7022  0.8540
  173SAPI  C21819625   6.072   3.957   8.690 -0.4466 -0.7608  0.5561
  173SAPI  H18R19626   5.974   3.907   8.675 -1.2692  0.8954  0.0828
  173SAPI  H18S19627   6.138   3.879   8.732  0.8886  0.0987  0.1114
  173SAPI  C21919628   6.130   4.007   8.554  0.5357  0.2363  0.4238
  173SAPI  H19R19629   6.236   4.039   8.565  0.9754 -0.8158 -0.4963
  173SAPI  H19S19630   6.075   4.097   8.521 -1.0116 -0.5642  0.7095
  173SAPI  C22019631   6.115   3.909   8.440  0.1502  0.3577  0.1134
  173SAPI  H20R19632   6.179   3.821   8.459  0.6915  0.3964 -1.4306
  173SAPI  H20S19633   6.161   3.956   8.350 -0.5497 -1.0720 -1.0320
  173SAPI  H20T19634   6.009   3.888   8.414  0.2492 -1.0480  0.7652
  173SAPI   C3319635   5.472   3.588   9.930  0.1266  0.2182 -0.0338
  173SAPI   H3X19636   5.574   3.631   9.935  0.2057  0.1136 -0.7052
  173SAPI   H3Y19637   5.393   3.667   9.936  0.6940  0.8062 -0.2065
  173SAPI   C3419638   5.447   3.550   9.780 -0.2064  0.1120  0.4065
  173SAPI   H4X19639   5.361   3.481   9.780  0.2160 -0.4490 -0.6822
  173SAPI   H4Y19640   5.527   3.488   9.734 -0.3633 -1.5212  2.2419
  173SAPI   C3519641   5.422   3.676   9.696 -0.2204  0.5569 -1.0057
  173SAPI   H5X19642   5.493   3.757   9.725  0.1114  0.4985 -1.6533
  173SAPI   H5Y19643   5.321   3.714   9.724 -1.1575 -2.4910  0.0849
  173SAPI   C3619644   5.439   3.638   9.545 -0.4751 -0.1968 -0.5592
  173SAPI   H6X19645   5.362   3.562   9.520 -0.1348 -1.4773  1.9425
  173SAPI   H6Y19646   5.545   3.607   9.532 -0.5108 -0.4554 -0.2299
  173SAPI   C3719647   5.406   3.762   9.450 -0.0576  0.0036 -0.5444
  173SAPI   H7X19648   5.458   3.852   9.489 -0.9343 -0.6354  2.2636
  173SAPI   H7Y19649   5.300   3.797   9.442  0.5057  1.6611 -1.2493
  173SAPI   C3819650   5.445   3.736   9.306  0.4070  0.1469 -0.3001
  173SAPI   H8X19651   5.375   3.655   9.275  0.2839  0.4132 -0.7320
  173SAPI   H8Y19652   5.548   3.695   9.306 -0.3498 -1.8757  0.1639
  173SAPI   C3919653   5.440   3.860   9.222 -0.5286  0.6757  0.3535
  173SAPI   H9X19654   5.532   3.916   9.250 -1.0830  0.1578  3.5291
  173SAPI   H9Y19655   5.354   3.920   9.257 -1.6409 -2.2566  3.0905
  173SAPI  C31019656   5.427   3.817   9.073  0.2857 -0.3860  0.0896
  173SAPI  H10X19657   5.329   3.780   9.036 -0.2422  1.2412 -0.2003
  173SAPI  H10Y19658   5.490   3.728   9.051 -1.8950 -1.8924 -0.3307
  173SAPI  C31119659   5.462   3.934   8.981 -0.4389 -0.3914 -0.0046
  173SAPI  H11X19660   5.384   4.012   8.998  0.4609  1.4405 -3.4861
  173SAPI  H11Y19661   5.441   3.896   8.879  1.2669 -1.1886 -0.0947
  173SAPI  C31219662   5.597   3.991   8.994  0.4664  0.3096 -0.2584
  173SAPI  H12X19663   5.676   3.916   9.013  1.2120  1.4461  1.3730
  173SAPI  H12Y19664   5.606   4.043   9.092 -1.7927 -0.0064  0.1768
  173SAPI  C31319665   5.634   4.078   8.865  0.0110 -0.3987 -0.7856
  173SAPI  H13X19666   5.737   4.112   8.888 -0.0858 -0.1127 -0.7736
  173SAPI  H13Y19667   5.563   4.164   8.865 -0.5042 -0.8180 -1.2821
  173SAPI  C31419668   5.621   4.017   8.727  0.2797 -0.9743 -0.2463
  173SAPI  H14X19669   5.520   3.970   8.725 -0.0117 -0.4719  1.1794
  173SAPI  H14Y19670   5.692   3.932   8.722  0.9557 -0.5424  1.3262
  173SAPI  C31519671   5.641   4.107   8.604  0.2683 -0.2087 -0.0222
  173SAPI  H15X19672   5.727   4.176   8.621 -0.7038  0.6274  1.8798
  173SAPI  H15Y19673   5.552   4.171   8.588 -0.3319 -1.3756 -1.6304
  173SAPI  C31619674   5.644   4.020   8.474  0.7096 -0.7199 -0.5193
  173SAPI  H16X19675   5.540   3.985   8.456 -0.0631  1.7579 -1.3721
  173SAPI  H16Y19676   5.723   3.942   8.485  0.2050 -1.0883  0.6734
  173SAPI  C31719677   5.676   4.103   8.353 -0.6042  0.0841 -0.0287
  173SAPI  H17X19678   5.600   4.183   8.341  0.6590  1.1053 -1.7974
  173SAPI  H17Y19679   5.661   4.039   8.263  0.4006 -0.9458  0.5168
  173SAPI  C31819680   5.814   4.165   8.342 -0.8664  1.2085  0.0481
  173SAPI  H18X19681   5.825   4.238   8.425 -0.8174 -1.9723  3.0180
  173SAPI  H18Y19682   5.815   4.229   8.251  1.7580  1.2748  0.0501
  173SAPI  H18Z19683   5.888   4.083   8.342 -1.3821  0.7257  1.0889
  174SAPI   C1219684   2.315   3.043  10.425  0.8460 -0.3255 -0.2892
  174SAPI    H219685   2.420   3.072  10.405  0.7592  0.8360  0.8488
  174SAPI    O219686   2.237   3.047  10.308  0.3821  0.1095  0.3316
  174SAPI   HO219687   2.240   3.140  10.284  1.6739  0.8016  2.8325
  174SAPI   C1319688   2.317   2.906  10.480 -0.3450 -0.1282 -0.1759
  174SAPI    H319689   2.387   2.908  10.566 -0.2339 -0.5490 -0.2535
  174SAPI    O319690   2.385   2.810  10.397  0.2861  0.0239  0.1845
  174SAPI   HO319691   2.422   2.854  10.320 -0.5110 -2.1221 -1.5254
  174SAPI   C1419692   2.183   2.859  10.529 -0.0016  0.5960  0.1432
  174SAPI    H419693   2.107   2.873  10.449 -0.6191  0.3952  0.6898
  174SAPI    O419694   2.193   2.724  10.570 -0.2609 -0.3459 -0.0836
  174SAPI   HO419695   2.099   2.703  10.572 -0.7933  1.5498 -1.9037
  174SAPI   C1519696   2.143   2.955  10.631  0.6298  0.2718 -0.5495
  174SAPI    H519697   2.223   2.957  10.708 -0.3806  1.2372  0.5173
  174SAPI    O519698   2.024   2.907  10.704  0.2058 -0.4097  1.3162
  174SAPI   HO519699   1.959   2.955  10.652  1.8941  1.8298  1.0624
  174SAPI   C1619700   2.129   3.098  10.585 -0.0779 -0.3041 -0.4542
  174SAPI    H619701   2.062   3.113  10.498 -1.8099 -1.3727  0.6393
  174SAPI    O619702   2.074   3.183  10.688 -0.3530  0.6357  0.4479
  174SAPI   HO619703   2.054   3.271  10.657  0.6980  0.2155 -1.6597
  174SAPI   C1119704   2.264   3.146  10.531  0.3171  0.3659  0.2643
  174SAPI    H119705   2.330   3.134  10.619  0.2094 -2.2620  0.0551
  174SAPI     P19706   2.357   3.392  10.530 -0.3440 -0.0438 -0.1826
  174SAPI   O1319707   2.360   3.391  10.676 -0.2643 -0.3821 -0.1543
  174SAPI   O1419708   2.313   3.511  10.458 -0.4412 -0.1473  0.5736
  174SAPI   O1219709   2.256   3.277  10.482  0.6140 -0.4321  0.2955
  174SAPI   O1119710   2.501   3.358  10.475 -0.1856 -0.3505 -0.2977
  174SAPI    C119711   2.572   3.458  10.411 -0.6422 -0.3285 -0.0677
  174SAPI    HA19712   2.558   3.559  10.457  0.0137  1.3654 -3.2798
  174SAPI    HB19713   2.680   3.449  10.437 -0.5974 -0.2520 -0.2276
  174SAPI    C219714   2.572   3.473  10.255  0.0234 -0.1670 -0.3467
  174SAPI    HS19715   2.478   3.520  10.219 -1.7791 -2.7860  0.5923
  174SAPI   O2119716   2.594   3.347  10.191  0.0758 -0.2809 -0.0357
  174SAPI   C2119717   2.487   3.278  10.162 -0.3892 -0.8833  0.1219
  174SAPI   O2219718   2.372   3.316  10.182  0.5408  0.1908  0.2590
  174SAPI   C2219719   2.531   3.145  10.093 -0.0859 -0.3745  0.0382
  174SAPI   H2R19720   2.622   3.174  10.037 -0.4250 -0.4457 -0.5577
  174SAPI   H2S19721   2.549   3.059  10.161 -0.7259  0.0671  0.7863
  174SAPI    C319722   2.687   3.568  10.201  0.1419  0.3738 -0.3660
  174SAPI    HX19723   2.780   3.512  10.228  0.2636  1.3556  1.3849
  174SAPI    HY19724   2.680   3.663  10.258  0.0978 -0.9346  1.9483
  174SAPI   O3119725   2.681   3.574  10.064  0.6852 -0.1982  0.6484
  174SAPI   C3119726   2.589   3.668  10.022 -0.2853 -0.1255  0.3256
  174SAPI   O3219727   2.527   3.746  10.093  0.5542 -0.1793  0.0218
  174SAPI   C3219728   2.591   3.665   9.870  0.3079  0.1600  0.5958
  174SAPI   H2X19729   2.488   3.649   9.831 -0.0054 -0.2838  1.5638
  174SAPI   H2Y19730   2.651   3.579   9.834 -1.6664 -0.6117 -1.0981
  174SAPI   C2319731   2.419   3.103   9.991 -0.5902  0.0445  0.0795
  174SAPI   H3R19732   2.367   3.191   9.947  2.7421  1.4928 -1.2970
  174SAPI   H3S19733   2.344   3.043  10.046 -0.6333 -0.1517 -0.1938
  174SAPI   C2419734   2.468   3.016   9.867  0.5153  0.1058 -0.5479
  174SAPI   H4R19735   2.485   3.099   9.796  1.3239  1.6222  1.3464
  174SAPI   H4S19736   2.382   2.958   9.825 -0.1422  1.9098 -1.8160
  174SAPI   C2519737   2.588   2.934   9.893  0.5150 -0.3137 -0.3033
  174SAPI   H5R19738   2.622   2.920   9.997  2.0910  2.6630 -0.2982
  174SAPI   C2619739   2.658   2.871   9.800 -0.0511 -0.0328 -0.5028
  174SAPI   H6R19740   2.739   2.802   9.829 -1.0573 -0.9455  0.2190
  174SAPI   C2719741   2.625   2.884   9.652 -0.1202  0.2328 -0.5508
  174SAPI   H7R19742   2.521   2.923   9.638 -0.3234  0.5858  1.5469
  174SAPI   H7S19743   2.633   2.783   9.609  0.1354  1.0113 -2.4177
  174SAPI   C2819744   2.706   2.984   9.583  0.3991  0.2252  0.1307
  174SAPI   H8R19745   2.710   3.069   9.654  0.9155 -0.4899  0.9713
  174SAPI   C2919746   2.774   2.974   9.472 -0.4721  0.6826 -0.1723
  174SAPI   H9R19747   2.831   3.064   9.446  1.4460 -0.4179 -0.0322
  174SAPI  C21019748   2.767   2.853   9.377  0.6959 -0.2108 -0.6486
  174SAPI  H10R19749   2.780   2.759   9.434  0.1035 -1.2340 -2.1388
  174SAPI  H10S19750   2.861   2.866   9.320  0.4690  0.8324 -0.8142
  174SAPI  C21119751   2.649   2.853   9.280  0.2470 -0.0463  0.9374
  174SAPI  H11R19752   2.592   2.947   9.271  2.4023  1.1291 -1.5630
  174SAPI  C21219753   2.615   2.753   9.200 -0.1736 -0.0980  0.1436
  174SAPI  H12R19754   2.520   2.757   9.145  0.2849 -1.8283 -0.8074
  174SAPI  C21319755   2.682   2.622   9.188  0.6981 -0.4438  0.1740
  174SAPI  H13R19756   2.608   2.541   9.177  2.2137 -1.9851  0.9098
  174SAPI  H13S19757   2.740   2.599   9.279 -0.4135  1.2877  1.3915
  174SAPI  C21419758   2.769   2.622   9.059  0.5253 -0.5626  0.4344
  174SAPI  H14R19759   2.805   2.718   9.020 -4.5694  1.8728  0.9101
  174SAPI  C21519760   2.800   2.506   8.990 -0.5651 -0.5202  0.1201
  174SAPI  H15R19761   2.875   2.509   8.911  1.8111  0.0610  2.2671
  174SAPI  C21619762   2.752   2.368   9.011  0.8322  0.2514 -0.2472
  174SAPI  H16R19763   2.688   2.364   9.102  1.9251  1.0993  0.5885
  174SAPI  H16S19764   2.832   2.293   9.030 -0.7276 -1.6764 -0.9123
  174SAPI  C21719765   2.680   2.323   8.882 -0.5021  0.2325 -0.2520
  174SAPI  H17R19766   2.763   2.293   8.814 -0.5410 -1.7251  0.4929
  174SAPI  H17S19767   2.613   2.403   8.844  0.2076  0.8704 -0.1986
  174SAPI  C21819768   2.582   2.201   8.898 -0.4740 -0.5119 -0.0511
  174SAPI  H18R19769   2.504   2.232   8.971 -1.4696 -1.4331 -0.6791
  174SAPI  H18S19770   2.650   2.125   8.943  0.4135  1.3041  1.8153
  174SAPI  C21919771   2.522   2.167   8.761 -0.1175 -0.1180  0.2642
  174SAPI  H19R19772   2.460   2.255   8.733 -0.4622 -0.8418 -1.3107
  174SAPI  H19S19773   2.461   2.075   8.765 -0.2938  0.0377  1.7579
  174SAPI  C22019774   2.622   2.148   8.647 -0.4106 -0.2373 -0.2308
  174SAPI  H20R19775   2.576   2.136   8.546  0.8966 -1.3622 -0.7291
  174SAPI  H20S19776   2.682   2.055   8.657 -1.2710 -0.7832 -0.0328
  174SAPI  H20T19777   2.694   2.231   8.635 -0.3579 -0.3728 -0.9039
  174SAPI   C3319778   2.648   3.790   9.801  0.2717  0.6071 -0.8466
  174SAPI   H3X19779   2.744   3.822   9.847  0.0719  0.2928 -0.1975
  174SAPI   H3Y19780   2.586   3.880   9.816 -0.3682  0.2843 -1.5090
  174SAPI   C3419781   2.677   3.760   9.655  0.5927  0.2760 -0.1385
  174SAPI   H4X19782   2.588   3.723   9.601  0.6301  0.5356 -0.3770
  174SAPI   H4Y19783   2.748   3.674   9.653 -0.9657 -1.0447 -0.0111
  174SAPI   C3519784   2.737   3.878   9.571  0.1497  0.6384 -0.5156
  174SAPI   H5X19785   2.825   3.931   9.611  0.8670  0.0077 -1.2096
  174SAPI   H5Y19786   2.655   3.953   9.574 -2.3078 -1.8896  0.9057
  174SAPI   C3619787   2.772   3.838   9.431  0.1235  0.0433  0.1824
  174SAPI   H6X19788   2.681   3.797   9.382  1.5066 -1.6951 -1.0476
  174SAPI   H6Y19789   2.845   3.754   9.429  2.1649  1.6964  1.2140
  174SAPI   C3719790   2.846   3.943   9.341  0.0196  0.6306  0.2851
  174SAPI   H7X19791   2.944   3.973   9.383  0.2549  0.0774  0.1490
  174SAPI   H7Y19792   2.776   4.028   9.326 -1.5726 -0.7843 -0.7319
  174SAPI   C3819793   2.874   3.889   9.198  0.4676 -0.8599  0.3775
  174SAPI   H8X19794   2.900   3.783   9.215 -0.9294 -1.1073  1.1301
  174SAPI   H8Y19795   2.963   3.937   9.153 -1.6691  0.5367 -2.7202
  174SAPI   C3919796   2.750   3.887   9.100  0.0791 -0.0407  0.7441
  174SAPI   H9X19797   2.667   3.940   9.150 -0.6128  1.2926 -1.6814
  174SAPI   H9Y19798   2.718   3.781   9.090  1.0679 -0.1759 -2.0963
  174SAPI  C31019799   2.769   3.946   8.959 -0.1280  1.0475  0.0959
  174SAPI  H10X19800   2.863   3.893   8.929 -0.9173 -0.6859  0.5433
  174SAPI  H10Y19801   2.793   4.054   8.970 -2.2702  1.5491  0.1677
  174SAPI  C31119802   2.664   3.911   8.859  0.9062  0.3822  0.8748
  174SAPI  H11X19803   2.643   3.802   8.851 -1.5245  0.9229 -1.5322
  174SAPI  H11Y19804   2.704   3.933   8.757  2.8304 -1.5923  1.1165
  174SAPI  C31219805   2.520   3.965   8.875 -0.3106 -0.1356  0.2874
  174SAPI  H12X19806   2.518   4.075   8.860  0.3466 -0.0032  1.1210
  174SAPI  H12Y19807   2.492   3.942   8.980  1.7005 -1.8569  0.5177
  174SAPI  C31319808   2.425   3.897   8.779  0.4357  0.5178  0.7181
  174SAPI  H13X19809   2.319   3.886   8.812  0.6513 -0.0092  1.2563
  174SAPI  H13Y19810   2.465   3.796   8.758  0.0914  0.4376  0.4376
  174SAPI  C31419811   2.430   3.962   8.642 -0.0656 -0.3310  0.2815
  174SAPI  H14X19812   2.537   3.977   8.616  0.1724 -0.9302  0.9065
  174SAPI  H14Y19813   2.394   4.067   8.649  0.6702 -0.0222 -0.4387
  174SAPI  C31519814   2.348   3.885   8.537  0.0226 -0.7078 -0.0285
  174SAPI  H15X19815   2.243   3.862   8.565 -0.1451 -0.4299 -0.4058
  174SAPI  H15Y19816   2.396   3.794   8.495  0.7646  0.4789 -1.9146
  174SAPI  C31619817   2.337   3.968   8.409  0.1773 -0.1613  0.2414
  174SAPI  H16X19818   2.440   3.993   8.376  0.1329 -0.0062  0.2176
  174SAPI  H16Y19819   2.282   4.056   8.449  0.3579  0.2635 -0.4275
  174SAPI  C31719820   2.253   3.902   8.298  0.2162  0.5219 -0.1726
  174SAPI  H17X19821   2.152   3.883   8.340  0.3065  0.9078  0.2267
  174SAPI  H17Y19822   2.319   3.815   8.278  0.4557  0.6673 -0.0222
  174SAPI  C31819823   2.246   3.989   8.175  0.0483 -0.0473 -0.2711
  174SAPI  H18X19824   2.343   4.023   8.131 -1.0459  0.5662 -2.3154
  174SAPI  H18Y19825   2.184   4.078   8.196 -0.5622 -0.7021  0.8106
  174SAPI  H18Z19826   2.205   3.929   8.091  1.6131  0.6548 -1.6020
  175SAPI   C1219827   3.723   5.760   6.277 -0.7113  0.0564  0.2546
  175SAPI    H219828   3.621   5.739   6.237  0.4277  0.0562 -2.9188
  175SAPI    O219829   3.808   5.719   6.169  0.2866  0.0908 -0.2431
  175SAPI   HO219830   3.839   5.629   6.185  0.0795  0.1260  0.3977
  175SAPI   C1319831   3.745   5.909   6.312  0.3229  0.6666  0.4737
  175SAPI    H319832   3.665   5.934   6.385  0.6352 -1.1812  1.5139
  175SAPI    O319833   3.721   5.999   6.200  0.1137  0.2633  0.0121
  175SAPI   HO319834   3.802   6.049   6.184  0.0959  0.4366  0.4479
  175SAPI   C1419835   3.878   5.930   6.382 -0.6144 -0.6649  0.6523
  175SAPI    H419836   3.964   5.919   6.312  1.6972 -0.6940  3.3156
  175SAPI    O419837   3.882   6.070   6.427  0.2017  0.6100 -0.3623
  175SAPI   HO419838   3.973   6.100   6.420  0.6454 -0.3092  1.0895
  175SAPI   C1519839   3.894   5.836   6.505  0.4899  0.6393 -0.2533
  175SAPI    H519840   3.810   5.860   6.574  1.5893 -0.5624  1.5794
  175SAPI    O519841   4.017   5.867   6.568  0.3919 -0.2290 -0.5984
  175SAPI   HO519842   4.097   5.826   6.534  0.1537 -2.3167  1.1706
  175SAPI   C1619843   3.881   5.694   6.465  0.6322  0.1494  0.0663
  175SAPI    H619844   3.954   5.665   6.387 -0.0586 -0.0207 -0.5316
  175SAPI    O619845   3.902   5.602   6.576  0.0275  0.2743  0.0375
  175SAPI   HO619846   3.911   5.510   6.552 -2.1204  0.2024 -0.7467
  175SAPI   C1119847   3.745   5.666   6.400  0.3630  0.3281  0.0024
  175SAPI    H119848   3.672   5.700   6.477 -1.2459 -1.6271 -0.5498
  175SAPI     P19849   3.796   5.410   6.303  0.2329 -0.2891  0.2884
  175SAPI   O1319850   3.872   5.466   6.187 -0.2167 -0.9346 -0.0572
  175SAPI   O1419851   3.701   5.298   6.271 -0.1486 -0.1364  0.2453
  175SAPI   O1219852   3.706   5.531   6.372  0.0446 -0.4290 -0.0558
  175SAPI   O1119853   3.892   5.375   6.421  0.0503 -0.4166 -0.0444
  175SAPI    C119854   3.968   5.254   6.413  0.2303  0.4320 -0.4562
  175SAPI    HA19855   3.902   5.169   6.440 -0.2254  1.0516  0.4135
  175SAPI    HB19856   4.010   5.237   6.311 -0.0811  2.3976 -0.9475
  175SAPI    C219857   4.085   5.264   6.521  0.4647 -0.0825  0.5253
  175SAPI    HS19858   4.130   5.163   6.532 -1.5198 -0.9788  0.8657
  175SAPI   O2119859   4.028   5.316   6.643  0.8270 -0.4501  0.6288
  175SAPI   C2119860   3.955   5.225   6.704  0.3108  0.3064  0.3117
  175SAPI   O2219861   3.948   5.108   6.667 -0.2877 -0.2349  0.0774
  175SAPI   C2219862   3.884   5.284   6.827  0.8806  0.8891  0.3857
  175SAPI   H2R19863   3.801   5.343   6.783  1.2915 -1.4253 -4.1771
  175SAPI   H2S19864   3.839   5.199   6.883  0.7595 -0.4029 -1.5442
  175SAPI    C319865   4.203   5.362   6.486 -0.0203  0.7265  0.2857
  175SAPI    HX19866   4.171   5.468   6.501  0.8930  1.0834 -0.2130
  175SAPI    HY19867   4.227   5.327   6.383 -1.0570 -1.2295  0.6698
  175SAPI   O3119868   4.309   5.340   6.586  0.0915 -0.0736  0.2613
  175SAPI   C3119869   4.433   5.321   6.538 -0.6676  0.2546  0.4146
  175SAPI   O3219870   4.476   5.354   6.427  0.2505 -0.0685 -0.5943
  175SAPI   C3219871   4.531   5.267   6.651 -0.0361  0.0099 -0.0512
  175SAPI   H2X19872   4.610   5.345   6.656 -0.2225  0.2995 -1.2877
  175SAPI   H2Y19873   4.576   5.182   6.595  0.0759  0.9300 -1.4119
  175SAPI   C2319874   3.979   5.371   6.919  0.1256 -0.2581 -0.3841
  175SAPI   H3R19875   3.919   5.411   7.003 -1.6754 -0.9981 -1.2642
  175SAPI   H3S19876   4.005   5.464   6.863 -1.2957  0.8081  0.6286
  175SAPI   C2419877   4.106   5.315   6.978  0.0281 -0.3583 -0.6157
  175SAPI   H4R19878   4.165   5.393   7.030 -0.4093 -0.3880 -0.0529
  175SAPI   H4S19879   4.167   5.271   6.896 -0.3443 -0.1874 -0.9840
  175SAPI   C2519880   4.078   5.200   7.075 -1.4084 -0.3191  0.3345
  175SAPI   H5R19881   4.031   5.121   7.014 -0.2480  0.6773 -1.9663
  175SAPI   C2619882   4.112   5.178   7.200  0.2103 -0.2341 -0.5862
  175SAPI   H6R19883   4.072   5.087   7.247  0.3812  1.0115  2.2208
  175SAPI   C2719884   4.179   5.275   7.290 -0.3052  0.0826 -0.3563
  175SAPI   H7R19885   4.228   5.351   7.226 -0.9010  0.8848  0.1218
  175SAPI   H7S19886   4.256   5.214   7.343 -1.8010 -1.0631  0.6032
  175SAPI   C2819887   4.084   5.330   7.392  0.0232 -0.0848 -0.0659
  175SAPI   H8R19888   3.987   5.366   7.354  1.8168  2.7134 -2.4415
  175SAPI   C2919889   4.104   5.321   7.523  0.2873 -0.5254 -0.7471
  175SAPI   H9R19890   4.021   5.362   7.583  0.2145 -1.2627 -0.3294
  175SAPI  C21019891   4.224   5.278   7.603  0.6869 -1.1442 -0.5387
  175SAPI  H10R19892   4.220   5.339   7.695  0.9003 -1.9876  0.0477
  175SAPI  H10S19893   4.318   5.298   7.547 -0.1939  1.4364 -1.2070
  175SAPI  C21119894   4.213   5.134   7.639  0.4773  0.5983  0.7298
  175SAPI  H11R19895   4.174   5.073   7.557  1.7209 -1.8914  1.8773
  175SAPI  C21219896   4.231   5.082   7.764  0.0270 -0.1598  0.9387
  175SAPI  H12R19897   4.216   4.973   7.769 -1.1281 -0.0789 -0.1566
  175SAPI  C21319898   4.260   5.157   7.890  0.2844  0.2595 -0.1856
  175SAPI  H13R19899   4.312   5.253   7.872  3.2957 -1.4347 -1.2219
  175SAPI  H13S19900   4.337   5.111   7.955  1.8238  2.6010 -0.2451
  175SAPI  C21419901   4.135   5.184   7.967 -0.0090  0.6801 -0.3052
  175SAPI  H14R19902   4.067   5.252   7.914  2.5070  2.4774 -1.4125
  175SAPI  C21519903   4.114   5.145   8.093 -0.0863  0.0447  0.0484
  175SAPI  H15R19904   4.025   5.167   8.152  0.4949  0.3929  0.8075
  175SAPI  C21619905   4.204   5.062   8.185  0.3590 -0.1102 -0.3507
  175SAPI  H16R19906   4.308   5.065   8.146 -0.1036 -1.6143 -1.8350
  175SAPI  H16S19907   4.172   4.956   8.193 -0.5576  0.1978  0.1967
  175SAPI  C21719908   4.193   5.106   8.335  0.3283 -0.2065  0.1949
  175SAPI  H17R19909   4.266   5.036   8.381 -0.9219 -1.2502  0.6598
  175SAPI  H17S19910   4.098   5.069   8.380  0.4490 -0.1077  0.5372
  175SAPI  C21819911   4.237   5.254   8.341  0.3470  0.0495  0.1908
  175SAPI  H18R19912   4.154   5.318   8.305  1.0670  0.5418 -0.6546
  175SAPI  H18S19913   4.328   5.271   8.279  0.3377  1.3695  0.5202
  175SAPI  C21919914   4.263   5.318   8.479  0.2897  0.2147 -0.4678
  175SAPI  H19R19915   4.362   5.280   8.513 -0.2072 -0.0147  0.7635
  175SAPI  H19S19916   4.187   5.287   8.554 -1.1899  0.9985 -1.5863
  175SAPI  C22019917   4.261   5.466   8.457 -1.2192  0.0240  0.8353
  175SAPI  H20R19918   4.160   5.511   8.444 -0.0894  2.2788 -0.8150
  175SAPI  H20S19919   4.323   5.490   8.368 -0.7665 -0.9983  0.8615
  175SAPI  H20T19920   4.310   5.517   8.542 -0.1946  1.9579 -0.8490
  175SAPI   C3319921   4.468   5.240   6.788  0.0906  0.1678  0.1167
  175SAPI   H3X19922   4.446   5.134   6.762  2.1618 -0.0937 -0.8099
  175SAPI   H3Y19923   4.370   5.289   6.801  0.8854  1.5991  0.9485
  175SAPI   C3419924   4.564   5.258   6.902  0.8188 -0.1645  0.4799
  175SAPI   H4X19925   4.574   5.365   6.928 -0.9484  0.1830 -0.1827
  175SAPI   H4Y19926   4.669   5.227   6.880  0.7772  0.0924 -0.0976
  175SAPI   C3519927   4.516   5.179   7.025 -0.2989  0.4630  0.0911
  175SAPI   H5X19928   4.490   5.073   7.000 -0.4579  0.6582 -0.5956
  175SAPI   H5Y19929   4.429   5.229   7.070 -0.1406 -0.0746  1.0170
  175SAPI   C3619930   4.623   5.175   7.135  0.2228 -0.5837 -0.4783
  175SAPI   H6X19931   4.654   5.278   7.161  1.1668 -0.7497 -0.9067
  175SAPI   H6Y19932   4.707   5.117   7.091 -0.7824 -2.0824 -0.5067
  175SAPI   C3719933   4.568   5.095   7.253 -0.0982 -0.5874  0.7159
  175SAPI   H7X19934   4.525   5.002   7.209 -0.7732 -0.0920  0.3135
  175SAPI   H7Y19935   4.486   5.144   7.310  1.9403  1.3329  2.1673
  175SAPI   C3819936   4.671   5.066   7.367 -0.8463  0.3878 -0.2667
  175SAPI   H8X19937   4.702   5.166   7.405 -0.5797  0.1304  0.2027
  175SAPI   H8Y19938   4.768   5.020   7.336 -0.3447  0.3441  1.2972
  175SAPI   C3919939   4.618   4.985   7.481 -0.1125  0.6522 -0.6593
  175SAPI   H9X19940   4.598   4.878   7.457 -3.4230  1.1925 -0.7663
  175SAPI   H9Y19941   4.518   5.019   7.513 -0.2063  0.8547 -1.1634
  175SAPI  C31019942   4.721   4.977   7.598  0.2855  0.2973 -1.5521
  175SAPI  H10X19943   4.733   5.084   7.626  0.7782  0.1335 -1.1212
  175SAPI  H10Y19944   4.816   4.943   7.552  0.9070  0.9041 -0.7542
  175SAPI  C31119945   4.675   4.890   7.712  0.0523  1.4060 -0.3161
  175SAPI  H11X19946   4.668   4.786   7.673 -1.2784  1.6953 -0.8753
  175SAPI  H11Y19947   4.578   4.914   7.761  0.8447  1.0027  1.5561
  175SAPI  C31219948   4.780   4.868   7.828  0.5074  0.2092  0.5494
  175SAPI  H12X19949   4.799   4.971   7.863 -0.9929  1.5746 -2.2810
  175SAPI  H12Y19950   4.861   4.811   7.777 -1.3609 -0.0798 -2.3755
  175SAPI  C31319951   4.723   4.781   7.943  0.2970  0.2552 -0.9524
  175SAPI  H13X19952   4.805   4.733   8.000 -0.0707 -2.3094 -2.4193
  175SAPI  H13Y19953   4.656   4.702   7.901 -1.7534  1.0147  0.7015
  175SAPI  C31419954   4.646   4.875   8.026  0.2769  0.3092 -0.5231
  175SAPI  H14X19955   4.555   4.905   7.970 -1.5347 -2.7063  0.5309
  175SAPI  H14Y19956   4.710   4.964   8.044  0.2174 -0.0108  1.5457
  175SAPI  C31519957   4.624   4.803   8.161 -0.4219 -0.7416  0.2138
  175SAPI  H15X19958   4.722   4.769   8.201  0.8983  1.2579 -1.1024
  175SAPI  H15Y19959   4.553   4.718   8.153 -0.8764 -0.4625  1.1726
  175SAPI  C31619960   4.576   4.890   8.275  0.0890 -0.3241 -0.3466
  175SAPI  H16X19961   4.481   4.936   8.243  0.2479 -0.1379 -0.5478
  175SAPI  H16Y19962   4.648   4.973   8.293 -1.6960  0.7197  2.8374
  175SAPI  C31719963   4.558   4.812   8.412 -1.3190  0.1285 -0.5334
  175SAPI  H17X19964   4.653   4.756   8.427  0.1301  3.1692  3.4832
  175SAPI  H17Y19965   4.479   4.735   8.398 -2.4237  0.9081  1.1523
  175SAPI  C31819966   4.529   4.891   8.540  0.1727 -0.4275 -0.3082
  175SAPI  H18X19967   4.421   4.918   8.534  0.8443  2.2951 -2.4748
  175SAPI  H18Y19968   4.600   4.976   8.554  0.4482 -0.6072 -0.6118
  175SAPI  H18Z19969   4.552   4.830   8.630  0.7123  3.1081  2.1995
  176SAPI   C1219970   3.174   3.964   6.228 -0.2020  0.4369  0.1464
  176SAPI    H219971   3.132   3.976   6.330 -1.0867 -0.6218 -0.0732
  176SAPI    O219972   3.087   3.862   6.175  0.2491  0.2386  0.3341
  176SAPI   HO219973   3.065   3.796   6.241 -3.2666  0.7450 -0.1314
  176SAPI   C1319974   3.164   4.093   6.148 -0.5279 -0.1902 -0.3884
  176SAPI    H319975   3.241   4.160   6.193 -0.1969 -1.9708  1.8952
  176SAPI    O319976   3.036   4.155   6.163 -0.0302 -0.3998  0.0690
  176SAPI   HO319977   3.048   4.249   6.149 -1.7891  0.0031  1.0177
  176SAPI   C1419978   3.204   4.076   6.000 -0.0013  0.3608  0.3876
  176SAPI    H419979   3.134   4.000   5.960 -1.1760  0.6775  1.7423
  176SAPI    O419980   3.193   4.200   5.935  0.3708 -0.4707 -0.1838
  176SAPI   HO419981   3.235   4.269   5.986  1.1152 -1.9005  1.2383
  176SAPI   C1519982   3.347   4.018   5.994 -0.0507 -0.3540  0.3118
  176SAPI    H519983   3.417   4.094   6.032  1.3726 -2.6127  2.4839
  176SAPI    O519984   3.380   3.996   5.859  0.0718  0.1895 -0.8633
  176SAPI   HO519985   3.475   3.995   5.846 -0.1404 -0.6823 -2.6391
  176SAPI   C1619986   3.372   3.901   6.080  0.1386  0.4638 -0.0669
  176SAPI    H619987   3.306   3.822   6.037  1.2964  0.5643 -2.1399
  176SAPI    O619988   3.504   3.856   6.071 -0.2217  0.2756 -0.3738
  176SAPI   HO619989   3.542   3.875   6.157 -1.0760 -0.3498  0.1570
  176SAPI   C1119990   3.325   3.925   6.221 -0.1676  0.3200  0.4294
  176SAPI    H119991   3.376   4.014   6.262  0.1835  0.4000 -0.1732
  176SAPI     P19992   3.463   3.789   6.416 -0.6624  0.4467  0.4412
  176SAPI   O1319993   3.590   3.835   6.356  0.1891 -0.1258 -0.2599
  176SAPI   O1419994   3.467   3.649   6.459  0.1990  0.6330 -1.1214
  176SAPI   O1219995   3.343   3.811   6.303  0.7981  0.1160 -0.5921
  176SAPI   O1119996   3.418   3.895   6.521 -0.1425  0.5194 -0.5649
  176SAPI    C119997   3.339   3.853   6.633  0.3121 -0.5178  1.1425
  176SAPI    HA19998   3.250   3.920   6.634  1.3927  1.0724  4.2187
  176SAPI    HB19999   3.311   3.746   6.629 -0.4913 -0.3402  1.8243
  176SAPI    C220000   3.425   3.852   6.763 -0.1089 -0.1739  0.4646
  176SAPI    HS20001   3.363   3.809   6.845 -3.0788  2.4494 -0.2120
  176SAPI   O2120002   3.461   3.989   6.796  0.3771 -0.4464 -0.4214
  176SAPI   C2120003   3.375   4.050   6.875 -0.0940 -0.5148  0.2574
  176SAPI   O2220004   3.266   4.001   6.908  0.5733 -0.3195  0.0380
  176SAPI   C2220005   3.428   4.183   6.913  0.2488 -0.0483 -0.9984
  176SAPI   H2R20006   3.533   4.165   6.946 -0.1051 -0.0168  0.1779
  176SAPI   H2S20007   3.452   4.247   6.824 -0.3528  1.7609  0.0873
  176SAPI    C320008   3.558   3.761   6.767  0.0110 -0.3667  0.7682
  176SAPI    HX20009   3.637   3.827   6.724  1.6586 -1.6738  1.6918
  176SAPI    HY20010   3.535   3.677   6.698 -0.6439  1.1094 -0.8937
  176SAPI   O3120011   3.586   3.712   6.901  0.1720 -0.0874  0.1889
  176SAPI   C3120012   3.705   3.662   6.917 -0.1451 -0.4703  0.1934
  176SAPI   O3220013   3.797   3.665   6.832 -0.0020  0.2174  0.2215
  176SAPI   C3220014   3.712   3.577   7.047  0.4923  0.6357 -0.1022
  176SAPI   H2X20015   3.818   3.542   7.052  0.2024 -0.2781 -0.2327
  176SAPI   H2Y20016   3.641   3.493   7.033  1.0460 -0.0982  1.2905
  176SAPI   C2320017   3.350   4.252   7.020  0.3010 -0.5415  0.2583
  176SAPI   H3R20018   3.243   4.244   6.991  0.5655 -1.3483 -0.5238
  176SAPI   H3S20019   3.370   4.362   7.020 -2.8831  0.2906  3.9293
  176SAPI   C2420020   3.364   4.200   7.160  0.0973  0.7774 -0.5201
  176SAPI   H4R20021   3.470   4.193   7.191 -0.6491 -0.8368  1.9875
  176SAPI   H4S20022   3.320   4.098   7.167 -2.3212  1.7819 -0.0059
  176SAPI   C2520023   3.301   4.298   7.256 -0.4555  0.0949  0.3895
  176SAPI   H5R20024   3.348   4.397   7.265 -0.9451  0.4625 -0.7998
  176SAPI   C2620025   3.178   4.286   7.311  0.0415 -0.2519 -0.0014
  176SAPI   H6R20026   3.143   4.380   7.356  0.6432 -0.3215  0.6243
  176SAPI   C2720027   3.075   4.171   7.294 -0.2865 -0.1317  0.7118
  176SAPI   H7R20028   3.101   4.088   7.362 -0.7625 -2.8712 -2.2055
  176SAPI   H7S20029   3.089   4.130   7.192  1.7104  2.2688 -0.0927
  176SAPI   C2820030   2.935   4.225   7.297 -0.4041  0.2551 -0.1314
  176SAPI   H8R20031   2.930   4.289   7.386  0.0102 -0.6948  0.5991
  176SAPI   C2920032   2.831   4.205   7.220  0.8303  0.2907  0.5347
  176SAPI   H9R20033   2.748   4.273   7.242  0.5878  0.5057 -0.8995
  176SAPI  C21020034   2.799   4.113   7.102  0.0685  0.2815 -0.1027
  176SAPI  H10R20035   2.886   4.047   7.085 -1.0011 -0.4955 -3.1548
  176SAPI  H10S20036   2.793   4.176   7.011  1.6679  2.0881  0.9670
  176SAPI  C21120037   2.686   4.018   7.117 -0.3374 -0.0372  0.7334
  176SAPI  H11R20038   2.594   4.054   7.069 -0.8408  2.2167  3.1583
  176SAPI  C21220039   2.682   3.906   7.193  0.3096  0.4541 -0.4313
  176SAPI  H12R20040   2.585   3.857   7.209  0.2164  0.6682 -0.3464
  176SAPI  C21320041   2.792   3.851   7.288 -0.5693 -0.1441 -0.2301
  176SAPI  H13R20042   2.890   3.881   7.245 -0.9878  1.6698 -0.0329
  176SAPI  H13S20043   2.787   3.741   7.293  2.9878 -0.4332 -0.3720
  176SAPI  C21420044   2.779   3.911   7.427 -0.0238 -0.2025 -0.8974
  176SAPI  H14R20045   2.711   3.997   7.439  0.1716 -0.1606 -0.0886
  176SAPI  C21520046   2.839   3.859   7.538  0.2614  0.0839  0.0753
  176SAPI  H15R20047   2.823   3.916   7.630  2.1822 -1.1084  1.2118
  176SAPI  C21620048   2.936   3.744   7.538 -0.5271  0.1940 -0.5690
  176SAPI  H16R20049   3.028   3.770   7.594  0.4228 -0.8039 -1.5990
  176SAPI  H16S20050   2.978   3.733   7.435 -2.0051 -0.5965 -1.1168
  176SAPI  C21720051   2.887   3.606   7.586 -1.0742  0.3498  0.1140
  176SAPI  H17R20052   2.959   3.526   7.560 -0.6234  1.0743 -0.9356
  176SAPI  H17S20053   2.800   3.573   7.526  0.4560 -2.0592 -0.9085
  176SAPI  C21820054   2.875   3.601   7.731 -0.4320  0.3401  0.0248
  176SAPI  H18R20055   2.809   3.514   7.751  2.3367 -1.6731  0.8043
  176SAPI  H18S20056   2.820   3.689   7.772 -0.5830  0.0840  0.3720
  176SAPI  C21920057   3.007   3.596   7.807 -0.3168  0.2660 -0.8416
  176SAPI  H19R20058   3.080   3.673   7.774 -0.2652  0.8372  0.5481
  176SAPI  H19S20059   3.064   3.502   7.790  1.0955  1.0663 -0.7172
  176SAPI  C22020060   2.992   3.621   7.961  0.3923  0.4428 -0.1475
  176SAPI  H20R20061   2.953   3.723   7.981 -2.4338 -0.8905  1.8970
  176SAPI  H20S20062   3.092   3.611   8.008  0.5113 -2.2377 -0.8032
  176SAPI  H20T20063   2.929   3.543   8.011 -1.2664  0.6548 -1.8004
  176SAPI   C3320064   3.670   3.661   7.165  0.3442  0.2930  0.3332
  176SAPI   H3X20065   3.564   3.683   7.145 -0.0738  1.0982  2.9919
  176SAPI   H3Y20066   3.733   3.751   7.183 -0.1277  0.6181  0.3748
  176SAPI   C3420067   3.668   3.581   7.300 -0.3015  0.6197 -0.0310
  176SAPI   H4X20068   3.686   3.473   7.283  0.1646  0.5292  0.9710
  176SAPI   H4Y20069   3.572   3.604   7.350 -0.1511  1.2067 -0.0024
  176SAPI   C3520070   3.781   3.620   7.399 -0.0025 -0.0410 -1.0598
  176SAPI   H5X20071   3.881   3.634   7.353 -0.2284 -0.4153 -1.6824
  176SAPI   H5Y20072   3.786   3.534   7.470 -0.2703  0.1464 -0.8121
  176SAPI   C3620073   3.741   3.747   7.477 -0.0470 -0.1605 -0.2995
  176SAPI   H6X20074   3.634   3.750   7.503 -0.1328  0.9424 -0.7481
  176SAPI   H6Y20075   3.763   3.842   7.423 -3.8959  0.8420 -0.3513
  176SAPI   C3720076   3.809   3.756   7.621 -0.2400 -0.0843 -0.6911
  176SAPI   H7X20077   3.781   3.860   7.649 -0.2474  0.3442 -2.2331
  176SAPI   H7Y20078   3.919   3.743   7.615 -0.1885  0.4543 -1.0387
  176SAPI   C3820079   3.752   3.655   7.719  0.2488  0.2470 -0.6989
  176SAPI   H8X20080   3.737   3.558   7.667  0.9263 -0.8494  1.0464
  176SAPI   H8Y20081   3.654   3.695   7.753  1.0854 -0.3070  2.7688
  176SAPI   C3920082   3.836   3.624   7.839 -0.0478 -0.0815  0.2162
  176SAPI   H9X20083   3.781   3.556   7.908 -0.5053  2.1293  2.1713
  176SAPI   H9Y20084   3.861   3.720   7.889  1.2638 -0.5894  0.5721
  176SAPI  C31020085   3.974   3.553   7.810  0.1588  0.2194  0.9181
  176SAPI  H10X20086   4.042   3.618   7.751 -0.0683  0.2399  0.6800
  176SAPI  H10Y20087   3.940   3.468   7.746 -4.1523  1.7421  0.8853
  176SAPI  C31120088   4.043   3.517   7.940 -1.1852  0.4662 -0.1149
  176SAPI  H11X20089   4.013   3.601   8.006 -1.1393  0.5062 -0.1434
  176SAPI  H11Y20090   4.155   3.515   7.939 -1.1804 -1.2919 -1.5004
  176SAPI  C31220091   3.998   3.389   8.019 -0.1576 -0.1494 -0.0028
  176SAPI  H12X20092   4.054   3.297   7.993 -1.0975 -0.9897  0.8485
  176SAPI  H12Y20093   3.895   3.364   7.984 -1.3908  1.8152  1.9789
  176SAPI  C31320094   3.995   3.430   8.169  0.0113 -0.6805 -0.2623
  176SAPI  H13X20095   3.944   3.526   8.189  2.3112  0.4818  0.3452
  176SAPI  H13Y20096   4.098   3.441   8.210  0.7554 -1.0295 -1.9264
  176SAPI  C31420097   3.907   3.332   8.247  0.0892 -0.3556 -0.0923
  176SAPI  H14X20098   3.972   3.245   8.268  0.6885 -0.3573 -1.7840
  176SAPI  H14Y20099   3.814   3.298   8.197 -1.6866  0.0953  2.7154
  176SAPI  C31520100   3.846   3.401   8.374 -0.1441  0.3848  0.6846
  176SAPI  H15X20101   3.803   3.500   8.346 -0.6294  0.3233  1.2078
  176SAPI  H15Y20102   3.936   3.418   8.437  2.3350 -0.4408 -2.3369
  176SAPI  C31620103   3.735   3.327   8.447 -0.4899  0.5375  0.9802
  176SAPI  H16X20104   3.780   3.232   8.483 -0.2196 -0.3083 -1.3927
  176SAPI  H16Y20105   3.649   3.304   8.380 -0.0278 -3.3697  1.4578
  176SAPI  C31720106   3.699   3.398   8.579 -0.6565 -0.0421 -0.0927
  176SAPI  H17X20107   3.609   3.348   8.620  1.1041 -1.3029  2.5059
  176SAPI  H17Y20108   3.682   3.506   8.558 -1.0501  0.1674  1.2155
  176SAPI  C31820109   3.811   3.388   8.684 -0.4173  1.0772 -0.1523
  176SAPI  H18X20110   3.783   3.461   8.764  0.1537  0.3654  0.7102
  176SAPI  H18Y20111   3.906   3.429   8.644 -0.0354  1.2223  0.8678
  176SAPI  H18Z20112   3.809   3.284   8.721  0.8311  0.7603 -0.9448
  177SLPC     N20113   4.875   4.792  10.830 -0.0868 -0.1693  0.3518
  177SLPC   C1320114   4.970   4.695  10.891 -0.2153  0.3081 -0.4736
  177SLPC  H13A20115   4.965   4.705  10.998  0.8116 -0.8527 -0.2973
  177SLPC  H13B20116   4.937   4.597  10.863  1.8977 -0.2286 -1.3338
  177SLPC  H13C20117   5.074   4.710  10.862 -0.1541  0.0167 -0.4036
  177SLPC   C1420118   4.890   4.931  10.889  0.1191  0.1822  0.6884
  177SLPC  H14A20119   4.835   5.008  10.837 -1.2037  1.1498  3.3090
  177SLPC  H14B20120   4.834   4.927  10.982 -0.9150 -1.7586  0.0361
  177SLPC  H14C20121   4.996   4.943  10.901  0.6102 -2.2008 -0.6303
  177SLPC   C1520122   4.733   4.740  10.846  0.0886  0.1794 -0.0057
  177SLPC  H15A20123   4.706   4.707  10.945 -0.6617 -2.5912 -1.0307
  177SLPC  H15B20124   4.671   4.819  10.806  1.6000  1.7661  0.6329
  177SLPC  H15C20125   4.712   4.651  10.788 -2.2980 -1.0120  2.4476
  177SLPC   C1220126   4.900   4.784  10.681  0.2834 -0.1071 -0.3474
  177SLPC  H12A20127   4.856   4.689  10.654 -1.6533  0.3919  0.8561
  177SLPC  H12B20128   5.006   4.777  10.663  0.0753 -0.6417 -1.4807
  177SLPC   C1120129   4.844   4.894  10.587  0.4182  0.0911 -0.2807
  177SLPC  H11A20130   4.893   4.864  10.492  1.9450  1.0217  0.1783
  177SLPC  H11B20131   4.872   5.001  10.596 -1.1641  0.5410 -0.3212
  177SLPC     P20132   4.617   4.768  10.521 -0.0161  0.1000  0.2203
  177SLPC   O1320133   4.701   4.641  10.526 -0.0790 -0.9474 -0.1331
  177SLPC   O1420134   4.491   4.767  10.594 -0.0650  0.3786 -0.5541
  177SLPC   O1220135   4.700   4.888  10.580 -1.1615  0.5195  0.2292
  177SLPC   O1120136   4.590   4.803  10.369 -0.1643 -0.1218 -0.0562
  177SLPC    C120137   4.515   4.705  10.299 -0.0899 -0.4092 -0.3284
  177SLPC    HA20138   4.561   4.604  10.305  1.4116  0.3481  1.8107
  177SLPC    HB20139   4.407   4.707  10.324 -0.0136  0.6977 -0.0632
  177SLPC    C220140   4.522   4.734  10.141 -0.5897  0.1519 -0.6356
  177SLPC    HS20141   4.481   4.649  10.082 -0.9330 -0.2684  0.1928
  177SLPC   O2120142   4.651   4.775  10.092  0.2298  0.7163 -0.1718
  177SLPC   C2120143   4.748   4.687  10.105  0.1749  0.1215  0.0399
  177SLPC   O2220144   4.745   4.570  10.133  0.9302 -0.6058  0.1052
  177SLPC   C2220145   4.870   4.761  10.069 -0.4582  0.7982  0.2223
  177SLPC   H2R20146   4.930   4.710   9.990  0.3397  0.9562  0.7104
  177SLPC   H2S20147   4.842   4.861  10.030 -0.8602  1.0142  1.0522
  177SLPC    C320148   4.420   4.855  10.108 -0.5178 -0.1776  0.3430
  177SLPC    HX20149   4.449   4.938  10.176  1.8483 -0.2349 -0.4959
  177SLPC    HY20150   4.324   4.810  10.139  0.8091 -3.3008  0.3731
  177SLPC   O3120151   4.414   4.886   9.972 -0.0665  0.0382  0.6288
  177SLPC   C3120152   4.478   4.996   9.941  0.2755  0.3046  0.0527
  177SLPC   O3220153   4.531   5.071  10.021 -0.4699  0.0433 -0.5734
  177SLPC   C3220154   4.477   5.019   9.785 -0.0295  0.2538 -0.4467
  177SLPC   H2X20155   4.410   4.946   9.735 -1.2185  2.1391 -1.7754
  177SLPC   H2Y20156   4.585   5.006   9.762  0.0531  1.2528 -0.6995
  177SLPC   C2320157   4.965   4.779  10.191 -0.5955 -0.2564  0.5546
  177SLPC   H3R20158   4.963   4.694  10.261  1.5283 -0.5161  0.3756
  177SLPC   H3S20159   4.931   4.866  10.252 -1.4303 -3.0603  4.4117
  177SLPC   C2420160   5.111   4.794  10.153 -0.2103 -0.0627  0.0780
  177SLPC   H4R20161   5.134   4.708  10.087 -1.6550  0.4377 -1.1279
  177SLPC   H4S20162   5.181   4.783  10.238 -1.0841  1.6545  1.0670
  177SLPC   C2520163   5.139   4.928  10.093  0.6843  0.0539 -0.3498
  177SLPC   H5R20164   5.122   4.998  10.177 -0.5552  0.4610 -0.9242
  177SLPC   H5S20165   5.073   4.949  10.007  0.1794  1.4075  0.3461
  177SLPC   C2620166   5.275   4.937  10.029 -0.0903 -0.4393 -0.1189
  177SLPC   H6R20167   5.338   4.854  10.067 -1.7354 -1.0468  1.4024
  177SLPC   H6S20168   5.340   5.027  10.043 -0.1619 -0.0184 -2.1556
  177SLPC   C2720169   5.275   4.927   9.871 -0.3827  0.9834 -0.1196
  177SLPC   H7R20170   5.216   5.014   9.832 -0.6334  1.5683  1.4871
  177SLPC   H7S20171   5.220   4.836   9.841  0.6723 -0.0652  1.0531
  177SLPC   C2820172   5.416   4.936   9.813 -0.6983  0.1117 -0.5799
  177SLPC   H8R20173   5.493   4.889   9.878 -1.0642 -0.7637 -0.7619
  177SLPC   H8S20174   5.443   5.043   9.823 -0.4253  0.0205 -0.3530
  177SLPC   C2920175   5.427   4.896   9.665  0.5272  0.1309 -0.3233
  177SLPC   H9R20176   5.456   4.792   9.644 -0.1745 -0.3893  1.1784
  177SLPC  C21020177   5.442   4.981   9.559 -0.0758  0.1443  0.3063
  177SLPC  H10R20178   5.425   4.943   9.458 -1.6955  2.1433 -0.2488
  177SLPC  C21120179   5.455   5.134   9.569  0.5604  0.7194 -0.0490
  177SLPC  H11R20180   5.355   5.183   9.564  0.6520  0.8259 -1.3676
  177SLPC  H11S20181   5.491   5.169   9.668  0.8356  1.8867 -0.5402
  177SLPC  C21220182   5.527   5.184   9.450 -0.4996 -0.0013  0.4990
  177SLPC  H12R20183   5.468   5.190   9.357  0.7522 -3.2411 -0.6563
  177SLPC  C21320184   5.656   5.224   9.446 -0.7915 -0.1715 -0.4448
  177SLPC  H13R20185   5.705   5.267   9.358  0.2181  0.8079  0.5550
  177SLPC  C21420186   5.749   5.228   9.568  0.0080  0.2480 -0.4794
  177SLPC  H14R20187   5.685   5.215   9.657 -1.9256 -1.7611 -2.0473
  177SLPC  H14S20188   5.806   5.324   9.571  2.4360 -1.0357 -1.9834
  177SLPC  C21520189   5.855   5.121   9.566 -0.0878 -0.3058  0.4728
  177SLPC  H15R20190   5.935   5.141   9.491  0.1414 -1.5117  0.3842
  177SLPC  H15S20191   5.816   5.020   9.545 -1.7408  0.2740  0.6307
  177SLPC  C21620192   5.927   5.131   9.696 -0.3974  0.5939 -0.0638
  177SLPC  H16R20193   5.890   5.225   9.742  1.0043  1.3928 -0.4851
  177SLPC  H16S20194   6.038   5.143   9.688 -0.2580  1.2235  2.1400
  177SLPC  C21720195   5.904   5.003   9.775  0.6294  0.4635 -0.2629
  177SLPC  H17R20196   5.957   5.015   9.872  0.0330  0.4351  0.0702
  177SLPC  H17S20197   5.937   4.909   9.724 -0.7010 -1.1486  1.6933
  177SLPC  C21820198   5.758   4.980   9.808  0.2281  0.2587  0.7883
  177SLPC  H18R20199   5.690   4.976   9.720 -0.3251 -3.0906  1.2257
  177SLPC  H18S20200   5.714   5.057   9.875  0.2272  0.1666  0.8928
  177SLPC  H18T20201   5.746   4.884   9.863  2.7506 -0.6736 -0.1284
  177SLPC   C3320202   4.445   5.167   9.749 -0.3443  0.1915 -0.0072
  177SLPC   H3X20203   4.495   5.234   9.822  1.1894 -1.4254  0.5057
  177SLPC   H3Y20204   4.335   5.177   9.765  0.0785  0.1231  3.6589
  177SLPC   C3420205   4.501   5.220   9.610  1.0568  0.0798  0.3251
  177SLPC   H4X20206   4.611   5.209   9.618  0.8139 -1.1799  3.0248
  177SLPC   H4Y20207   4.472   5.327   9.610  0.9437  0.0617  1.4414
  177SLPC   C3520208   4.439   5.143   9.492  0.0629 -0.5402 -0.2337
  177SLPC   H5X20209   4.329   5.141   9.503  0.0079 -0.8567 -0.8498
  177SLPC   H5Y20210   4.477   5.038   9.492  1.2161 -0.1508  0.3178
  177SLPC   C3620211   4.467   5.208   9.355  0.8677 -0.2697  0.0199
  177SLPC   H6X20212   4.448   5.315   9.378 -0.8884 -0.4478 -0.4380
  177SLPC   H6Y20213   4.384   5.181   9.287  1.3523  0.1222 -0.7325
  177SLPC   C3720214   4.608   5.176   9.306  0.7177 -0.6630  0.2643
  177SLPC   H7X20215   4.607   5.068   9.277 -2.2919 -0.7849  0.4328
  177SLPC   H7Y20216   4.691   5.189   9.377  0.2926 -0.5191  0.7399
  177SLPC   C3820217   4.649   5.275   9.194 -0.7246 -0.1810 -0.9156
  177SLPC   H8X20218   4.758   5.297   9.208 -0.6886  0.4428 -2.0582
  177SLPC   H8Y20219   4.602   5.375   9.205 -1.5487 -0.3701 -2.5084
  177SLPC   C3920220   4.625   5.239   9.046 -0.3078  0.1587 -0.2892
  177SLPC   H9X20221   4.657   5.314   8.971 -0.8090  1.2268  0.5306
  177SLPC   H9Y20222   4.517   5.211   9.041 -0.4863  0.4031  1.4729
  177SLPC  C31020223   4.699   5.104   9.013  0.6107 -0.2313 -0.6343
  177SLPC  H10X20224   4.631   5.023   8.980 -0.7981 -0.0287  1.5721
  177SLPC  H10Y20225   4.756   5.071   9.102  1.4752  0.8479 -0.7692
  177SLPC  C31120226   4.814   5.124   8.914 -0.8791 -0.3146 -0.1323
  177SLPC  H11X20227   4.876   5.211   8.944 -1.3761 -0.1764  0.5304
  177SLPC  H11Y20228   4.789   5.153   8.810  1.9151 -0.3754 -0.9012
  177SLPC  C31220229   4.897   4.993   8.890 -0.4996 -0.2239  0.0541
  177SLPC  H12X20230   4.836   4.925   8.827 -2.7764  0.6717  1.2054
  177SLPC  H12Y20231   4.915   4.941   8.986  0.5501 -0.3737 -0.2130
  177SLPC  C31320232   5.030   5.007   8.807  0.3657  0.6621 -0.6008
  177SLPC  H13X20233   5.089   4.913   8.803 -1.7975 -0.6997 -2.4657
  177SLPC  H13Y20234   5.092   5.081   8.863 -0.4877  0.9888 -0.0586
  177SLPC  C31420235   5.004   5.049   8.668 -0.2008  0.6051  1.3748
  177SLPC  H14X20236   5.108   5.073   8.637  0.3159 -3.0854 -0.3709
  177SLPC  H14Y20237   4.942   5.141   8.662  1.4485  1.6462 -0.5920
  177SLPC  C31520238   4.959   4.937   8.576  0.6025  0.1618 -1.0071
  177SLPC  H15X20239   4.850   4.920   8.584  0.9905 -1.5419  2.7366
  177SLPC  H15Y20240   5.010   4.844   8.609  1.6974  1.5603  1.4850
  177SLPC  C31620241   5.001   4.959   8.429 -1.0027  0.1123  0.5307
  177SLPC  H16X20242   5.107   4.990   8.438 -1.1959  1.0155 -0.1587
  177SLPC  H16Y20243   4.943   5.046   8.390 -1.3547 -0.6592 -0.7371
  177SLPC  C31720244   4.999   4.831   8.341 -0.1752 -0.0659 -0.1095
  177SLPC  H17X20245   4.897   4.789   8.341 -0.4612  0.5922 -1.1122
  177SLPC  H17Y20246   5.061   4.755   8.394  2.4396  1.7058 -0.4065
  177SLPC  C31820247   5.058   4.850   8.203 -0.4363  0.2843  1.0699
  177SLPC  H18X20248   5.009   4.793   8.122 -1.7702  0.9143  1.3971
  177SLPC  H18Y20249   5.165   4.818   8.206 -0.7335 -1.4368 -2.4887
  177SLPC  H18Z20250   5.056   4.952   8.158  1.2035 -0.2084 -0.2147
  178SLPC     N20251   4.141   1.357  11.033  0.0109  0.0467 -0.4184
  178SLPC   C1320252   4.228   1.252  11.103  0.5144  0.0222  0.9125
  178SLPC  H13A20253   4.251   1.277  11.205 -0.9647  2.2112  0.7806
  178SLPC  H13B20254   4.168   1.163  11.117 -2.1749  1.4908 -0.3969
  178SLPC  H13C20255   4.315   1.230  11.044 -2.2179  0.4225 -3.7841
  178SLPC   C1420256   4.200   1.492  11.042  0.0473 -0.0133 -0.0357
  178SLPC  H14A20257   4.227   1.522  11.142 -0.8028  1.1818 -0.1536
  178SLPC  H14B20258   4.287   1.498  10.977 -0.1307 -0.2713 -0.3015
  178SLPC  H14C20259   4.133   1.566  11.001 -1.7478 -1.8089 -0.5329
  178SLPC   C1520260   4.011   1.354  11.097  0.0659 -0.1229  0.3549
  178SLPC  H15A20261   4.023   1.360  11.204  0.1024  1.4767  0.2811
  178SLPC  H15B20262   3.940   1.429  11.067  1.1976  0.9989  0.3972
  178SLPC  H15C20263   3.969   1.256  11.081 -2.9330  1.1056  0.1487
  178SLPC   C1220264   4.137   1.318  10.890  0.0297  0.0334  0.2035
  178SLPC  H12A20265   4.234   1.348  10.851  0.6176 -1.1643  0.6893
  178SLPC  H12B20266   4.067   1.374  10.830 -1.3544 -0.7576  1.0231
  178SLPC   C1120267   4.103   1.175  10.858  1.0813  0.0361  0.3373
  178SLPC  H11A20268   4.183   1.104  10.887  1.0079  0.9237  2.9816
  178SLPC  H11B20269   4.095   1.165  10.747 -0.6247 -0.1958  0.4592
  178SLPC     P20270   3.840   1.143  10.870  0.0255 -0.0533  0.2797
  178SLPC   O1320271   3.752   1.105  10.980  0.1828  0.3640 -0.1716
  178SLPC   O1420272   3.829   1.280  10.819 -0.3384 -0.1586  0.1358
  178SLPC   O1220273   3.987   1.130  10.926  0.7485  0.3488  0.3939
  178SLPC   O1120274   3.824   1.039  10.763 -0.4599  0.2670 -0.4338
  178SLPC    C120275   3.886   0.915  10.774  0.3745  0.5083 -0.6054
  178SLPC    HA20276   3.922   0.886  10.875  0.2953  0.1663 -0.6745
  178SLPC    HB20277   3.810   0.835  10.763  0.7072  0.1065 -0.0224
  178SLPC    C220278   3.981   0.877  10.655 -0.8411 -0.1414 -0.1160
  178SLPC    HS20279   4.068   0.945  10.671 -1.6509  0.5507  1.5831
  178SLPC   O2120280   3.920   0.887  10.526 -0.3453 -0.0799  0.1936
  178SLPC   C2120281   3.915   1.013  10.477 -0.5555  0.2727 -0.1512
  178SLPC   O2220282   3.977   1.106  10.524 -0.0984  0.7260  0.3773
  178SLPC   C2220283   3.807   1.010  10.364  0.4497  0.8859 -0.1882
  178SLPC   H2R20284   3.817   0.914  10.310  0.0930  0.8079 -0.1209
  178SLPC   H2S20285   3.708   1.004  10.415  0.5840  0.1039 -0.0045
  178SLPC    C320286   4.027   0.737  10.662 -0.7196  0.1439 -0.8606
  178SLPC    HX20287   3.946   0.662  10.649 -1.4468  0.3252  1.9897
  178SLPC    HY20288   4.066   0.723  10.765 -1.8804 -1.2576 -0.5829
  178SLPC   O3120289   4.134   0.723  10.559 -0.2322 -0.3022  0.4013
  178SLPC   C3120290   4.229   0.631  10.592 -0.2905 -0.4501  0.4221
  178SLPC   O3220291   4.224   0.549  10.685  0.9104 -0.0650  0.3477
  178SLPC   C3220292   4.335   0.631  10.480  0.2463 -0.1225  0.4368
  178SLPC   H2X20293   4.441   0.642  10.509  0.6843  0.8444 -1.3759
  178SLPC   H2Y20294   4.315   0.725  10.425  2.7219  0.4683  0.4306
  178SLPC   C2320295   3.824   1.130  10.266  0.1443  0.2321 -1.3084
  178SLPC   H3R20296   3.930   1.140  10.235 -0.0070  0.8722 -1.6409
  178SLPC   H3S20297   3.804   1.226  10.319 -0.3915 -0.0772 -0.9353
  178SLPC   C2420298   3.743   1.116  10.140  0.4502 -0.3979  0.0810
  178SLPC   H4R20299   3.634   1.117  10.158  0.6950 -1.2133  1.8104
  178SLPC   H4S20300   3.786   1.024  10.093  0.6055 -0.2233 -0.1195
  178SLPC   C2520301   3.776   1.231  10.033  0.0773  0.6531  0.0875
  178SLPC   H5R20302   3.885   1.243  10.017  0.0376  2.9424  1.1048
  178SLPC   H5S20303   3.732   1.329  10.062  0.9361  1.3139 -0.8213
  178SLPC   C2620304   3.714   1.195   9.897  0.3504 -1.1899 -0.5702
  178SLPC   H6R20305   3.607   1.172   9.913  0.5071 -0.3389  2.2203
  178SLPC   H6S20306   3.773   1.106   9.864  2.1570  0.2995 -1.6098
  178SLPC   C2720307   3.711   1.322   9.806 -0.1921  0.4182 -0.0022
  178SLPC   H7R20308   3.817   1.338   9.779 -0.1870  0.8949  0.2793
  178SLPC   H7S20309   3.673   1.398   9.877 -1.2741 -0.2181  0.1306
  178SLPC   C2820310   3.620   1.319   9.684  0.3021  0.0536 -1.0923
  178SLPC   H8R20311   3.629   1.422   9.643 -1.0319  1.1259  1.1154
  178SLPC   H8S20312   3.516   1.300   9.718  0.5110  0.4287 -0.2104
  178SLPC   C2920313   3.669   1.216   9.585  0.1387  0.3385  0.2446
  178SLPC   H9R20314   3.635   1.112   9.588  3.4863 -0.9038 -0.5335
  178SLPC  C21020315   3.762   1.245   9.494  0.4963 -0.2388 -0.6446
  178SLPC  H10R20316   3.791   1.165   9.424  0.4248 -1.5576  0.7877
  178SLPC  C21120317   3.828   1.380   9.470 -0.2900  0.5226  0.5486
  178SLPC  H11R20318   3.922   1.342   9.423 -1.3706 -3.1957  1.0568
  178SLPC  H11S20319   3.859   1.420   9.569  0.1652 -0.3519  0.7682
  178SLPC  C21220320   3.757   1.483   9.386  0.0574 -0.2373  0.4121
  178SLPC  H12R20321   3.677   1.544   9.432 -0.2896 -0.9808  0.8147
  178SLPC  C21320322   3.762   1.507   9.251  0.4448  0.2267 -0.1430
  178SLPC  H13R20323   3.701   1.585   9.203 -1.2054 -1.1112 -0.3095
  178SLPC  C21420324   3.862   1.437   9.160 -0.2314  0.1760  0.5376
  178SLPC  H14R20325   3.959   1.418   9.211 -0.0406  3.1954  1.4539
  178SLPC  H14S20326   3.886   1.501   9.073 -0.5349  0.9288  0.9956
  178SLPC  C21520327   3.811   1.309   9.096  0.1738  0.1094  0.1093
  178SLPC  H15R20328   3.784   1.236   9.175  0.1081 -0.0860 -0.0928
  178SLPC  H15S20329   3.888   1.263   9.029 -1.2574 -0.9833 -0.8376
  178SLPC  C21620330   3.683   1.330   9.022 -0.1157  0.6787 -0.5761
  178SLPC  H16R20331   3.687   1.422   8.961 -0.2594  1.8207  1.0592
  178SLPC  H16S20332   3.604   1.348   9.098 -0.1825 -0.0307 -0.4684
  178SLPC  C21720333   3.652   1.197   8.953 -0.5241 -0.5271  0.4227
  178SLPC  H17R20334   3.639   1.113   9.024 -1.7581  0.8009  1.8498
  178SLPC  H17S20335   3.741   1.195   8.888 -0.3115  2.4026  0.4647
  178SLPC  C21820336   3.522   1.205   8.869  0.1844  0.2087 -0.0494
  178SLPC  H18R20337   3.527   1.274   8.782  1.4127  0.9272  0.5709
  178SLPC  H18S20338   3.448   1.242   8.943 -0.3282 -1.1551  0.1614
  178SLPC  H18T20339   3.509   1.095   8.856 -0.7993  0.0873  1.6219
  178SLPC   C3320340   4.318   0.508  10.386  0.4391 -0.1620  0.3083
  178SLPC   H3X20341   4.226   0.523  10.326  1.2931 -1.1077 -1.2868
  178SLPC   H3Y20342   4.293   0.410  10.433 -0.7431 -1.0061 -1.9384
  178SLPC   C3420343   4.436   0.493  10.301 -0.7839 -0.5263 -0.2674
  178SLPC   H4X20344   4.525   0.447  10.347 -0.6731 -0.7585 -0.7117
  178SLPC   H4Y20345   4.474   0.595  10.279  3.5802 -1.9719 -0.2694
  178SLPC   C3520346   4.401   0.435  10.162  0.2059 -0.2553 -0.4103
  178SLPC   H5X20347   4.313   0.367  10.162  1.1179 -1.4749 -0.7964
  178SLPC   H5Y20348   4.477   0.366  10.120  1.0760  0.5673 -0.2210
  178SLPC   C3620349   4.372   0.538  10.057  0.3953 -0.0404 -0.0251
  178SLPC   H6X20350   4.439   0.627  10.068 -0.5023  0.3177  3.9007
  178SLPC   H6Y20351   4.273   0.585  10.078  0.5642  0.3816 -0.1446
  178SLPC   C3720352   4.382   0.494   9.908  0.1857 -0.7235 -0.3312
  178SLPC   H7X20353   4.291   0.438   9.877  0.7064 -1.2853 -0.8855
  178SLPC   H7Y20354   4.463   0.418   9.902  1.1214  0.2740 -0.6408
  178SLPC   C3820355   4.394   0.617   9.815 -0.0244  0.7380 -0.1063
  178SLPC   H8X20356   4.494   0.665   9.821  1.4576 -2.2965  2.1969
  178SLPC   H8Y20357   4.328   0.690   9.867 -0.0178 -1.0674  2.6883
  178SLPC   C3920358   4.368   0.576   9.670 -0.1703 -0.0230  0.2519
  178SLPC   H9X20359   4.300   0.488   9.668  0.5132 -0.5585  0.3018
  178SLPC   H9Y20360   4.463   0.535   9.632  0.1905 -1.1307  2.2385
  178SLPC  C31020361   4.306   0.686   9.579 -0.1612 -0.3738 -0.0755
  178SLPC  H10X20362   4.377   0.768   9.553 -0.5734 -0.2437 -0.8118
  178SLPC  H10Y20363   4.220   0.735   9.630  2.2269  2.6340  1.3958
  178SLPC  C31120364   4.264   0.629   9.436  0.0592 -0.4134  0.3990
  178SLPC  H11X20365   4.238   0.720   9.377  1.6626  0.3401  0.7912
  178SLPC  H11Y20366   4.175   0.563   9.444 -2.0606  2.0317 -1.1755
  178SLPC  C31220367   4.372   0.548   9.359 -0.2933 -0.1945 -0.1060
  178SLPC  H12X20368   4.398   0.455   9.414 -2.2249 -1.8757 -1.8548
  178SLPC  H12Y20369   4.466   0.601   9.334  0.7648 -1.7447  0.4336
  178SLPC  C31320370   4.318   0.489   9.227  0.0147  0.0249  0.1508
  178SLPC  H13X20371   4.220   0.444   9.253  0.8828 -1.9067  0.2419
  178SLPC  H13Y20372   4.376   0.407   9.181 -2.4042 -2.2625  0.9219
  178SLPC  C31420373   4.290   0.599   9.133  0.4038 -0.6762  0.6833
  178SLPC  H14X20374   4.373   0.672   9.131 -0.8489  0.8245 -2.2958
  178SLPC  H14Y20375   4.201   0.657   9.165  0.6234 -0.6156  1.1980
  178SLPC  C31520376   4.282   0.551   8.987 -0.6698  0.0893  0.3773
  178SLPC  H15X20377   4.376   0.512   8.944 -0.0783  0.5134  1.2376
  178SLPC  H15Y20378   4.206   0.471   8.980 -0.0378 -0.5755  0.9594
  178SLPC  C31620379   4.238   0.662   8.890  0.6056 -0.1536  0.0686
  178SLPC  H16X20380   4.313   0.744   8.890 -0.3272  0.7435 -1.7914
  178SLPC  H16Y20381   4.145   0.696   8.940  1.8512  0.5208  2.0582
  178SLPC  C31720382   4.223   0.623   8.749 -0.3921 -0.4881  0.6810
  178SLPC  H17X20383   4.174   0.707   8.696 -1.2384  0.1855  2.4425
  178SLPC  H17Y20384   4.161   0.531   8.746 -1.1274  0.0103  0.2191
  178SLPC  C31820385   4.355   0.592   8.680  0.3800  0.8184 -0.4547
  178SLPC  H18X20386   4.427   0.676   8.685  0.4038  0.7310  1.7285
  178SLPC  H18Y20387   4.326   0.552   8.581  0.6301 -2.1995  0.5851
  178SLPC  H18Z20388   4.402   0.501   8.723 -1.9664 -0.7676 -1.0522
  179SLPC     N20389   0.421   3.467  10.490  0.2370 -0.2624 -0.4802
  179SLPC   C1320390   0.563   3.507  10.534  0.4261 -0.3805 -0.5469
  179SLPC  H13A20391   0.601   3.598  10.491  3.0076 -0.5995  1.0655
  179SLPC  H13B20392   0.571   3.518  10.642  1.5517 -0.6687 -0.5900
  179SLPC  H13C20393   0.635   3.431  10.510 -0.0538 -1.3430  0.8885
  179SLPC   C1420394   0.426   3.398  10.370  0.9880  0.2390  0.2510
  179SLPC  H14A20395   0.327   3.386  10.328  2.3630  1.7206 -3.9527
  179SLPC  H14B20396   0.475   3.457  10.294  0.3140  0.8028  0.2449
  179SLPC  H14C20397   0.472   3.301  10.377  0.1157 -0.2303 -0.3439
  179SLPC   C1520398   0.337   3.586  10.479 -0.6772 -0.0016  0.0635
  179SLPC  H15A20399   0.338   3.653  10.563  2.3787 -2.7942  2.5036
  179SLPC  H15B20400   0.375   3.649  10.399 -2.5559  3.0937  1.4240
  179SLPC  H15C20401   0.235   3.555  10.463 -0.2820 -2.1149  1.2936
  179SLPC   C1220402   0.365   3.370  10.593  0.2771 -0.0359  0.2433
  179SLPC  H12A20403   0.340   3.432  10.677  0.0541 -1.7760  1.5196
  179SLPC  H12B20404   0.444   3.303  10.626  1.2205 -0.3101 -2.3303
  179SLPC   C1120405   0.250   3.282  10.559 -0.1913  0.1456 -0.2333
  179SLPC  H11A20406   0.227   3.229  10.654  0.4459  0.0950 -0.1023
  179SLPC  H11B20407   0.291   3.208  10.487  3.4071 -0.0001  1.7064
  179SLPC     P20408   0.057   3.296  10.383  0.0334 -0.0348 -0.1728
  179SLPC   O1320409   0.104   3.163  10.355 -0.8028 -0.6678  0.8942
  179SLPC   O1420410  -0.092   3.319  10.390 -0.1688  0.4962  0.2746
  179SLPC   O1220411   0.130   3.346  10.515 -0.0859 -0.6086  0.0216
  179SLPC   O1120412   0.104   3.392  10.273  0.2940 -0.1826  0.1588
  179SLPC    C120413   0.043   3.378  10.145  0.5984  0.4428 -0.3992
  179SLPC    HA20414   0.125   3.344  10.078 -0.5736 -2.1334 -0.6748
  179SLPC    HB20415  -0.027   3.292  10.130  1.2384 -0.1756  0.0725
  179SLPC    C220416  -0.030   3.504  10.091  0.3145  0.3198  0.1123
  179SLPC    HS20417  -0.127   3.522  10.142  0.5547 -0.0138  0.6926
  179SLPC   O2120418  -0.042   3.486   9.951  0.1651  0.0975  0.8284
  179SLPC   C2120419  -0.142   3.411   9.906 -0.2897  0.2124  0.7552
  179SLPC   O2220420  -0.231   3.357   9.973  0.1425  0.0699  0.3509
  179SLPC   C2220421  -0.132   3.400   9.753 -0.0618 -0.0774  0.5008
  179SLPC   H2R20422  -0.119   3.505   9.719  1.5348 -0.3722  0.1311
  179SLPC   H2S20423  -0.036   3.353   9.723  0.7860  0.3020  2.4200
  179SLPC    C320424   0.056   3.622  10.110 -0.4976 -0.2780  0.2708
  179SLPC    HX20425   0.158   3.608  10.067  0.8408 -1.7063  3.5957
  179SLPC    HY20426   0.062   3.630  10.221  0.2860  0.0819  0.2090
  179SLPC   O3120427  -0.014   3.738  10.060  0.2589 -0.4386 -0.3520
  179SLPC   C3120428   0.056   3.842  10.030 -0.0312 -0.0396 -0.2045
  179SLPC   O3220429   0.173   3.858  10.049 -0.7904 -0.3982  0.1324
  179SLPC   C3220430  -0.028   3.955   9.966  0.1725  0.6492 -0.3425
  179SLPC   H2X20431  -0.108   3.977  10.039  0.0728 -1.3768  0.2199
  179SLPC   H2Y20432  -0.066   3.914   9.870  2.2330 -1.3321 -0.3988
  179SLPC   C2320433  -0.260   3.339   9.684  0.6912  0.3743  0.7411
  179SLPC   H3R20434  -0.339   3.397   9.737  0.2846  1.9746 -1.4657
  179SLPC   H3S20435  -0.274   3.231   9.707  0.8712  0.6103  2.0791
  179SLPC   C2420436  -0.259   3.365   9.533 -0.0296  0.6580  0.1495
  179SLPC   H4R20437  -0.194   3.452   9.507  0.6628 -0.1250 -0.8289
  179SLPC   H4S20438  -0.360   3.392   9.495 -0.0004  0.5066 -0.0338
  179SLPC   C2520439  -0.214   3.243   9.451 -0.0760  0.1630  0.2518
  179SLPC   H5R20440  -0.285   3.158   9.460 -1.5400  1.4620  1.5308
  179SLPC   H5S20441  -0.110   3.211   9.470 -0.2149 -1.7472 -1.7944
  179SLPC   C2620442  -0.195   3.282   9.305  0.1033  1.0491  0.2197
  179SLPC   H6R20443  -0.189   3.392   9.296  1.1614  0.8684 -2.0252
  179SLPC   H6S20444  -0.288   3.248   9.255  0.6386 -3.1445  1.7059
  179SLPC   C2720445  -0.073   3.222   9.229  0.1969  0.2481 -0.8981
  179SLPC   H7R20446  -0.091   3.112   9.220  0.7144 -0.1039  1.6364
  179SLPC   H7S20447   0.017   3.225   9.294 -1.2508 -4.3939  1.8969
  179SLPC   C2820448  -0.038   3.289   9.093 -0.1729 -0.0872  0.0666
  179SLPC   H8R20449   0.054   3.231   9.071 -0.4517 -0.5305  0.0531
  179SLPC   H8S20450  -0.021   3.398   9.111 -2.2472  0.1753  0.6571
  179SLPC   C2920451  -0.140   3.264   8.982 -0.0013 -0.2639 -0.1697
  179SLPC   H9R20452  -0.231   3.318   9.013  0.8371  0.3483  1.3699
  179SLPC  C21020453  -0.135   3.185   8.875  0.0466  0.1838  0.4208
  179SLPC  H10R20454  -0.216   3.199   8.802  1.8205  1.3480 -1.4254
  179SLPC  C21120455  -0.024   3.100   8.821 -0.9157 -0.0302  0.4821
  179SLPC  H11R20456  -0.024   3.000   8.868  1.1468  0.3748  1.4727
  179SLPC  H11S20457   0.075   3.140   8.851 -0.2010  1.0957 -2.8782
  179SLPC  C21220458  -0.011   3.083   8.671 -0.3389 -0.2287  0.0793
  179SLPC  H12R20459   0.073   3.141   8.630 -1.9636  1.2631 -1.2845
  179SLPC  C21320460  -0.103   3.038   8.576 -1.1841 -0.2205 -0.2371
  179SLPC  H13R20461  -0.069   3.039   8.471  0.0132 -0.5954  0.1306
  179SLPC  C21420462  -0.242   2.982   8.599  0.6480 -0.3557  0.0799
  179SLPC  H14R20463  -0.324   3.034   8.545  0.1429 -0.5852  0.6075
  179SLPC  H14S20464  -0.267   3.002   8.705  1.2222  0.7349  0.0166
  179SLPC  C21520465  -0.252   2.832   8.568  0.1334 -0.2796 -0.9024
  179SLPC  H15R20466  -0.174   2.779   8.627 -0.1824 -0.7580 -0.9075
  179SLPC  H15S20467  -0.234   2.820   8.459  2.3680  4.5196 -1.3083
  179SLPC  C21620468  -0.392   2.765   8.612 -0.0347  0.5315  0.0315
  179SLPC  H16R20469  -0.467   2.838   8.576  0.5286  0.6582 -0.9061
  179SLPC  H16S20470  -0.384   2.764   8.723  1.4154  0.1757 -0.0538
  179SLPC  C21720471  -0.415   2.632   8.555 -0.1376  0.3074  0.0449
  179SLPC  H17R20472  -0.349   2.554   8.598 -0.1906 -0.4361 -1.1673
  179SLPC  H17S20473  -0.390   2.626   8.447 -2.1681 -0.0719 -0.4591
  179SLPC  C21820474  -0.566   2.593   8.580 -0.0453 -0.0278  0.5733
  179SLPC  H18R20475  -0.576   2.587   8.691 -1.2378  4.8759  0.9695
  179SLPC  H18S20476  -0.583   2.496   8.528  0.5433 -1.1386  2.3639
  179SLPC  H18T20477  -0.633   2.670   8.536  2.0498  1.4819 -0.0844
  179SLPC   C3320478   0.029   4.092   9.956  0.0402  0.1278  0.0424
  179SLPC   H3X20479   0.088   4.117  10.047  0.3264  1.1535 -0.4066
  179SLPC   H3Y20480  -0.054   4.166   9.960  1.8141  2.3647 -1.6535
  179SLPC   C3420481   0.115   4.135   9.834  0.1718  0.1747  0.4268
  179SLPC   H4X20482   0.165   4.042   9.799 -2.1254 -0.8483 -0.3147
  179SLPC   H4Y20483   0.192   4.202   9.877  1.1717 -0.3519 -0.4943
  179SLPC   C3520484   0.035   4.190   9.718  0.5881 -0.0881  0.6524
  179SLPC   H5X20485  -0.005   4.287   9.755 -1.5286 -0.9575  0.7901
  179SLPC   H5Y20486  -0.045   4.124   9.679 -0.0078  2.2374 -2.4228
  179SLPC   C3620487   0.124   4.215   9.594  0.6997 -0.0252  0.4200
  179SLPC   H6X20488   0.143   4.123   9.535 -0.9468  0.2950 -0.6500
  179SLPC   H6Y20489   0.217   4.258   9.637  0.3263  1.0630  0.1742
  179SLPC   C3720490   0.069   4.311   9.493  0.8731 -0.2203 -0.0169
  179SLPC   H7X20491   0.022   4.399   9.541  0.8644  1.1007 -2.3508
  179SLPC   H7Y20492  -0.021   4.265   9.446 -0.5207  1.3553  1.0363
  179SLPC   C3820493   0.179   4.344   9.388  0.6345  0.1984 -0.6403
  179SLPC   H8X20494   0.224   4.247   9.357 -1.5585 -0.9238 -0.5107
  179SLPC   H8Y20495   0.256   4.404   9.441 -2.6850  2.0603  2.5369
  179SLPC   C3920496   0.126   4.426   9.265  0.3868  0.1487  0.5271
  179SLPC   H9X20497   0.034   4.485   9.289 -0.5857 -0.6446 -1.0838
  179SLPC   H9Y20498   0.080   4.356   9.192 -1.2092  0.4313  1.2073
  179SLPC  C31020499   0.240   4.514   9.199 -0.4335  0.2920 -0.1583
  179SLPC  H10X20500   0.328   4.456   9.163 -1.0330 -0.7052 -0.0447
  179SLPC  H10Y20501   0.279   4.583   9.277  0.0485 -2.0309  1.7433
  179SLPC  C31120502   0.188   4.597   9.084  0.0602  0.2878 -0.6892
  179SLPC  H11X20503   0.266   4.673   9.063 -0.6386  0.6331 -2.2400
  179SLPC  H11Y20504   0.101   4.659   9.114  1.9214  2.9657 -0.5312
  179SLPC  C31220505   0.158   4.522   8.952 -0.8601  0.6300  0.2353
  179SLPC  H12X20506   0.072   4.454   8.973 -1.8140  0.6533 -3.0546
  179SLPC  H12Y20507   0.253   4.474   8.919 -1.4759 -0.5410  0.1132
  179SLPC  C31320508   0.102   4.610   8.839 -0.5414 -0.4203  1.1524
  179SLPC  H13X20509   0.177   4.690   8.822 -0.9276 -0.3101 -0.1570
  179SLPC  H13Y20510   0.006   4.658   8.870 -0.0836  1.1486  0.2592
  179SLPC  C31420511   0.081   4.528   8.705  0.6243 -0.3428 -0.0390
  179SLPC  H14X20512  -0.000   4.454   8.723  0.2995  0.1458  0.5523
  179SLPC  H14Y20513   0.173   4.477   8.670 -0.4018 -2.1378 -0.2599
  179SLPC  C31520514   0.041   4.634   8.600 -0.3053 -0.2616  0.4712
  179SLPC  H15X20515   0.117   4.715   8.600  1.9785 -2.2647 -0.6561
  179SLPC  H15Y20516  -0.062   4.676   8.606 -0.7920 -1.0942 -1.2169
  179SLPC  C31620517   0.036   4.574   8.457  0.3872 -0.3313 -0.8188
  179SLPC  H16X20518  -0.059   4.518   8.446 -0.9170  1.8311 -1.1223
  179SLPC  H16Y20519   0.115   4.496   8.452 -1.2714 -2.0840 -0.8300
  179SLPC  C31720520   0.049   4.671   8.337 -0.5692  0.4890  0.3390
  179SLPC  H17X20521  -0.035   4.743   8.345 -0.5016  0.8124 -1.4420
  179SLPC  H17Y20522   0.045   4.620   8.238 -0.0857  0.4419  0.3384
  179SLPC  C31820523   0.182   4.742   8.327 -0.4962  0.6799  0.7749
  179SLPC  H18X20524   0.171   4.813   8.242 -1.6078 -1.4566 -0.9762
  179SLPC  H18Y20525   0.268   4.677   8.299  0.4852  1.6830  1.3618
  179SLPC  H18Z20526   0.217   4.797   8.417 -0.8618  3.9058 -0.9165
  180SLPC     N20527   6.513   1.186  10.882  0.2018  0.4758 -0.4726
  180SLPC   C1320528   6.398   1.117  10.943  1.3203 -0.0521 -0.1306
  180SLPC  H13A20529   6.422   1.073  11.039 -0.2364 -1.0644 -0.1710
  180SLPC  H13B20530   6.311   1.179  10.961  0.8487  0.9255 -4.5986
  180SLPC  H13C20531   6.375   1.031  10.882 -0.5502  0.2992  0.0186
  180SLPC   C1420532   6.636   1.102  10.891 -0.0493 -0.3846  0.2679
  180SLPC  H14A20533   6.720   1.155  10.848  0.0384 -0.5693  0.2102
  180SLPC  H14B20534   6.672   1.089  10.992  1.4538 -1.4457 -0.3593
  180SLPC  H14C20535   6.632   1.009  10.836 -0.3320  0.1415 -0.6192
  180SLPC   C1520536   6.534   1.313  10.952 -0.0075  0.2645  0.0369
  180SLPC  H15A20537   6.544   1.290  11.057 -3.1456 -0.0251  0.3664
  180SLPC  H15B20538   6.617   1.362  10.905  0.8395 -0.2745  0.9294
  180SLPC  H15C20539   6.442   1.369  10.945 -2.0196 -2.7293  0.7601
  180SLPC   C1220540   6.476   1.226  10.742 -0.0873 -0.4966  0.8321
  180SLPC  H12A20541   6.377   1.269  10.749 -0.3673 -0.3102 -2.6992
  180SLPC  H12B20542   6.468   1.138  10.681  1.6102  0.9776 -1.6731
  180SLPC   C1120543   6.570   1.319  10.664 -0.1676  0.4273 -0.2223
  180SLPC  H11A20544   6.582   1.418  10.715 -1.3700 -0.1047  1.1748
  180SLPC  H11B20545   6.519   1.336  10.567  1.0458  0.9266 -0.8061
  180SLPC     P20546   6.703   1.135  10.531  0.2841  0.0244 -0.1723
  180SLPC   O1320547   6.794   1.040  10.594 -0.0216 -0.1672  0.2010
  180SLPC   O1420548   6.560   1.087  10.503 -0.3676  0.2974  0.0361
  180SLPC   O1220549   6.698   1.259  10.630  0.2035  0.9335 -0.6821
  180SLPC   O1120550   6.774   1.199  10.401 -0.2857  0.3677 -0.2821
  180SLPC    C120551   6.869   1.305  10.408  0.2501  0.1929  0.6578
  180SLPC    HA20552   6.833   1.406  10.380 -0.7099 -0.3228 -0.0054
  180SLPC    HB20553   6.924   1.317  10.504  3.4405  0.2382 -1.0209
  180SLPC    C220554   6.986   1.288  10.304 -0.2153  0.3080  0.9651
  180SLPC    HS20555   7.061   1.369  10.305 -1.0094  1.5201 -4.9937
  180SLPC   O2120556   6.941   1.270  10.163 -0.0558  0.1419  0.4541
  180SLPC   C2120557   6.892   1.388  10.112 -0.2239 -0.1749  0.4807
  180SLPC   O2220558   6.890   1.493  10.175 -0.3162  0.1881  0.4634
  180SLPC   C2220559   6.851   1.372   9.962 -0.2632 -0.0833  0.0714
  180SLPC   H2R20560   6.747   1.410   9.957 -0.0582  0.4772  0.0132
  180SLPC   H2S20561   6.923   1.435   9.905 -1.2105  0.6055 -0.3842
  180SLPC    C320562   7.073   1.166  10.353 -0.3818 -0.9907 -0.1523
  180SLPC    HX20563   7.012   1.076  10.334  1.3093 -2.7031  1.8955
  180SLPC    HY20564   7.083   1.170  10.464  0.8705 -0.4252 -0.2643
  180SLPC   O3120565   7.202   1.162  10.291 -0.4512  0.5034  0.6954
  180SLPC   C3120566   7.263   1.043  10.296  0.1456 -1.1411  0.1813
  180SLPC   O3220567   7.226   0.944  10.350  0.0507  0.1310 -0.5842
  180SLPC   C3220568   7.377   1.049  10.191  0.3156  0.3282  0.1918
  180SLPC   H2X20569   7.469   1.026  10.248 -0.0784 -0.7968  0.3911
  180SLPC   H2Y20570   7.392   1.152  10.151  0.3796  0.2453  0.0023
  180SLPC   C2320571   6.865   1.218   9.907 -0.0629  0.0171  0.3191
  180SLPC   H3R20572   6.805   1.155   9.977 -1.3197 -0.6356 -1.2820
  180SLPC   H3S20573   6.972   1.188   9.902 -0.1122  0.0711 -1.5277
  180SLPC   C2420574   6.813   1.209   9.761  0.3362 -0.0851  0.6288
  180SLPC   H4R20575   6.722   1.270   9.742 -0.2543 -0.8274  1.0548
  180SLPC   H4S20576   6.783   1.104   9.742 -0.8572  0.4601 -0.6161
  180SLPC   C2520577   6.919   1.253   9.660  0.7663  0.2702 -0.6818
  180SLPC   H5R20578   7.004   1.182   9.656 -1.3797 -2.5713  0.7817
  180SLPC   H5S20579   6.951   1.354   9.695 -0.3476  0.1983  0.6010
  180SLPC   C2620580   6.860   1.255   9.519 -0.0138  0.0520 -0.7078
  180SLPC   H6R20581   6.770   1.317   9.537 -0.3869 -0.9673  1.1738
  180SLPC   H6S20582   6.832   1.151   9.493 -0.4866  0.6458 -2.8001
  180SLPC   C2720583   6.941   1.317   9.409 -0.4622 -0.2428 -0.3313
  180SLPC   H7R20584   7.039   1.264   9.406 -0.6976 -0.8879  1.7376
  180SLPC   H7S20585   6.966   1.423   9.432  1.4731 -0.7691  0.1916
  180SLPC   C2820586   6.876   1.300   9.268 -0.2729 -0.2911 -0.3143
  180SLPC   H8R20587   6.909   1.381   9.200 -0.0800  0.6584  0.8637
  180SLPC   H8S20588   6.770   1.326   9.284  0.0881 -0.3629  2.8245
  180SLPC   C2920589   6.889   1.162   9.212 -0.3420  0.3581  0.1256
  180SLPC   H9R20590   6.882   1.084   9.290  2.2818  1.3538  1.4875
  180SLPC  C21020591   6.914   1.144   9.079 -0.3877 -0.0866 -0.8939
  180SLPC  H10R20592   6.918   1.042   9.038 -0.3982 -0.2382 -0.5216
  180SLPC  C21120593   6.938   1.251   8.968  0.2887 -0.8185  0.0335
  180SLPC  H11R20594   7.040   1.232   8.930  0.5143 -0.4239  0.4388
  180SLPC  H11S20595   6.957   1.352   9.009 -1.9963 -0.1446 -0.3889
  180SLPC  C21220596   6.828   1.261   8.859 -0.2560 -1.0683 -0.6471
  180SLPC  H12R20597   6.734   1.301   8.898 -0.5456 -1.5008 -0.8941
  180SLPC  C21320598   6.834   1.231   8.729  0.1777 -0.6980 -0.2875
  180SLPC  H13R20599   6.753   1.263   8.662 -1.0383  0.2453  1.5581
  180SLPC  C21420600   6.962   1.208   8.658  0.0321  0.4569 -0.5010
  180SLPC  H14R20601   6.958   1.104   8.620 -1.3091 -0.5619  2.1762
  180SLPC  H14S20602   7.047   1.200   8.729 -0.7445 -0.6078  0.3233
  180SLPC  C21520603   6.989   1.296   8.532  0.2514 -0.2851  0.2649
  180SLPC  H15R20604   7.083   1.250   8.495 -1.4232 -1.4592 -2.8879
  180SLPC  H15S20605   7.013   1.401   8.557 -1.8152 -0.0283  1.4677
  180SLPC  C21620606   6.889   1.285   8.419 -0.3572  1.0504 -0.1190
  180SLPC  H16R20607   6.818   1.202   8.441 -1.3287  1.7560 -0.5076
  180SLPC  H16S20608   6.942   1.270   8.322  1.4036  1.9823  0.6603
  180SLPC  C21720609   6.794   1.408   8.391  0.4777  0.0630 -0.4043
  180SLPC  H17R20610   6.855   1.500   8.377  1.2269 -0.0527  1.6935
  180SLPC  H17S20611   6.738   1.428   8.485 -0.7977  2.0833 -1.5315
  180SLPC  C21820612   6.695   1.382   8.273 -0.5831  0.3813  0.6229
  180SLPC  H18R20613   6.615   1.459   8.269 -2.2339 -1.2036  1.5142
  180SLPC  H18S20614   6.641   1.286   8.283  1.1224 -0.7178 -0.3317
  180SLPC  H18T20615   6.743   1.357   8.176  1.4163  1.4418  1.2592
  180SLPC   C3320616   7.348   0.953  10.072 -0.0656  0.6054 -0.2190
  180SLPC   H3X20617   7.242   0.921  10.076  0.2401 -0.2838  2.6924
  180SLPC   H3Y20618   7.406   0.863  10.102  1.1641  1.0203 -1.2637
  180SLPC   C3420619   7.375   0.992   9.926  0.1154  0.2320 -0.1060
  180SLPC   H4X20620   7.291   1.062   9.906 -0.9208 -1.5804 -2.7092
  180SLPC   H4Y20621   7.350   0.908   9.858  1.6944 -0.2979 -0.0603
  180SLPC   C3520622   7.511   1.045   9.899 -0.2662  0.0183  0.1118
  180SLPC   H5X20623   7.590   0.971   9.923  0.4239  1.9981  5.3177
  180SLPC   H5Y20624   7.524   1.133   9.966  0.8885  0.9092 -1.2312
  180SLPC   C3620625   7.541   1.091   9.763  0.2368  0.4080  0.0306
  180SLPC   H6X20626   7.628   1.160   9.759 -0.8113  1.9269  1.9429
  180SLPC   H6Y20627   7.443   1.138   9.737 -0.5502 -1.3936 -0.3710
  180SLPC   C3720628   7.550   0.969   9.664 -0.8810 -0.4538  0.0369
  180SLPC   H7X20629   7.464   0.904   9.688 -0.1404 -0.4929  3.0937
  180SLPC   H7Y20630   7.645   0.913   9.672 -0.2443  0.6479  0.5199
  180SLPC   C3820631   7.563   1.010   9.514  0.2038 -0.2902  0.1940
  180SLPC   H8X20632   7.558   0.911   9.465  0.5555  1.0462 -2.7037
  180SLPC   H8Y20633   7.664   1.052   9.496 -0.3666  1.1848  0.2758
  180SLPC   C3920634   7.456   1.101   9.463 -0.2252 -0.0549  0.1017
  180SLPC   H9X20635   7.476   1.201   9.507 -0.4053 -0.5523  1.3412
  180SLPC   H9Y20636   7.356   1.059   9.489 -0.5154  0.3172 -0.3778
  180SLPC  C31020637   7.451   1.120   9.308 -0.6647 -0.3451  0.2056
  180SLPC  H10X20638   7.445   1.024   9.252  1.3711 -0.4264  0.0637
  180SLPC  H10Y20639   7.547   1.162   9.272 -1.1618  0.4395 -0.2147
  180SLPC  C31120640   7.348   1.228   9.273  0.4174  0.0799 -0.2459
  180SLPC  H11X20641   7.357   1.316   9.340 -1.4658 -0.9445  1.4521
  180SLPC  H11Y20642   7.251   1.175   9.286  1.8222 -2.7894 -0.7204
  180SLPC  C31220643   7.352   1.280   9.132 -0.0039  0.1110  0.3245
  180SLPC  H12X20644   7.455   1.296   9.093 -0.2452  0.6412 -0.1018
  180SLPC  H12Y20645   7.294   1.374   9.118 -0.2899 -0.1846 -0.5137
  180SLPC  C31320646   7.281   1.178   9.043 -0.6963 -0.3983  0.3530
  180SLPC  H13X20647   7.172   1.179   9.064 -1.1700  0.0766 -1.8813
  180SLPC  H13Y20648   7.330   1.081   9.068 -0.7280 -0.0386  1.8678
  180SLPC  C31420649   7.315   1.189   8.891 -0.2479  0.5439  0.8988
  180SLPC  H14X20650   7.422   1.217   8.876  0.2141 -1.2071  0.7303
  180SLPC  H14Y20651   7.278   1.284   8.846  1.6443  1.1358  0.4902
  180SLPC  C31520652   7.282   1.059   8.808 -0.1282  0.4438 -0.1131
  180SLPC  H15X20653   7.174   1.038   8.822 -0.2482  1.8741  1.2769
  180SLPC  H15Y20654   7.355   0.979   8.835 -1.8471 -0.8968  0.7091
  180SLPC  C31620655   7.315   1.087   8.662  0.2083  0.4969  0.2027
  180SLPC  H16X20656   7.422   1.072   8.640 -0.2531 -2.3436 -0.4781
  180SLPC  H16Y20657   7.277   1.185   8.627  0.1725  0.5664  0.4353
  180SLPC  C31720658   7.248   0.973   8.576  0.4049  0.4715 -0.1497
  180SLPC  H17X20659   7.262   0.984   8.467  2.7540 -1.7274 -0.1634
  180SLPC  H17Y20660   7.138   0.984   8.590  0.6913  3.7437  0.2740
  180SLPC  C31820661   7.294   0.830   8.615  0.0096  0.2488 -0.0191
  180SLPC  H18X20662   7.349   0.770   8.540  0.0572 -0.8797  0.8806
  180SLPC  H18Y20663   7.200   0.778   8.645  0.1548 -0.4203 -0.7013
  180SLPC  H18Z20664   7.363   0.822   8.702 -0.8104 -1.1237  0.5457
  181SLPC     N20665   4.800   5.675  10.944 -0.2534  0.0132  0.2879
  181SLPC   C1320666   4.944   5.704  10.919 -0.2381  0.1791  0.1865
  181SLPC  H13A20667   5.008   5.618  10.932  1.1676  1.2327  0.5270
  181SLPC  H13B20668   4.956   5.745  10.819 -1.9407  0.2371 -0.0259
  181SLPC  H13C20669   4.984   5.780  10.984 -0.1934  1.0124 -0.7882
  181SLPC   C1420670   4.778   5.618  11.082 -0.6946  0.1184  0.1056
  181SLPC  H14A20671   4.815   5.518  11.095  0.9406  0.7432  0.5585
  181SLPC  H14B20672   4.826   5.677  11.159  0.8565  0.1514 -0.8396
  181SLPC  H14C20673   4.677   5.623  11.118 -0.3649 -2.5869  1.6962
  181SLPC   C1520674   4.753   5.575  10.838  0.4523 -0.1296  0.2133
  181SLPC  H15A20675   4.763   5.614  10.738  1.2501  2.3878  1.2038
  181SLPC  H15B20676   4.800   5.477  10.838 -0.5073 -0.6051  0.4823
  181SLPC  H15C20677   4.649   5.551  10.856  0.1151 -1.9475 -3.2651
  181SLPC   C1220678   4.716   5.798  10.936  0.2444  0.7003 -0.0278
  181SLPC  H12A20679   4.696   5.814  10.831 -2.2179  0.0230  0.2685
  181SLPC  H12B20680   4.760   5.887  10.980  0.4627 -0.7088  2.7678
  181SLPC   C1120681   4.570   5.790  10.979 -0.1299  0.3057 -0.2594
  181SLPC  H11A20682   4.529   5.889  10.948 -1.8580 -0.4655 -0.5754
  181SLPC  H11B20683   4.563   5.788  11.090 -1.0661  0.7863 -0.3001
  181SLPC     P20684   4.342   5.660  10.940 -0.0717 -0.2119 -0.2601
  181SLPC   O1320685   4.334   5.532  11.016  0.3275 -0.0393  0.1265
  181SLPC   O1420686   4.290   5.778  11.012 -0.1496 -0.0954 -0.3578
  181SLPC   O1220687   4.497   5.688  10.910 -0.0593 -0.0982 -0.3742
  181SLPC   O1120688   4.263   5.648  10.801 -0.1557 -0.3037  0.1010
  181SLPC    C120689   4.193   5.761  10.749 -0.3170 -0.5963  0.3845
  181SLPC    HA20690   4.110   5.726  10.685 -1.3758  0.6388  1.0271
  181SLPC    HB20691   4.134   5.808  10.831 -0.4274 -0.3398  0.1578
  181SLPC    C220692   4.294   5.866  10.683 -0.2659 -0.3756  0.2035
  181SLPC    HS20693   4.346   5.922  10.763  0.3000 -0.0931 -0.3504
  181SLPC   O2120694   4.206   5.947  10.588 -0.3582  0.4571 -0.7263
  181SLPC   C2120695   4.217   6.079  10.611  0.1451  0.1085  0.6136
  181SLPC   O2220696   4.279   6.130  10.706  0.3430  0.5634  0.6065
  181SLPC   C2220697   4.155   6.148  10.483  0.2201 -0.5596  0.2093
  181SLPC   H2R20698   4.186   6.096  10.390  0.9101  1.3436 -0.6742
  181SLPC   H2S20699   4.045   6.134  10.491  0.4106 -1.8049  0.9322
  181SLPC    C320700   4.403   5.789  10.602 -0.4805 -0.4236 -0.2396
  181SLPC    HX20701   4.354   5.703  10.552  0.3534 -0.9755 -0.1316
  181SLPC    HY20702   4.470   5.746  10.680  1.6759  0.3436 -1.5717
  181SLPC   O3120703   4.469   5.875  10.506 -0.4250 -0.2683 -0.0467
  181SLPC   C3120704   4.588   5.919  10.537  0.7397 -0.9047  0.1474
  181SLPC   O3220705   4.643   5.904  10.642 -0.2002 -0.2145 -0.1795
  181SLPC   C3220706   4.638   6.005  10.425 -0.5910 -0.1986 -0.1412
  181SLPC   H2X20707   4.596   5.962  10.332  0.4283 -1.1932 -0.1585
  181SLPC   H2Y20708   4.747   5.989  10.412 -0.5583  0.6300 -0.9056
  181SLPC   C2320709   4.182   6.299  10.473 -0.1964  0.3809  0.2199
  181SLPC   H3R20710   4.291   6.320  10.475 -0.4265  1.7059  2.1457
  181SLPC   H3S20711   4.120   6.345  10.553 -2.2507  0.1036 -1.1483
  181SLPC   C2420712   4.135   6.347  10.332  0.0472 -0.3138  0.1216
  181SLPC   H4R20713   4.124   6.457  10.316 -0.9430 -0.4247 -0.0062
  181SLPC   H4S20714   4.036   6.300  10.318  0.2513 -0.8380  0.4282
  181SLPC   C2520715   4.233   6.305  10.219  0.1652  0.2734  0.4307
  181SLPC   H5R20716   4.218   6.195  10.222  0.4631  0.2453  2.2343
  181SLPC   H5S20717   4.341   6.321  10.244 -0.0642  0.3447  1.4110
  181SLPC   C2620718   4.187   6.355  10.080  0.1057 -0.0732 -0.1381
  181SLPC   H6R20719   4.225   6.458  10.065  3.7197 -1.3294 -0.4851
  181SLPC   H6S20720   4.076   6.355  10.075  0.0747  0.9377  0.3431
  181SLPC   C2720721   4.242   6.263   9.972  0.5948  0.2520  1.0176
  181SLPC   H7R20722   4.192   6.164   9.964  0.3073  0.3376  1.7615
  181SLPC   H7S20723   4.341   6.245  10.018  0.8031 -0.7710  0.2297
  181SLPC   C2820724   4.266   6.338   9.836  0.3208  0.5179 -0.2578
  181SLPC   H8R20725   4.327   6.266   9.777  0.1853 -1.8095  2.2221
  181SLPC   H8S20726   4.335   6.421   9.860  2.1789 -1.1051  0.2960
  181SLPC   C2920727   4.141   6.389   9.770 -0.0253  0.0381  0.4459
  181SLPC   H9R20728   4.064   6.442   9.827 -0.8745  1.3474 -1.7971
  181SLPC  C21020729   4.119   6.362   9.638 -0.4261 -0.4517 -0.5571
  181SLPC  H10R20730   4.035   6.416   9.591 -0.2346  0.8345  0.5141
  181SLPC  C21120731   4.205   6.284   9.541 -0.1625  0.0279  0.7328
  181SLPC  H11R20732   4.136   6.230   9.473 -1.5487  3.1424 -0.5201
  181SLPC  H11S20733   4.258   6.198   9.586  0.5608  0.1397  0.1205
  181SLPC  C21220734   4.309   6.362   9.464  0.4366 -0.0287  0.6221
  181SLPC  H12R20735   4.401   6.374   9.523  1.1413  0.4701 -0.5331
  181SLPC  C21320736   4.306   6.423   9.346  0.3280  0.1828  0.3811
  181SLPC  H13R20737   4.398   6.465   9.303  0.8591  0.2137  1.5138
  181SLPC  C21420738   4.183   6.409   9.255  0.0980 -0.8085 -0.3300
  181SLPC  H14R20739   4.087   6.384   9.305 -0.2484 -0.8822 -1.0142
  181SLPC  H14S20740   4.204   6.315   9.200  1.9448 -0.9797  0.5879
  181SLPC  C21520741   4.155   6.541   9.169 -0.8134  0.5963 -0.0363
  181SLPC  H15R20742   4.245   6.559   9.106 -0.8399  0.8806  0.0020
  181SLPC  H15S20743   4.155   6.621   9.246  1.4893 -0.4422  1.1398
  181SLPC  C21620744   4.026   6.529   9.096  0.6827  0.0515  0.2593
  181SLPC  H16R20745   4.021   6.622   9.035  1.2064  2.2269  3.3005
  181SLPC  H16S20746   3.942   6.521   9.168 -0.0586 -0.4486 -0.6422
  181SLPC  C21720747   4.031   6.419   8.983  0.4146 -0.3364  0.2908
  181SLPC  H17R20748   4.025   6.317   9.027 -1.6573 -0.1742  0.4739
  181SLPC  H17S20749   4.126   6.426   8.927  1.3357  1.1947  1.9361
  181SLPC  C21820750   3.906   6.435   8.888 -0.8557 -0.5271  0.0363
  181SLPC  H18R20751   3.813   6.425   8.948  0.6562 -1.9375  2.2976
  181SLPC  H18S20752   3.906   6.355   8.810 -0.0958  0.8738 -1.4592
  181SLPC  H18T20753   3.904   6.534   8.837 -4.2055  0.4634  1.8224
  181SLPC   C3320754   4.597   6.151  10.435  0.0896  0.2319 -0.2708
  181SLPC   H3X20755   4.626   6.194  10.533 -2.3499 -2.3525  1.7629
  181SLPC   H3Y20756   4.488   6.169  10.425  0.0459 -0.3925 -1.0905
  181SLPC   C3420757   4.656   6.239  10.324  0.1783 -0.0589 -0.5780
  181SLPC   H4X20758   4.765   6.248  10.344 -0.1469 -1.0805  1.9737
  181SLPC   H4Y20759   4.603   6.335  10.341 -1.3087 -0.5830 -2.0035
  181SLPC   C3520760   4.640   6.176  10.180 -0.0926  0.0937 -0.0058
  181SLPC   H5X20761   4.534   6.158  10.152 -0.2964  0.2604  0.6628
  181SLPC   H5Y20762   4.689   6.076  10.172  0.7632  0.5941 -1.4186
  181SLPC   C3620763   4.714   6.256  10.075 -0.1734 -0.6543 -0.2422
  181SLPC   H6X20764   4.825   6.255  10.083 -0.2022 -1.3703  0.1788
  181SLPC   H6Y20765   4.674   6.359  10.090 -0.1016 -0.7462  0.6440
  181SLPC   C3720766   4.669   6.201   9.943  0.5439  0.5840 -0.6972
  181SLPC   H7X20767   4.560   6.216   9.952  0.7061  0.9105  1.0794
  181SLPC   H7Y20768   4.694   6.093   9.932  0.9828  0.5496  0.5706
  181SLPC   C3820769   4.708   6.281   9.820  0.3675  0.2491  0.9015
  181SLPC   H8X20770   4.819   6.292   9.821  0.3134  0.9743 -0.0359
  181SLPC   H8Y20771   4.667   6.383   9.836  2.2114  0.8021  2.5793
  181SLPC   C3920772   4.658   6.209   9.693 -0.0580 -0.0385  0.1880
  181SLPC   H9X20773   4.549   6.219   9.707 -0.6227 -4.4958  0.3279
  181SLPC   H9Y20774   4.688   6.102   9.694  0.4652  0.0208  3.7713
  181SLPC  C31020775   4.703   6.263   9.561 -0.6920 -0.5916 -0.0366
  181SLPC  H10X20776   4.814   6.255   9.552 -0.5196  0.5054  0.7995
  181SLPC  H10Y20777   4.668   6.369   9.566 -1.3048 -0.7236 -1.1558
  181SLPC  C31120778   4.636   6.206   9.438  0.5757  0.3383 -0.9014
  181SLPC  H11X20779   4.527   6.200   9.455  0.6901  2.5729  1.1420
  181SLPC  H11Y20780   4.679   6.104   9.423  2.1857  0.4953  1.8777
  181SLPC  C31220781   4.668   6.289   9.312 -0.0090  0.0522 -0.2539
  181SLPC  H12X20782   4.775   6.275   9.287  0.3153  0.7639  0.6728
  181SLPC  H12Y20783   4.661   6.396   9.341 -4.1557 -0.2480  0.5790
  181SLPC  C31320784   4.588   6.252   9.179 -0.7037  0.4516 -0.1419
  181SLPC  H13X20785   4.481   6.245   9.207 -1.1637  0.3456 -1.8306
  181SLPC  H13Y20786   4.613   6.152   9.136 -0.4642  1.2337 -1.9163
  181SLPC  C31420787   4.611   6.369   9.079  0.0258  0.3368 -0.8847
  181SLPC  H14X20788   4.721   6.383   9.068  0.2698  0.8699  1.5354
  181SLPC  H14Y20789   4.583   6.468   9.122  3.4412  0.2568  2.0344
  181SLPC  C31520790   4.557   6.337   8.937 -0.3655  0.5437  0.7435
  181SLPC  H15X20791   4.571   6.233   8.902  0.6799  1.3348 -1.3187
  181SLPC  H15Y20792   4.624   6.385   8.864 -0.6676  2.1491  1.4770
  181SLPC  C31620793   4.419   6.395   8.919 -0.4492  0.6895  0.8354
  181SLPC  H16X20794   4.421   6.499   8.958  0.7804  0.2984  1.9141
  181SLPC  H16Y20795   4.343   6.337   8.975  0.3102 -1.4913 -0.2853
  181SLPC  C31720796   4.369   6.381   8.776 -0.3590 -0.6852  0.1258
  181SLPC  H17X20797   4.269   6.428   8.771 -0.5559 -0.9608  1.3597
  181SLPC  H17Y20798   4.378   6.275   8.745  0.6400 -0.7033  0.4286
  181SLPC  C31820799   4.451   6.454   8.668  0.8096 -0.0583  0.2571
  181SLPC  H18X20800   4.466   6.557   8.708 -1.2177 -0.8794  3.5132
  181SLPC  H18Y20801   4.396   6.461   8.571  1.9738 -1.2947 -0.5266
  181SLPC  H18Z20802   4.547   6.407   8.638  0.1887 -0.9128 -0.4550
  182SLPC     N20803   2.057   6.035  11.109 -0.1339 -0.1984 -0.1475
  182SLPC   C1320804   1.933   5.951  11.137  0.4269  0.1433  0.1971
  182SLPC  H13A20805   1.882   5.924  11.045 -1.7042  2.1341  0.7233
  182SLPC  H13B20806   1.965   5.855  11.175  0.0136 -0.0667  0.0165
  182SLPC  H13C20807   1.859   5.990  11.204  0.4353 -1.5396  1.2462
  182SLPC   C1420808   2.105   6.087  11.237 -0.3200  0.1160  0.0925
  182SLPC  H14A20809   2.117   6.010  11.312 -1.2270  1.2176  1.4195
  182SLPC  H14B20810   2.201   6.134  11.225 -0.7092  0.3124 -3.3025
  182SLPC  H14C20811   2.041   6.159  11.286 -0.1967 -0.2888  0.8673
  182SLPC   C1520812   2.017   6.146  11.028 -0.8226 -0.1679 -0.3743
  182SLPC  H15A20813   1.954   6.113  10.947  0.6269 -0.5047 -1.4159
  182SLPC  H15B20814   1.957   6.217  11.082 -1.8089  2.3145 -4.3222
  182SLPC  H15C20815   2.101   6.200  10.987 -0.0203  0.1812  1.6374
  182SLPC   C1220816   2.168   5.951  11.050  0.1049  0.2615 -0.0106
  182SLPC  H12A20817   2.195   5.871  11.118 -1.3621 -0.9063 -0.7463
  182SLPC  H12B20818   2.252   6.017  11.041 -0.6208  1.1606 -0.3435
  182SLPC   C1120819   2.144   5.890  10.909 -0.4295  0.6195 -0.3980
  182SLPC  H11A20820   2.243   5.851  10.877 -1.3722 -1.8617 -0.5800
  182SLPC  H11B20821   2.118   5.976  10.844 -0.2884  0.0274 -1.2558
  182SLPC     P20822   2.038   5.690  10.792  0.6664  0.6021 -0.1014
  182SLPC   O1320823   2.091   5.550  10.810  0.1378  0.8924  0.0217
  182SLPC   O1420824   1.891   5.681  10.772  0.5086  0.5750 -0.3882
  182SLPC   O1220825   2.055   5.779  10.917 -0.3438 -0.3548  0.5798
  182SLPC   O1120826   2.107   5.762  10.675 -0.2574  0.1749 -0.2380
  182SLPC    C120827   2.203   5.702  10.598 -0.5729 -1.1003  0.0436
  182SLPC    HA20828   2.291   5.770  10.595 -0.8211 -0.8025 -0.6643
  182SLPC    HB20829   2.255   5.613  10.639  4.0310  1.5292  0.6171
  182SLPC    C220830   2.170   5.671  10.446 -0.2492 -0.7793  0.0025
  182SLPC    HS20831   2.268   5.644  10.399  0.0474 -0.9057  0.6761
  182SLPC   O2120832   2.107   5.784  10.382  0.1387  0.0309  0.3525
  182SLPC   C2120833   2.183   5.858  10.300  1.0725 -0.0607 -0.1765
  182SLPC   O2220834   2.295   5.837  10.272 -0.0913 -0.2631  0.1291
  182SLPC   C2220835   2.108   5.980  10.242 -0.3571  0.5476 -0.0525
  182SLPC   H2R20836   2.009   5.946  10.207  0.1222 -2.5460  1.2435
  182SLPC   H2S20837   2.096   6.046  10.331  0.0102  0.8428 -0.2169
  182SLPC    C320838   2.073   5.552  10.437 -0.4099  0.0576  0.2410
  182SLPC    HX20839   1.975   5.580  10.483 -1.0806 -0.6733 -0.6814
  182SLPC    HY20840   2.110   5.460  10.487  1.7920  0.0262 -1.3142
  182SLPC   O3120841   2.031   5.513  10.304  0.2456  0.1715  0.5056
  182SLPC   C3120842   2.111   5.432  10.237 -0.1694 -0.2334 -0.2854
  182SLPC   O3220843   2.222   5.398  10.275  0.0356 -0.7797 -0.1954
  182SLPC   C3220844   2.040   5.374  10.117 -0.3605 -0.1289  0.1192
  182SLPC   H2X20845   2.004   5.462  10.060  0.1718 -0.4357 -0.7095
  182SLPC   H2Y20846   1.957   5.306  10.145  0.6673 -1.1360  0.7853
  182SLPC   C2320847   2.193   6.040  10.130 -0.0188  1.0036  0.2174
  182SLPC   H3R20848   2.235   5.971  10.054  1.4011 -1.9848  3.4272
  182SLPC   H3S20849   2.282   6.075  10.185  1.5411 -2.7068  0.3089
  182SLPC   C2420850   2.100   6.134  10.053 -0.1541 -0.3018 -0.2326
  182SLPC   H4R20851   2.063   6.202  10.133  1.9163 -2.3272  2.6528
  182SLPC   H4S20852   2.012   6.077  10.016 -0.9286  0.2399  0.7174
  182SLPC   C2520853   2.158   6.212   9.932  0.8386  0.1798  0.0634
  182SLPC   H5R20854   2.231   6.285   9.972 -1.2900  2.2418  0.3436
  182SLPC   H5S20855   2.072   6.272   9.897  0.2349 -0.8153 -0.1984
  182SLPC   C2620856   2.223   6.123   9.829 -0.2982  0.3828 -0.4492
  182SLPC   H6R20857   2.155   6.046   9.789  0.0966  0.5387 -1.4630
  182SLPC   H6S20858   2.301   6.061   9.878  0.4319  2.1708  0.7852
  182SLPC   C2720859   2.277   6.202   9.712  0.1294 -0.5277 -0.4069
  182SLPC   H7R20860   2.350   6.138   9.659  0.6545 -0.3881  0.1358
  182SLPC   H7S20861   2.339   6.282   9.758  0.2978 -0.5069 -0.6686
  182SLPC   C2820862   2.172   6.253   9.610  0.2657  0.0389 -0.6399
  182SLPC   H8R20863   2.098   6.323   9.656 -1.4330 -1.8300 -0.4005
  182SLPC   H8S20864   2.118   6.159   9.588 -0.0771  0.2568 -0.7474
  182SLPC   C2920865   2.232   6.328   9.490 -0.1739 -0.1767  0.9477
  182SLPC   H9R20866   2.287   6.421   9.509 -0.2260 -0.1740  1.0867
  182SLPC  C21020867   2.223   6.279   9.360  0.0111  0.1586 -0.6801
  182SLPC  H10R20868   2.257   6.343   9.277 -1.8050 -1.8536 -3.1532
  182SLPC  C21120869   2.148   6.152   9.320  0.3403  0.5342 -0.4120
  182SLPC  H11R20870   2.106   6.166   9.217  0.2868 -0.8176 -0.5938
  182SLPC  H11S20871   2.060   6.135   9.385  0.8499  0.7785  0.3484
  182SLPC  C21220872   2.247   6.037   9.341 -0.3244  0.4082  0.4019
  182SLPC  H12R20873   2.311   6.049   9.429  2.3603  1.1907 -1.5115
  182SLPC  C21320874   2.258   5.924   9.265  0.2201 -0.5946  0.1757
  182SLPC  H13R20875   2.327   5.845   9.299  0.7350 -0.4544 -0.5365
  182SLPC  C21420876   2.170   5.900   9.143 -0.7475 -0.3864 -0.3060
  182SLPC  H14R20877   2.132   5.993   9.097  0.0368 -1.2783 -2.9151
  182SLPC  H14S20878   2.075   5.860   9.183 -0.9136 -1.9608 -2.1005
  182SLPC  C21520879   2.236   5.808   9.039 -0.2303 -0.3553 -0.0828
  182SLPC  H15R20880   2.276   5.713   9.080 -0.4621  0.6175  2.6402
  182SLPC  H15S20881   2.321   5.864   8.995 -1.5157 -0.2076 -2.5481
  182SLPC  C21620882   2.144   5.771   8.921  0.3850 -0.2888 -0.5085
  182SLPC  H16R20883   2.114   5.871   8.882 -0.9640 -0.8423 -0.9536
  182SLPC  H16S20884   2.047   5.729   8.956 -0.3787  1.0854 -0.9137
  182SLPC  C21720885   2.213   5.689   8.813 -0.1695  0.2901  0.2030
  182SLPC  H17R20886   2.250   5.589   8.845  0.8349  0.9495  1.1666
  182SLPC  H17S20887   2.286   5.752   8.758 -0.9195  0.4481 -0.6352
  182SLPC  C21820888   2.116   5.664   8.699 -0.3612 -0.5549 -0.0022
  182SLPC  H18R20889   2.019   5.645   8.750  0.2111  1.1135  1.8313
  182SLPC  H18S20890   2.154   5.574   8.645 -0.6890 -0.3901 -0.5135
  182SLPC  H18T20891   2.108   5.746   8.625 -0.3435  0.5831  1.2138
  182SLPC   C3320892   2.144   5.307  10.023 -0.5751 -0.8619 -0.3971
  182SLPC   H3X20893   2.192   5.216  10.064  0.1640 -0.8970 -1.2895
  182SLPC   H3Y20894   2.217   5.389  10.004  0.7448 -1.6139  1.1897
  182SLPC   C3420895   2.074   5.270   9.892 -0.0021  0.0708  0.7732
  182SLPC   H4X20896   2.014   5.359   9.862  0.3027  0.1001  0.2258
  182SLPC   H4Y20897   2.006   5.184   9.905 -0.3509  0.4483  1.4753
  182SLPC   C3520898   2.178   5.252   9.775  0.0532 -0.1965 -0.6859
  182SLPC   H5X20899   2.234   5.158   9.795  0.4341 -0.1737 -1.6006
  182SLPC   H5Y20900   2.250   5.336   9.787 -0.0406 -0.2598  0.4418
  182SLPC   C3620901   2.130   5.258   9.626 -0.6063  0.5301 -0.7606
  182SLPC   H6X20902   2.224   5.254   9.567  0.1229 -0.8449  0.4216
  182SLPC   H6Y20903   2.075   5.353   9.610  1.3415  1.3663 -2.9409
  182SLPC   C3720904   2.047   5.138   9.573 -0.1080 -0.2420  0.3769
  182SLPC   H7X20905   1.966   5.108   9.643  0.4219 -0.9652  0.6992
  182SLPC   H7Y20906   2.118   5.052   9.576  1.2709  0.8068 -0.8396
  182SLPC   C3820907   1.985   5.161   9.431  0.3518  0.5684  0.3562
  182SLPC   H8X20908   1.904   5.237   9.432 -0.6030 -0.4197  1.9948
  182SLPC   H8Y20909   1.938   5.067   9.396 -3.5059  2.4904 -0.1621
  182SLPC   C3920910   2.089   5.193   9.332  0.4017  0.1687 -0.1630
  182SLPC   H9X20911   2.173   5.123   9.350 -0.6506 -0.9606  0.5452
  182SLPC   H9Y20912   2.124   5.299   9.330  2.6263 -0.5353 -0.6458
  182SLPC  C31020913   2.036   5.170   9.192 -0.4144 -0.4585  0.2810
  182SLPC  H10X20914   1.958   5.243   9.162 -0.3540 -0.9393 -1.1663
  182SLPC  H10Y20915   1.994   5.068   9.182 -1.4832 -0.0389  0.3604
  182SLPC  C31120916   2.154   5.202   9.096 -0.5675  0.6908 -0.0470
  182SLPC  H11X20917   2.218   5.112   9.087 -1.7216 -0.0448 -1.2475
  182SLPC  H11Y20918   2.227   5.282   9.118  1.8050 -1.0735 -1.0484
  182SLPC  C31220919   2.102   5.234   8.950  0.3906  0.1841 -0.1095
  182SLPC  H12X20920   2.178   5.276   8.880 -0.1555 -1.1138 -1.5228
  182SLPC  H12Y20921   2.018   5.304   8.968  0.5565  1.1144 -2.5620
  182SLPC  C31320922   2.040   5.121   8.861  0.4096  0.1778 -0.0675
  182SLPC  H13X20923   1.951   5.088   8.919  0.2673 -0.4709 -0.6438
  182SLPC  H13Y20924   2.117   5.042   8.846  0.0149 -0.5168  1.3364
  182SLPC  C31420925   1.987   5.177   8.737 -0.3999 -0.4477 -0.8186
  182SLPC  H14X20926   2.069   5.199   8.666  0.0646 -0.4489 -0.2906
  182SLPC  H14Y20927   1.954   5.276   8.775  0.1858 -0.9008  1.0005
  182SLPC  C31520928   1.878   5.089   8.680  0.6838 -0.2364  0.1845
  182SLPC  H15X20929   1.815   5.040   8.757 -0.1991 -1.1820 -1.0874
  182SLPC  H15Y20930   1.929   4.995   8.648  3.0783  0.5271  1.5205
  182SLPC  C31620931   1.789   5.151   8.567 -0.7429  0.0519  0.7894
  182SLPC  H16X20932   1.846   5.159   8.472 -0.1201  0.2692  1.1750
  182SLPC  H16Y20933   1.766   5.254   8.601  2.2003  1.1116 -0.1155
  182SLPC  C31720934   1.660   5.073   8.530 -0.9266 -0.0166  0.6352
  182SLPC  H17X20935   1.628   5.041   8.632  3.3203 -0.2679  2.0592
  182SLPC  H17Y20936   1.678   4.987   8.462 -2.0289  0.1323  0.1262
  182SLPC  C31820937   1.555   5.168   8.484 -0.5604 -0.4383  0.5208
  182SLPC  H18X20938   1.465   5.109   8.457 -2.0933  1.1724  1.8655
  182SLPC  H18Y20939   1.592   5.221   8.394  1.4120 -0.0477  1.5095
  182SLPC  H18Z20940   1.533   5.251   8.554  0.5170  0.0189  0.3374
  183SLPC     N20941   3.371   1.514  10.641  0.1264 -0.7234  0.5380
  183SLPC   C1320942   3.379   1.651  10.593 -0.3141  0.8956  0.3091
  183SLPC  H13A20943   3.398   1.722  10.672 -2.4069  0.9324  0.8513
  183SLPC  H13B20944   3.448   1.665  10.511  0.8528 -0.3510  1.0385
  183SLPC  H13C20945   3.285   1.680  10.548 -0.6353  0.2690  0.5709
  183SLPC   C1420946   3.293   1.491  10.766  0.5383 -0.4004  0.1763
  183SLPC  H14A20947   3.336   1.408  10.821  0.8752 -1.5028 -1.6708
  183SLPC  H14B20948   3.293   1.581  10.826  0.7444  0.0757 -0.5290
  183SLPC  H14C20949   3.190   1.466  10.744  0.3336 -1.2567  1.9284
  183SLPC   C1520950   3.508   1.474  10.683 -0.1813 -0.1004  0.5057
  183SLPC  H15A20951   3.503   1.377  10.730  0.4806  0.3176  1.4665
  183SLPC  H15B20952   3.589   1.485  10.612 -0.9050  0.8962 -0.1868
  183SLPC  H15C20953   3.539   1.534  10.767 -0.0391 -0.1635  0.4979
  183SLPC   C1220954   3.327   1.414  10.535 -0.0499 -0.0492 -0.1742
  183SLPC  H12A20955   3.333   1.310  10.562  2.1038  0.5302  1.9684
  183SLPC  H12B20956   3.395   1.429  10.452  1.2045  0.0184  0.8332
  183SLPC   C1120957   3.174   1.422  10.486  0.4357  0.3328 -0.5634
  183SLPC  H11A20958   3.166   1.357  10.396 -1.3842  0.9222 -0.8654
  183SLPC  H11B20959   3.157   1.524  10.445 -0.2211 -0.1063 -1.4248
  183SLPC     P20960   3.020   1.253  10.603 -0.3486  0.1940 -0.1759
  183SLPC   O1320961   3.113   1.151  10.646 -0.1497  1.0353  0.6465
  183SLPC   O1420962   2.893   1.273  10.681 -0.3885 -0.4385 -0.1658
  183SLPC   O1220963   3.079   1.392  10.591 -0.9500 -0.6217 -0.5999
  183SLPC   O1120964   2.979   1.227  10.450 -0.0913  0.3699  0.2907
  183SLPC    C120965   2.890   1.301  10.367  0.0513  0.1177  0.4388
  183SLPC    HA20966   2.792   1.326  10.414 -0.6272  1.5911 -1.6063
  183SLPC    HB20967   2.937   1.399  10.342  0.4179 -0.4434 -1.1173
  183SLPC    C220968   2.878   1.216  10.242  0.5740  0.3126  0.1255
  183SLPC    HS20969   2.864   1.112  10.279 -0.2287  0.2111 -0.4426
  183SLPC   O2120970   2.991   1.233  10.156  0.7463 -0.2285 -0.2252
  183SLPC   C2120971   3.070   1.133  10.145 -0.1918  0.3403  0.5881
  183SLPC   O2220972   3.077   1.028  10.207 -0.0888 -0.6514  0.1673
  183SLPC   C2220973   3.166   1.166  10.033  0.2313  0.2436 -0.1075
  183SLPC   H2R20974   3.100   1.187   9.947  1.0775 -0.8772 -1.0551
  183SLPC   H2S20975   3.229   1.253  10.062  1.8742 -1.0430  0.3543
  183SLPC    C320976   2.760   1.255  10.155  0.2535 -0.5853 -0.9132
  183SLPC    HX20977   2.754   1.366  10.154  0.6897 -0.5472 -0.1658
  183SLPC    HY20978   2.663   1.222  10.196  0.9565 -2.4058 -0.6313
  183SLPC   O3120979   2.775   1.225  10.012  0.0368 -0.0205  0.1990
  183SLPC   C3120980   2.755   1.092   9.990  0.0504  0.8273 -0.5827
  183SLPC   O3220981   2.720   1.015  10.076  0.4019 -0.0370  0.8131
  183SLPC   C3220982   2.765   1.064   9.845 -0.1303 -0.0713  0.0106
  183SLPC   H2X20983   2.863   1.111   9.823 -0.8191  4.0114  4.2171
  183SLPC   H2Y20984   2.705   1.142   9.794  1.2014  1.3725  0.5521
  183SLPC   C2320985   3.266   1.058  10.009 -0.1290  0.3138  0.1805
  183SLPC   H3R20986   3.228   0.956  10.029  1.3110 -0.1880  0.4682
  183SLPC   H3S20987   3.347   1.069  10.084 -1.0637  1.6046  1.0583
  183SLPC   C2420988   3.324   1.049   9.869 -0.4125 -0.4876  0.0613
  183SLPC   H4R20989   3.418   0.989   9.867  0.2239  0.3354  2.1186
  183SLPC   H4S20990   3.360   1.147   9.832 -1.0556 -0.1138  0.3978
  183SLPC   C2520991   3.233   0.994   9.759  1.0387  0.2442 -0.4312
  183SLPC   H5R20992   3.140   1.053   9.748  0.0055 -1.2623  0.0683
  183SLPC   H5S20993   3.203   0.895   9.797  0.8192  1.2647  2.2942
  183SLPC   C2620994   3.306   0.972   9.625 -0.3189  0.0755 -0.0165
  183SLPC   H6R20995   3.391   0.903   9.643  0.2034  0.2583 -1.5912
  183SLPC   H6S20996   3.354   1.067   9.593  1.0210 -0.8717 -0.9237
  183SLPC   C2720997   3.205   0.921   9.519 -0.2359 -0.1037  0.7488
  183SLPC   H7R20998   3.123   0.995   9.516  0.7575  0.9774 -0.6797
  183SLPC   H7S20999   3.164   0.824   9.555 -3.0058  1.3203  1.7616
  183SLPC   C2821000   3.268   0.910   9.382  0.1242  0.6392  0.3102
  183SLPC   H8R21001   3.359   0.846   9.385 -0.2857 -0.0224 -0.8914
  183SLPC   H8S21002   3.299   1.014   9.359  2.3738 -0.6344 -3.1929
  183SLPC   C2921003   3.173   0.855   9.279 -0.1594 -0.2011  0.4311
  183SLPC   H9R21004   3.156   0.747   9.293 -0.9481  0.1017  2.0251
  183SLPC  C21021005   3.115   0.920   9.177  0.5845  0.6047 -0.1019
  183SLPC  H10R21006   3.042   0.866   9.114  1.5563 -1.0247  0.1340
  183SLPC  C21121007   3.123   1.065   9.140 -0.0745  0.6205  0.6171
  183SLPC  H11R21008   3.209   1.079   9.071  0.5333 -0.4229  1.1364
  183SLPC  H11S21009   3.161   1.123   9.227  0.1946  0.2947  0.7182
  183SLPC  C21221010   2.995   1.131   9.087  0.0652 -0.5529 -0.7221
  183SLPC  H12R21011   2.940   1.196   9.157  0.9409 -1.0107  0.4182
  183SLPC  C21321012   2.951   1.119   8.958  0.3280  0.3116  0.4132
  183SLPC  H13R21013   2.855   1.160   8.923 -0.6577 -0.4471  2.1084
  183SLPC  C21421014   3.017   1.034   8.850 -0.4842 -0.1784 -0.1407
  183SLPC  H14R21015   3.094   0.972   8.902 -0.9221  0.4212  1.2733
  183SLPC  H14S21016   3.072   1.104   8.784  2.0321 -0.5669  1.3794
  183SLPC  C21521017   2.929   0.946   8.768  0.4753 -0.4198 -0.2503
  183SLPC  H15R21018   2.885   0.882   8.847  2.2191 -1.5006 -0.1226
  183SLPC  H15S21019   2.980   0.865   8.713 -1.8596 -2.1356 -0.0518
  183SLPC  C21621020   2.843   1.028   8.676  0.2480  0.5892 -0.0408
  183SLPC  H16R21021   2.899   1.099   8.611 -1.1647  1.1171 -0.7322
  183SLPC  H16S21022   2.772   1.091   8.733 -0.7766 -2.0694  1.8119
  183SLPC  C21721023   2.763   0.933   8.576 -0.6640 -0.1275  0.4005
  183SLPC  H17R21024   2.697   0.859   8.626 -0.9166 -0.4400 -0.3867
  183SLPC  H17S21025   2.846   0.884   8.521 -0.9512 -0.4360  0.2417
  183SLPC  C21821026   2.666   1.006   8.487 -0.0244 -0.2254  0.8167
  183SLPC  H18R21027   2.594   1.081   8.526 -1.0595  0.8410 -2.7832
  183SLPC  H18S21028   2.604   0.937   8.425  0.1603  1.2220 -1.0889
  183SLPC  H18T21029   2.729   1.059   8.413 -1.2732 -0.7606 -0.6956
  183SLPC   C3321030   2.745   0.920   9.795  0.1201 -0.0456  0.3767
  183SLPC   H3X21031   2.643   0.883   9.815 -0.2299  0.4987 -0.3832
  183SLPC   H3Y21032   2.811   0.858   9.861  3.3443  1.4566 -1.1898
  183SLPC   C3421033   2.782   0.879   9.646 -0.3065 -0.2057 -0.0936
  183SLPC   H4X21034   2.733   0.782   9.623 -3.0941  0.9238  0.6836
  183SLPC   H4Y21035   2.891   0.861   9.639 -0.4118 -1.1860  0.5388
  183SLPC   C3521036   2.729   0.986   9.547  0.0314  0.4659 -0.3382
  183SLPC   H5X21037   2.777   1.083   9.572 -0.0570  0.6119 -0.7350
  183SLPC   H5Y21038   2.623   1.007   9.572 -0.3956 -1.8927  0.0212
  183SLPC   C3621039   2.758   0.966   9.404  1.2149  1.1266  0.5566
  183SLPC   H6X21040   2.867   0.944   9.405  1.2596  1.3053  0.0302
  183SLPC   H6Y21041   2.732   1.045   9.330  0.5696 -1.2886 -1.9509
  183SLPC   C3721042   2.709   0.831   9.339 -0.1976 -0.0544 -0.5414
  183SLPC   H7X21043   2.599   0.825   9.357 -0.1872 -0.3423 -0.5695
  183SLPC   H7Y21044   2.765   0.756   9.399 -0.7595 -1.3858 -1.6355
  183SLPC   C3821045   2.731   0.819   9.195 -0.6246 -0.0673  0.4246
  183SLPC   H8X21046   2.831   0.861   9.173  0.0746 -0.9018  1.8432
  183SLPC   H8Y21047   2.654   0.881   9.145  0.4572  0.6465 -0.3821
  183SLPC   C3921048   2.720   0.675   9.130  0.5590  0.3523  0.8816
  183SLPC   H9X21049   2.613   0.644   9.128  0.8882 -0.7933 -0.2472
  183SLPC   H9Y21050   2.779   0.604   9.192  1.3988 -1.0538 -1.4014
  183SLPC  C31021051   2.779   0.677   8.989  0.8490  0.6793  0.1580
  183SLPC  H10X21052   2.889   0.697   8.986  1.2142 -1.1991 -0.1494
  183SLPC  H10Y21053   2.732   0.765   8.941 -0.0184 -0.3164 -0.8717
  183SLPC  C31121054   2.739   0.558   8.903 -0.1036  0.6064 -0.2722
  183SLPC  H11X21055   2.639   0.512   8.922  0.9920 -1.0895  1.8129
  183SLPC  H11Y21056   2.810   0.480   8.937  1.1601  1.1694 -1.5121
  183SLPC  C31221057   2.760   0.590   8.747  0.2517 -0.2808 -0.4407
  183SLPC  H12X21058   2.851   0.653   8.736  3.6127 -4.5279  0.5419
  183SLPC  H12Y21059   2.670   0.651   8.725  1.5806  2.0955  0.3528
  183SLPC  C31321060   2.760   0.463   8.661  0.6162  0.1314  0.3778
  183SLPC  H13X21061   2.659   0.419   8.677  0.5360 -0.1127 -0.7520
  183SLPC  H13Y21062   2.847   0.402   8.694  1.7369  0.4085 -1.9052
  183SLPC  C31421063   2.782   0.494   8.515 -0.0133  0.1217 -0.0343
  183SLPC  H14X21064   2.792   0.400   8.457  2.7726 -0.1894  0.7862
  183SLPC  H14Y21065   2.879   0.547   8.514  0.9474 -1.5527  0.4516
  183SLPC  C31521066   2.663   0.553   8.439 -0.7927 -0.2402  0.0737
  183SLPC  H15X21067   2.633   0.650   8.484 -0.6983 -1.0973  2.0814
  183SLPC  H15Y21068   2.574   0.486   8.443 -1.3955 -0.0696 -4.6720
  183SLPC  C31621069   2.685   0.568   8.295 -0.3900  0.1137  0.3690
  183SLPC  H16X21070   2.597   0.605   8.239 -0.5963 -0.7317  0.1140
  183SLPC  H16Y21071   2.720   0.480   8.236 -1.1927  2.0012 -3.2294
  183SLPC  C31721072   2.791   0.681   8.269  0.4047 -0.2465 -0.0686
  183SLPC  H17X21073   2.894   0.647   8.289  0.8124  0.3081 -1.1674
  183SLPC  H17Y21074   2.784   0.753   8.354 -1.6774 -0.6161  0.1464
  183SLPC  C31821075   2.780   0.751   8.134  0.2146  0.1284  0.0063
  183SLPC  H18X21076   2.786   0.673   8.054  1.1602 -1.0819  1.2098
  183SLPC  H18Y21077   2.868   0.817   8.118  0.2685 -0.1325 -0.8580
  183SLPC  H18Z21078   2.691   0.816   8.123 -0.0409 -0.3571 -0.9761
  184SLPC     N21079   1.347   2.927  11.017  0.0246  0.5246 -0.5504
  184SLPC   C1321080   1.439   2.915  11.133  0.8841  0.1209 -0.5347
  184SLPC  H13A21081   1.405   2.946  11.230  1.7035 -1.7983  0.4181
  184SLPC  H13B21082   1.477   2.815  11.147 -2.1662 -1.0658  0.0702
  184SLPC  H13C21083   1.535   2.961  11.112  0.2432  1.0859 -1.4929
  184SLPC   C1421084   1.318   3.072  11.002 -0.0122  0.0248  0.1061
  184SLPC  H14A21085   1.397   3.124  10.950  1.4648 -0.6250  1.6112
  184SLPC  H14B21086   1.218   3.081  10.960  0.6691 -1.8297 -2.1365
  184SLPC  H14C21087   1.309   3.114  11.101 -0.4677  0.0618  0.0534
  184SLPC   C1521088   1.214   2.862  11.051 -0.0498  0.2444  0.4421
  184SLPC  H15A21089   1.216   2.754  11.059  1.2480  0.1330 -0.9647
  184SLPC  H15B21090   1.175   2.892  11.148 -0.9627 -2.2288  0.9233
  184SLPC  H15C21091   1.136   2.884  10.980 -0.3880  1.2474  1.1047
  184SLPC   C1221092   1.406   2.865  10.890  0.2428 -0.2394  0.5582
  184SLPC  H12A21093   1.426   2.762  10.914 -0.7375 -0.3687  0.8746
  184SLPC  H12B21094   1.506   2.901  10.871  0.4398 -0.7175  0.6805
  184SLPC   C1121095   1.325   2.878  10.751  0.6000 -0.0183  0.2247
  184SLPC  H11A21096   1.221   2.848  10.774  0.7514  0.7860  2.1243
  184SLPC  H11B21097   1.374   2.814  10.675 -1.2314 -0.5123 -0.5805
  184SLPC     P21098   1.421   3.109  10.649 -0.4559  0.4415  0.3733
  184SLPC   O1321099   1.347   3.192  10.553  0.1192 -0.9616  0.2315
  184SLPC   O1421100   1.471   3.179  10.770 -0.0635  0.3460 -0.0546
  184SLPC   O1221101   1.308   3.007  10.700 -0.1447  0.2077  0.5938
  184SLPC   O1121102   1.528   3.014  10.574 -0.2129 -0.3037 -0.2856
  184SLPC    C121103   1.472   2.928  10.474 -0.3126 -0.0407  0.1218
  184SLPC    HA21104   1.511   2.826  10.496 -2.1971 -0.9292 -0.4421
  184SLPC    HB21105   1.364   2.906  10.489 -0.5497  1.2871  0.5306
  184SLPC    C221106   1.508   2.964  10.328  0.4276 -0.5519  0.6773
  184SLPC    HS21107   1.472   2.886  10.257  1.4767  1.6134 -2.4738
  184SLPC   O2121108   1.654   2.978  10.318  0.0811  0.2617  0.0465
  184SLPC   C2121109   1.723   2.864  10.314 -0.6146 -1.3695 -0.2546
  184SLPC   O2221110   1.673   2.752  10.319  0.3300 -0.1189 -0.1953
  184SLPC   C2221111   1.863   2.898  10.279  0.2036  0.4913 -0.4050
  184SLPC   H2R21112   1.894   3.000  10.309  2.2498 -0.4602  0.9969
  184SLPC   H2S21113   1.937   2.836  10.334 -0.0922  2.5289  2.4946
  184SLPC    C321114   1.445   3.097  10.270 -0.5450 -0.1502  0.3093
  184SLPC    HX21115   1.502   3.184  10.308  3.3778 -1.0248 -2.8878
  184SLPC    HY21116   1.339   3.091  10.304 -0.3531 -0.8869  0.8149
  184SLPC   O3121117   1.435   3.093  10.121 -0.3064 -0.3479  0.1296
  184SLPC   C3121118   1.420   3.198  10.044 -0.0232 -0.1054 -0.0398
  184SLPC   O3221119   1.393   3.308  10.087 -0.3318  0.0377 -0.0488
  184SLPC   C3221120   1.447   3.165   9.902  0.3559 -0.1118 -0.4689
  184SLPC   H2X21121   1.396   3.067   9.885 -0.7451  0.0959  1.3310
  184SLPC   H2Y21122   1.556   3.156   9.888  0.7284  1.5050  1.0085
  184SLPC   C2321123   1.891   2.896  10.125 -0.4104  0.1571 -0.1590
  184SLPC   H3R21124   1.875   2.797  10.075  2.7497 -0.2085 -0.6506
  184SLPC   H3S21125   1.999   2.919  10.110  0.4177 -1.5137  2.5514
  184SLPC   C2421126   1.796   2.990  10.055 -0.0533  0.7581  0.5042
  184SLPC   H4R21127   1.753   3.064  10.126 -2.3722 -0.1484  0.1482
  184SLPC   H4S21128   1.718   2.932  10.001 -0.1761  0.0505  1.4206
  184SLPC   C2521129   1.858   3.087   9.954 -0.2275  0.6534 -0.2720
  184SLPC   H5R21130   1.956   3.125   9.989 -0.5934  0.6558  0.8007
  184SLPC   H5S21131   1.790   3.169   9.923 -0.6722  0.3321 -0.1691
  184SLPC   C2621132   1.887   3.010   9.821  0.4692  0.3603  0.6435
  184SLPC   H6R21133   1.800   2.947   9.795  0.8393  0.7655 -1.8713
  184SLPC   H6S21134   1.976   2.944   9.832  0.0785 -0.6180 -1.6190
  184SLPC   C2721135   1.925   3.108   9.699  0.3149 -0.4911  0.2698
  184SLPC   H7R21136   1.956   3.042   9.615  0.3382  0.1341 -0.2238
  184SLPC   H7S21137   2.013   3.174   9.716 -1.6483  2.3084  0.2443
  184SLPC   C2821138   1.803   3.183   9.644 -0.5844  0.6346  0.3033
  184SLPC   H8R21139   1.709   3.143   9.689 -0.8643  1.9109  0.8853
  184SLPC   H8S21140   1.802   3.177   9.533  1.4307  0.7691  0.2516
  184SLPC   C2921141   1.818   3.329   9.672  0.9394  0.5879  0.2267
  184SLPC   H9R21142   1.814   3.344   9.781  1.0249  1.0362  0.1710
  184SLPC  C21021143   1.822   3.433   9.591 -1.0257 -0.4679  0.6466
  184SLPC  H10R21144   1.836   3.531   9.638 -0.1147 -1.3373  2.3022
  184SLPC  C21121145   1.827   3.421   9.436  0.1925 -0.6226 -1.3146
  184SLPC  H11R21146   1.785   3.514   9.390 -0.1772 -0.1096 -0.0049
  184SLPC  H11S21147   1.763   3.339   9.398 -0.7895  0.0792 -1.2376
  184SLPC  C21221148   1.971   3.389   9.394  0.9185  0.2014  0.6579
  184SLPC  H12R21149   2.016   3.297   9.433 -0.0571 -1.0398 -1.0432
  184SLPC  C21321150   2.055   3.479   9.334 -0.6674 -0.3167 -1.7682
  184SLPC  H13R21151   2.153   3.441   9.300  0.1576  0.3539 -0.2517
  184SLPC  C21421152   2.028   3.626   9.303 -0.2831  0.0780 -0.6852
  184SLPC  H14R21153   2.115   3.683   9.342  1.7368 -4.2440  1.9793
  184SLPC  H14S21154   1.937   3.664   9.354  0.1681 -0.8875  0.9144
  184SLPC  C21521155   2.014   3.660   9.153  0.6439 -0.2138 -0.2291
  184SLPC  H15R21156   2.012   3.771   9.150  1.5444 -0.0901  1.9541
  184SLPC  H15S21157   1.921   3.608   9.121 -0.2399 -0.2171  2.1223
  184SLPC  C21621158   2.136   3.617   9.075 -0.9488 -0.3946  0.0718
  184SLPC  H16R21159   2.157   3.508   9.077  0.5943 -0.1406  2.5494
  184SLPC  H16S21160   2.232   3.652   9.120 -0.5884 -0.3388 -0.7177
  184SLPC  C21721161   2.138   3.663   8.926  0.1325 -0.1439  0.6536
  184SLPC  H17R21162   2.141   3.774   8.929 -2.0913 -0.0230  0.1027
  184SLPC  H17S21163   2.039   3.631   8.887  0.1339  0.1952  0.3676
  184SLPC  C21821164   2.250   3.604   8.835  0.2368  0.2075  0.1320
  184SLPC  H18R21165   2.224   3.634   8.731  1.0959  0.6426  0.0343
  184SLPC  H18S21166   2.245   3.494   8.848 -1.2594  0.3405  0.9264
  184SLPC  H18T21167   2.351   3.637   8.866  0.7206 -1.1418  0.0568
  184SLPC   C3321168   1.385   3.266   9.812 -0.3866 -0.2550  0.0723
  184SLPC   H3X21169   1.455   3.352   9.815 -0.5952 -0.1144  1.1182
  184SLPC   H3Y21170   1.295   3.308   9.862  1.7086  1.9590  2.2490
  184SLPC   C3421171   1.355   3.217   9.676  0.0161  0.5476  0.2240
  184SLPC   H4X21172   1.258   3.163   9.679  0.3717 -0.1312 -0.2412
  184SLPC   H4Y21173   1.437   3.151   9.642  2.5572  1.3226  4.2283
  184SLPC   C3521174   1.331   3.332   9.579 -0.2495  0.3953 -0.1430
  184SLPC   H5X21175   1.422   3.396   9.572  1.7040 -1.9089  1.9752
  184SLPC   H5Y21176   1.239   3.383   9.615 -0.3701 -0.5110  0.8951
  184SLPC   C3621177   1.295   3.281   9.434 -0.7921  0.5622 -0.6505
  184SLPC   H6X21178   1.215   3.345   9.390  0.3288  2.6300  0.2077
  184SLPC   H6Y21179   1.258   3.177   9.448 -0.5737  0.6846  0.9554
  184SLPC   C3721180   1.410   3.283   9.336  0.4075  0.5096  0.5790
  184SLPC   H7X21181   1.392   3.217   9.249 -1.0069 -1.6745  2.4232
  184SLPC   H7Y21182   1.512   3.254   9.369 -0.7700 -1.0073  3.1439
  184SLPC   C3821183   1.428   3.431   9.275 -0.5877 -0.0061 -0.5690
  184SLPC   H8X21184   1.463   3.497   9.357 -1.0233 -1.3001  0.6859
  184SLPC   H8Y21185   1.326   3.464   9.246 -1.1751  0.4238  1.7768
  184SLPC   C3921186   1.520   3.437   9.152  0.2660 -0.5974  0.5553
  184SLPC   H9X21187   1.484   3.372   9.069 -2.4170  0.5358  0.7378
  184SLPC   H9Y21188   1.615   3.395   9.190  1.0172 -0.3639 -0.9734
  184SLPC  C31021189   1.532   3.592   9.113  0.8081 -0.3334 -0.1014
  184SLPC  H10X21190   1.582   3.649   9.194 -0.3030 -3.0986  2.7575
  184SLPC  H10Y21191   1.431   3.636   9.124  1.3009  0.5150  1.1395
  184SLPC  C31121192   1.599   3.624   8.981  0.2120  0.2190 -0.7989
  184SLPC  H11X21193   1.681   3.553   8.957 -1.4900 -1.9377 -0.4685
  184SLPC  H11Y21194   1.638   3.728   8.989 -1.3327  0.6871  1.2634
  184SLPC  C31221195   1.507   3.612   8.865  0.0106 -0.6016  0.3361
  184SLPC  H12X21196   1.481   3.715   8.831  1.0214 -0.7018 -0.7895
  184SLPC  H12Y21197   1.415   3.552   8.882  0.4678 -0.8357  2.1519
  184SLPC  C31321198   1.582   3.567   8.732  0.8332 -0.0933  0.3119
  184SLPC  H13X21199   1.506   3.557   8.651 -0.3693 -0.0468  1.4027
  184SLPC  H13Y21200   1.622   3.464   8.738 -0.2637 -0.5956 -0.7297
  184SLPC  C31421201   1.697   3.663   8.681 -0.1296  0.8719  0.0942
  184SLPC  H14X21202   1.770   3.681   8.762 -1.0963  0.4644  1.0934
  184SLPC  H14Y21203   1.648   3.757   8.647 -0.7457  0.4305 -0.2555
  184SLPC  C31521204   1.772   3.601   8.563 -0.1377 -0.0676 -0.4636
  184SLPC  H15X21205   1.806   3.501   8.596  2.4569  0.6955 -0.5593
  184SLPC  H15Y21206   1.868   3.658   8.559 -0.7526  0.9843 -0.6921
  184SLPC  C31621207   1.701   3.605   8.424 -0.6908 -0.4396 -0.1214
  184SLPC  H16X21208   1.682   3.710   8.394  2.8342  1.0721  2.2608
  184SLPC  H16Y21209   1.607   3.546   8.424 -0.6386 -0.5235 -0.0800
  184SLPC  C31721210   1.794   3.548   8.312  0.4841  0.2089  0.0508
  184SLPC  H17X21211   1.896   3.591   8.309 -0.4332  2.6132  0.1779
  184SLPC  H17Y21212   1.737   3.567   8.218  2.0286 -2.0653 -1.4394
  184SLPC  C31821213   1.802   3.390   8.312 -0.1371  0.5428  0.6171
  184SLPC  H18X21214   1.886   3.351   8.375 -1.1312  0.8074  2.1613
  184SLPC  H18Y21215   1.811   3.353   8.208  1.5012 -0.5870  1.1090
  184SLPC  H18Z21216   1.704   3.357   8.353  0.5373  1.8308  3.5251
  185SLPC     N21217   4.257   3.032   6.199 -0.9553  0.7115  0.2155
  185SLPC   C1321218   4.289   2.936   6.313  0.8645  0.2141  0.5146
  185SLPC  H13A21219   4.365   2.866   6.282  1.2702  1.2772 -1.0757
  185SLPC  H13B21220   4.329   2.993   6.396  0.3095 -1.0663  1.6910
  185SLPC  H13C21221   4.199   2.891   6.350  1.5216 -0.6745  1.0719
  185SLPC   C1421222   4.385   3.081   6.147 -0.0260 -0.2341 -0.1772
  185SLPC  H14A21223   4.351   3.159   6.079 -3.0703 -1.0325  0.2678
  185SLPC  H14B21224   4.429   3.128   6.234  1.2266 -1.5610 -0.0608
  185SLPC  H14C21225   4.450   3.003   6.111  1.7707  1.2032 -0.2061
  185SLPC   C1521226   4.184   3.146   6.258  0.8682 -0.2750 -0.2928
  185SLPC  H15A21227   4.230   3.193   6.343 -3.4785  2.2846  0.9197
  185SLPC  H15B21228   4.183   3.228   6.188  0.5267 -2.4696 -3.0814
  185SLPC  H15C21229   4.086   3.108   6.280  0.4520  0.6900 -0.4678
  185SLPC   C1221230   4.172   2.969   6.092  0.2473 -0.2546  0.4918
  185SLPC  H12A21231   4.212   2.875   6.056  0.5926  0.8797 -2.3300
  185SLPC  H12B21232   4.167   3.034   6.006  0.2043  1.6697  1.8827
  185SLPC   C1121233   4.025   2.933   6.135 -0.3663  0.8710  0.6099
  185SLPC  H11A21234   4.034   2.869   6.224 -0.4334 -0.2703 -0.1831
  185SLPC  H11B21235   3.985   2.866   6.055  0.1350  0.4523  0.7105
  185SLPC     P21236   3.817   3.034   6.251 -0.4464 -0.0578  0.0401
  185SLPC   O1321237   3.727   3.148   6.224  0.3191 -0.7414 -0.1030
  185SLPC   O1421238   3.764   2.897   6.241 -0.6380 -0.1878 -1.0970
  185SLPC   O1221239   3.937   3.046   6.148  0.1706 -0.2630  0.6723
  185SLPC   O1121240   3.906   3.061   6.378 -0.0604  0.9701 -0.4204
  185SLPC    C121241   3.870   3.171   6.459  0.3491  0.1720 -0.8481
  185SLPC    HA21242   3.893   3.271   6.415 -2.3462  1.9375  1.4149
  185SLPC    HB21243   3.762   3.173   6.484  0.3949  0.4455 -0.6706
  185SLPC    C221244   3.946   3.155   6.597  0.6906  0.2668 -0.0517
  185SLPC    HS21245   4.049   3.127   6.566  0.8292  0.0084  0.6191
  185SLPC   O2121246   3.887   3.046   6.673 -0.3171 -0.2199  0.1637
  185SLPC   C2121247   3.978   2.963   6.738 -0.5495 -0.0248  0.4292
  185SLPC   O2221248   4.098   2.979   6.724  0.7610  0.0179  0.1511
  185SLPC   C2221249   3.902   2.883   6.837  0.4474  0.4917 -0.0116
  185SLPC   H2R21250   3.810   2.938   6.867  1.4378  2.1130  0.1605
  185SLPC   H2S21251   3.873   2.790   6.783 -0.6023  0.5436  0.4469
  185SLPC    C321252   3.935   3.290   6.673  0.3172 -0.1610 -0.1057
  185SLPC    HX21253   3.830   3.322   6.658 -0.0165 -0.9069  0.5809
  185SLPC    HY21254   4.005   3.358   6.619 -0.1991  1.3585  1.0648
  185SLPC   O3121255   3.980   3.276   6.808 -0.5545 -0.4597  1.4013
  185SLPC   C3121256   3.888   3.276   6.896  0.7009  0.3672  0.4659
  185SLPC   O3221257   3.768   3.289   6.877 -0.1878 -0.3730  0.5913
  185SLPC   C3221258   3.950   3.262   7.033  0.4654  0.4915 -0.3700
  185SLPC   H2X21259   4.015   3.351   7.044 -0.4211  1.4596 -2.5129
  185SLPC   H2Y21260   4.007   3.166   7.032  0.0745  0.2579 -0.8172
  185SLPC   C2321261   3.989   2.834   6.956 -0.1014 -0.1778 -0.0953
  185SLPC   H3R21262   4.026   2.919   7.016 -2.7045  0.1022  1.2766
  185SLPC   H3S21263   4.078   2.781   6.917 -1.0675 -0.3620 -2.1934
  185SLPC   C2421264   3.924   2.744   7.059 -0.1454  0.3032 -0.2625
  185SLPC   H4R21265   3.994   2.704   7.137 -0.3485 -0.7628 -0.6104
  185SLPC   H4S21266   3.890   2.651   7.010 -0.3640 -0.1955  0.7999
  185SLPC   C2521267   3.817   2.813   7.148 -0.7070  0.4855 -0.0542
  185SLPC   H5R21268   3.722   2.838   7.096 -2.3661  0.3464  2.6799
  185SLPC   H5S21269   3.853   2.906   7.197  0.1381 -0.1306  0.5321
  185SLPC   C2621270   3.783   2.725   7.268 -0.5654  0.3135  0.7661
  185SLPC   H6R21271   3.876   2.706   7.326  0.1325  0.7503 -0.1795
  185SLPC   H6S21272   3.750   2.628   7.225  1.7628  0.1440 -0.7925
  185SLPC   C2721273   3.665   2.791   7.352 -0.1679  0.0669  0.1402
  185SLPC   H7R21274   3.585   2.817   7.279  1.0324 -2.2066 -2.1318
  185SLPC   H7S21275   3.700   2.890   7.390  0.2933  0.9210 -2.3253
  185SLPC   C2821276   3.605   2.718   7.483  0.7544  0.2768  0.1594
  185SLPC   H8R21277   3.540   2.633   7.452 -0.8628  1.5732 -0.1739
  185SLPC   H8S21278   3.525   2.791   7.509  0.3434 -0.5854  1.3872
  185SLPC   C2921279   3.692   2.674   7.589 -0.4829 -0.3210  0.1978
  185SLPC   H9R21280   3.784   2.626   7.553 -1.1788 -0.8906 -0.8756
  185SLPC  C21021281   3.671   2.694   7.719  0.5829  0.1233  0.0855
  185SLPC  H10R21282   3.746   2.647   7.785  1.8665  1.6190 -0.2338
  185SLPC  C21121283   3.545   2.756   7.781 -0.1442  0.1700 -0.0513
  185SLPC  H11R21284   3.511   2.843   7.720 -1.3075 -0.4301 -0.2979
  185SLPC  H11S21285   3.571   2.810   7.875 -1.9254  0.0833  0.5323
  185SLPC  C21221286   3.428   2.669   7.803  0.9952 -0.7119  0.0705
  185SLPC  H12R21287   3.363   2.665   7.714 -0.8329 -2.4987  1.3834
  185SLPC  C21321288   3.386   2.621   7.923  0.9559 -0.3173  0.4711
  185SLPC  H13R21289   3.294   2.561   7.917  1.3977 -0.9111 -0.8446
  185SLPC  C21421290   3.445   2.637   8.058  0.0381  0.2886 -0.2021
  185SLPC  H14R21291   3.409   2.728   8.111 -0.5911  0.9604 -1.7198
  185SLPC  H14S21292   3.550   2.672   8.056 -0.5945  2.5379  1.7202
  185SLPC  C21521293   3.408   2.519   8.158  0.2692  0.3251  0.5449
  185SLPC  H15R21294   3.429   2.419   8.115 -0.4599  0.1269  0.6265
  185SLPC  H15S21295   3.297   2.510   8.159  0.3051 -0.4836 -0.5721
  185SLPC  C21621296   3.486   2.533   8.292  0.2252  0.3335 -0.3452
  185SLPC  H16R21297   3.579   2.589   8.267  0.7313  0.0099  0.7431
  185SLPC  H16S21298   3.509   2.431   8.330 -2.2293 -0.4563 -0.8200
  185SLPC  C21721299   3.410   2.597   8.405  0.5661 -0.1506  0.1153
  185SLPC  H17R21300   3.325   2.530   8.428  1.4651 -1.2888  0.2292
  185SLPC  H17S21301   3.379   2.696   8.365  0.6127 -0.2972 -0.2941
  185SLPC  C21821302   3.491   2.624   8.531 -0.0837  0.1109 -0.2504
  185SLPC  H18R21303   3.545   2.721   8.525  2.3942 -0.8444  3.1205
  185SLPC  H18S21304   3.558   2.538   8.556 -1.6711 -1.4600 -1.1869
  185SLPC  H18T21305   3.424   2.638   8.619 -1.6348 -0.4545 -1.2927
  185SLPC   C3321306   3.844   3.237   7.147  0.5367  0.5248  0.4688
  185SLPC   H3X21307   3.780   3.150   7.121  0.8025 -0.1183  1.8851
  185SLPC   H3Y21308   3.778   3.326   7.154 -0.9773 -0.3843 -1.4359
  185SLPC   C3421309   3.910   3.200   7.289  0.5968  0.3641  0.5921
  185SLPC   H4X21310   3.973   3.285   7.325  2.7832 -1.7896  2.1827
  185SLPC   H4Y21311   3.959   3.101   7.279 -1.6480 -1.0799  2.7837
  185SLPC   C3521312   3.805   3.175   7.399 -0.2205  0.1559 -0.2453
  185SLPC   H5X21313   3.750   3.083   7.371 -1.7887  1.5941 -2.2375
  185SLPC   H5Y21314   3.737   3.262   7.415  0.4974  0.3870  1.8430
  185SLPC   C3621315   3.878   3.161   7.537  0.1548 -0.1475 -0.1554
  185SLPC   H6X21316   3.948   3.247   7.549  0.6329 -0.5649  0.0474
  185SLPC   H6Y21317   3.938   3.069   7.528 -0.0152 -0.1967 -0.8792
  185SLPC   C3721318   3.780   3.147   7.658 -0.4793 -0.7643  0.0711
  185SLPC   H7X21319   3.726   3.053   7.634  0.9561 -2.0117  1.4502
  185SLPC   H7Y21320   3.711   3.234   7.654 -0.6472 -0.9283 -3.8687
  185SLPC   C3821321   3.848   3.110   7.793 -0.6286 -0.4340 -0.7297
  185SLPC   H8X21322   3.913   3.199   7.810  1.3577 -1.3178 -3.0389
  185SLPC   H8Y21323   3.909   3.019   7.777 -1.5476 -1.2356  0.1621
  185SLPC   C3921324   3.755   3.096   7.912  0.4847 -0.2707  0.2472
  185SLPC   H9X21325   3.668   3.041   7.871  1.5234 -0.7712 -1.4150
  185SLPC   H9Y21326   3.718   3.197   7.937  0.1983 -0.3386  0.0976
  185SLPC  C31021327   3.815   3.027   8.031  0.7490  0.1806  0.2120
  185SLPC  H10X21328   3.899   3.087   8.071  0.7016  0.1011  0.4306
  185SLPC  H10Y21329   3.853   2.927   8.000 -0.6321 -1.0703  2.3331
  185SLPC  C31121330   3.710   3.004   8.150 -0.1412 -0.0672  0.5370
  185SLPC  H11X21331   3.644   2.925   8.108 -1.3545  1.6906 -1.0361
  185SLPC  H11Y21332   3.642   3.092   8.156  0.1158  0.4068 -2.3325
  185SLPC  C31221333   3.781   2.953   8.280 -0.0236 -0.4181 -0.7216
  185SLPC  H12X21334   3.720   2.967   8.373  3.1177  1.0322  1.3040
  185SLPC  H12Y21335   3.874   3.012   8.294  0.0665 -0.6471 -0.3265
  185SLPC  C31321336   3.820   2.804   8.292 -0.4601 -0.4874 -0.1928
  185SLPC  H13X21337   3.873   2.776   8.198  0.0698 -0.8529  0.2158
  185SLPC  H13Y21338   3.733   2.737   8.305  0.2695 -2.5471 -4.3070
  185SLPC  C31421339   3.922   2.781   8.403  0.3795  0.2510  0.9929
  185SLPC  H14X21340   3.900   2.857   8.482 -1.8764  1.1019 -0.3395
  185SLPC  H14Y21341   4.027   2.800   8.372 -0.2935 -0.5675 -2.1175
  185SLPC  C31521342   3.919   2.643   8.460  0.2430 -0.1652  0.1853
  185SLPC  H15X21343   3.811   2.622   8.476 -0.0655  0.4098 -0.9974
  185SLPC  H15Y21344   3.966   2.628   8.560  1.0620  0.9126 -0.0155
  185SLPC  C31621345   3.965   2.543   8.365 -0.6986  0.3685 -0.0938
  185SLPC  H16X21346   4.055   2.585   8.315 -0.0804 -1.1676 -0.3536
  185SLPC  H16Y21347   3.893   2.520   8.283 -1.5961  0.4309  0.6645
  185SLPC  C31721348   4.019   2.416   8.438 -0.5273 -0.0103  0.3005
  185SLPC  H17X21349   4.111   2.444   8.493 -0.9289  0.3966  0.7713
  185SLPC  H17Y21350   4.055   2.355   8.353 -1.2281  1.9705 -1.5066
  185SLPC  C31821351   3.901   2.347   8.507 -0.2198  0.1152  0.0328
  185SLPC  H18X21352   3.825   2.324   8.430  0.1852  3.6713 -1.6140
  185SLPC  H18Y21353   3.864   2.405   8.594 -1.7470 -2.2533  1.0680
  185SLPC  H18Z21354   3.943   2.257   8.557  1.6543  1.1034  0.3352
  186SLPC     N21355   5.976   6.346   5.804  0.2466 -0.0482  0.0344
  186SLPC   C1321356   5.965   6.312   5.656  0.0480 -0.3313  0.0354
  186SLPC  H13A21357   5.929   6.395   5.597  1.6552 -0.3308 -1.0051
  186SLPC  H13B21358   6.064   6.310   5.612 -0.2697  0.3065 -0.7256
  186SLPC  H13C21359   5.910   6.222   5.637  1.5955 -1.4496  0.6220
  186SLPC   C1421360   5.836   6.343   5.846  0.5247 -0.0224 -0.6362
  186SLPC  H14A21361   5.789   6.435   5.812 -0.5735  0.1187  1.1475
  186SLPC  H14B21362   5.779   6.262   5.804 -1.6463  0.7809  0.5993
  186SLPC  H14C21363   5.819   6.339   5.952  0.2911  2.5618 -0.5038
  186SLPC   C1521364   6.035   6.487   5.819  0.4388  0.5037  0.0003
  186SLPC  H15A21365   6.054   6.512   5.922 -0.8924  0.9420  0.1547
  186SLPC  H15B21366   6.128   6.497   5.765 -0.1475  0.8277 -0.9896
  186SLPC  H15C21367   5.965   6.557   5.776  0.4285  0.4984  0.0091
  186SLPC   C1221368   6.060   6.242   5.874  0.2896  0.2933  0.4381
  186SLPC  H12A21369   6.165   6.243   5.849  0.0567 -3.4753 -1.5047
  186SLPC  H12B21370   6.030   6.140   5.855 -2.2497  0.9549  0.5497
  186SLPC   C1121371   6.050   6.257   6.033 -0.8009 -0.7232  0.6707
  186SLPC  H11A21372   6.067   6.363   6.060  1.7235 -0.9246  0.0594
  186SLPC  H11B21373   6.128   6.194   6.079 -0.2042  0.7661  1.7585
  186SLPC     P21374   5.882   6.073   6.105 -0.0834 -0.0498 -0.5632
  186SLPC   O1321375   5.742   6.067   6.137  0.7359  0.1315 -0.7031
  186SLPC   O1421376   5.927   5.990   5.990  0.0043  0.2862  0.0135
  186SLPC   O1221377   5.921   6.222   6.088 -0.4512  0.1330  0.2599
  186SLPC   O1121378   5.961   6.024   6.232  0.0354 -0.3118 -0.1858
  186SLPC    C121379   5.961   6.109   6.355 -0.2905  0.6310 -0.0530
  186SLPC    HA21380   5.911   6.206   6.338 -2.7170 -1.0249 -3.7068
  186SLPC    HB21381   5.906   6.043   6.426  1.3273 -1.5578 -0.7301
  186SLPC    C221382   6.105   6.142   6.413 -0.3288 -0.0580  0.7678
  186SLPC    HS21383   6.163   6.170   6.323 -2.6753  0.4441 -0.6818
  186SLPC   O2121384   6.146   6.019   6.477  0.5470 -0.0339 -0.2139
  186SLPC   C2121385   6.277   6.001   6.466  0.7080 -0.0885 -0.5093
  186SLPC   O2221386   6.356   6.073   6.408 -0.3716  1.0638  0.0701
  186SLPC   C2221387   6.313   5.876   6.548 -0.4158  0.4490  0.3858
  186SLPC   H2R21388   6.221   5.816   6.532 -0.8162  1.3286 -0.7429
  186SLPC   H2S21389   6.394   5.828   6.488 -1.2820  0.7327 -1.0761
  186SLPC    C321390   6.106   6.265   6.514 -0.1678 -0.1697 -0.1844
  186SLPC    HX21391   6.026   6.235   6.586  0.5325 -2.7059 -0.3630
  186SLPC    HY21392   6.079   6.356   6.456  1.4745  0.5240  0.0686
  186SLPC   O3121393   6.234   6.285   6.594 -0.1755 -0.4693  0.0464
  186SLPC   C3121394   6.322   6.360   6.532  0.5345  0.3217  0.0603
  186SLPC   O3221395   6.306   6.426   6.432 -0.0862 -0.0512 -0.0530
  186SLPC   C3221396   6.454   6.354   6.599 -0.3698 -0.1031 -0.0638
  186SLPC   H2X21397   6.496   6.453   6.568 -0.1986 -0.4399 -0.9472
  186SLPC   H2Y21398   6.523   6.274   6.565 -0.1572  0.0960 -0.1031
  186SLPC   C2321399   6.364   5.909   6.690  0.0536  0.1735  0.2235
  186SLPC   H3R21400   6.456   5.970   6.682  1.0584 -1.5071 -1.8800
  186SLPC   H3S21401   6.391   5.810   6.733  1.2561 -0.7455 -2.4488
  186SLPC   C2421402   6.260   5.972   6.781 -0.6461  0.3077 -0.0999
  186SLPC   H4R21403   6.161   5.921   6.783 -1.0900  1.1153 -0.8400
  186SLPC   H4S21404   6.246   6.076   6.744  0.3443 -0.0511 -1.5835
  186SLPC   C2521405   6.307   5.985   6.931  0.3099  0.1409  0.1045
  186SLPC   H5R21406   6.411   6.025   6.931  0.7426 -0.9295 -1.2957
  186SLPC   H5S21407   6.324   5.881   6.965 -0.5085 -0.7424 -2.0284
  186SLPC   C2621408   6.196   6.059   7.009 -0.0674 -0.8478  0.1846
  186SLPC   H6R21409   6.096   6.012   7.001  0.7392 -2.4390 -0.9786
  186SLPC   H6S21410   6.182   6.157   6.959 -2.4774  0.0553  2.3744
  186SLPC   C2721411   6.226   6.074   7.161 -0.0826  0.4934 -0.2567
  186SLPC   H7R21412   6.293   5.990   7.190 -0.8648  0.3972  1.4014
  186SLPC   H7S21413   6.137   6.078   7.227  0.6343  1.1949  0.7124
  186SLPC   C2821414   6.306   6.199   7.203  0.2484 -0.0567 -0.8970
  186SLPC   H8R21415   6.239   6.285   7.181  1.5482  2.0949  2.6473
  186SLPC   H8S21416   6.392   6.204   7.134  1.0526 -0.2241  0.0750
  186SLPC   C2921417   6.348   6.215   7.353 -0.4140  0.0828  0.0124
  186SLPC   H9R21418   6.283   6.272   7.420  1.1166  0.8721  0.8956
  186SLPC  C21021419   6.469   6.174   7.397 -0.2301 -0.0675  0.5443
  186SLPC  H10R21420   6.495   6.188   7.503 -0.1485  2.8014  0.2332
  186SLPC  C21121421   6.576   6.109   7.309 -0.2249  0.1662  0.4407
  186SLPC  H11R21422   6.607   6.172   7.223  0.2529 -0.2051  0.3354
  186SLPC  H11S21423   6.521   6.027   7.258 -4.8777  2.2792  1.5503
  186SLPC  C21221424   6.696   6.055   7.385 -0.6857  0.2962 -0.0371
  186SLPC  H12R21425   6.689   5.956   7.432  1.5003 -0.9784 -2.1601
  186SLPC  C21321426   6.819   6.117   7.391 -0.0965 -0.6818 -0.7460
  186SLPC  H13R21427   6.909   6.067   7.431 -0.1834 -0.9854 -0.9247
  186SLPC  C21421428   6.850   6.252   7.331  1.1794  0.6922 -0.7332
  186SLPC  H14R21429   6.865   6.322   7.416 -1.3861  0.3531  0.0945
  186SLPC  H14S21430   6.777   6.281   7.252 -1.5516 -2.7725  0.2151
  186SLPC  C21521431   6.991   6.259   7.267 -0.6282 -0.3035  0.6219
  186SLPC  H15R21432   7.015   6.169   7.207 -0.0438 -0.7649  1.5326
  186SLPC  H15S21433   7.064   6.247   7.350 -0.0833  1.1439  0.3732
  186SLPC  C21621434   7.023   6.379   7.178  0.7361 -0.0137  0.3515
  186SLPC  H16R21435   6.934   6.396   7.113  0.6875  0.5175  0.5479
  186SLPC  H16S21436   7.092   6.341   7.100  0.1302 -1.9592  0.7029
  186SLPC  C21721437   7.068   6.497   7.258 -0.3059  0.1082  0.1450
  186SLPC  H17R21438   7.156   6.471   7.321 -1.2263  0.2528  1.5263
  186SLPC  H17S21439   6.987   6.532   7.325 -2.9092 -2.0422 -1.6489
  186SLPC  C21821440   7.110   6.612   7.169  0.3720 -0.0361  0.5719
  186SLPC  H18R21441   7.200   6.582   7.111 -1.5174  0.4351 -2.8127
  186SLPC  H18S21442   7.135   6.707   7.220 -1.1331  1.5754 -1.5179
  186SLPC  H18T21443   7.032   6.649   7.100 -0.4159  2.0655  2.4694
  186SLPC   C3321444   6.450   6.352   6.749  0.1875 -0.2735 -0.6590
  186SLPC   H3X21445   6.549   6.350   6.799  0.2383 -1.0306 -0.7670
  186SLPC   H3Y21446   6.403   6.257   6.783  0.0895  0.3283  0.9981
  186SLPC   C3421447   6.384   6.474   6.815  0.6410 -0.0379 -0.3428
  186SLPC   H4X21448   6.275   6.470   6.794  0.2692  0.2690  1.3901
  186SLPC   H4Y21449   6.421   6.567   6.767 -1.0003  0.2956 -1.0229
  186SLPC   C3521450   6.394   6.494   6.967  0.3007  0.7074 -0.4404
  186SLPC   H5X21451   6.357   6.411   7.032  0.4901  0.8395 -0.1600
  186SLPC   H5Y21452   6.337   6.584   6.998  0.4498  0.1459  1.6246
  186SLPC   C3621453   6.534   6.540   7.020  0.1812  0.7957 -0.9609
  186SLPC   H6X21454   6.554   6.642   6.981  0.9816  0.1866 -2.2032
  186SLPC   H6Y21455   6.602   6.469   6.968 -0.3335  0.9360 -1.8375
  186SLPC   C3721456   6.535   6.549   7.172  0.6846 -0.6782  0.8179
  186SLPC   H7X21457   6.499   6.458   7.225 -0.2323 -0.6470  0.2783
  186SLPC   H7Y21458   6.463   6.630   7.197 -0.1743 -0.3975 -2.1610
  186SLPC   C3821459   6.669   6.573   7.238 -0.1068  0.1133  0.2356
  186SLPC   H8X21460   6.697   6.672   7.196  1.8457 -0.9369 -1.1423
  186SLPC   H8Y21461   6.745   6.500   7.202 -1.0662 -0.9550  0.3299
  186SLPC   C3921462   6.662   6.579   7.391 -1.1889  0.8420 -0.7325
  186SLPC   H9X21463   6.757   6.622   7.429 -1.5578  3.3687 -2.3996
  186SLPC   H9Y21464   6.667   6.474   7.427  0.8387  1.0161 -0.3831
  186SLPC  C31021465   6.545   6.667   7.452  0.2022 -0.0392  0.8896
  186SLPC  H10X21466   6.440   6.641   7.427  0.4394  1.0234 -1.3655
  186SLPC  H10Y21467   6.557   6.769   7.412 -0.8595 -0.8912 -1.7725
  186SLPC  C31121468   6.556   6.675   7.607 -0.3414  0.0072  0.4445
  186SLPC  H11X21469   6.651   6.725   7.634 -0.7804  0.3853  1.3372
  186SLPC  H11Y21470   6.546   6.581   7.666 -1.7113  0.4476  0.9795
  186SLPC  C31221471   6.442   6.773   7.654  0.0542  0.0262  0.2043
  186SLPC  H12X21472   6.348   6.731   7.613  0.5005 -1.1830  0.3867
  186SLPC  H12Y21473   6.455   6.872   7.604 -0.2319 -0.5507 -1.0516
  186SLPC  C31321474   6.429   6.799   7.803  0.1661  0.5360  0.4736
  186SLPC  H13X21475   6.415   6.697   7.846  0.5324 -0.5786 -1.9242
  186SLPC  H13Y21476   6.340   6.857   7.837  0.1714  0.7292  0.1548
  186SLPC  C31421477   6.558   6.850   7.868  0.0578 -0.0641 -0.4806
  186SLPC  H14X21478   6.558   6.957   7.836  0.7673  0.3228  0.7145
  186SLPC  H14Y21479   6.643   6.792   7.827 -0.1347 -2.5981  2.3550
  186SLPC  C31521480   6.576   6.846   8.027  0.3442 -0.7069 -0.0249
  186SLPC  H15X21481   6.601   6.742   8.058  0.0779 -0.6224  0.4748
  186SLPC  H15Y21482   6.476   6.879   8.062  0.8756 -0.3979  1.2526
  186SLPC  C31621483   6.680   6.958   8.057 -0.0810 -0.4327  0.4146
  186SLPC  H16X21484   6.646   7.055   8.015  3.4930  0.0177 -1.8480
  186SLPC  H16Y21485   6.776   6.944   8.003 -1.1890  2.9388 -2.8084
  186SLPC  C31721486   6.706   6.982   8.202 -0.1983  0.2873 -0.3700
  186SLPC  H17X21487   6.750   6.895   8.254 -1.2810 -0.4054 -0.5870
  186SLPC  H17Y21488   6.607   6.987   8.252 -0.5671 -3.7018 -0.3895
  186SLPC  C31821489   6.782   7.108   8.242  0.0709 -0.2210 -0.6810
  186SLPC  H18X21490   6.755   7.195   8.179 -0.7062 -2.0457 -3.0602
  186SLPC  H18Y21491   6.891   7.101   8.220 -0.3966 -0.5931 -3.1982
  186SLPC  H18Z21492   6.760   7.138   8.346  1.6459 -1.1017 -0.0664
  187SLPC     N21493   6.081   2.805   6.739  0.5001 -0.5111 -0.0512
  187SLPC   C1321494   6.016   2.695   6.666 -0.2372 -0.2815  0.7046
  187SLPC  H13A21495   5.950   2.631   6.722 -2.2535 -1.3684 -2.6749
  187SLPC  H13B21496   5.960   2.740   6.586  0.5999  1.2813  0.9595
  187SLPC  H13C21497   6.083   2.635   6.607 -1.8548 -1.6336  0.1888
  187SLPC   C1421498   6.211   2.850   6.687  0.2099 -0.6334 -0.2551
  187SLPC  H14A21499   6.241   2.933   6.750 -1.9578 -0.5207  0.7260
  187SLPC  H14B21500   6.288   2.774   6.688  0.8487 -0.1790  3.5975
  187SLPC  H14C21501   6.200   2.891   6.588  1.9965  0.1727 -0.1648
  187SLPC   C1521502   6.101   2.759   6.882  0.1887  0.6082  0.4673
  187SLPC  H15A21503   6.137   2.839   6.945  0.3859 -1.5914  3.4011
  187SLPC  H15B21504   6.015   2.712   6.928  0.2123 -0.0627 -0.1583
  187SLPC  H15C21505   6.165   2.672   6.888 -0.3972  0.0791 -0.7048
  187SLPC   C1221506   5.992   2.931   6.747  0.2554 -0.3268  0.0687
  187SLPC  H12A21507   6.036   3.004   6.813  2.1310 -0.9643 -0.4025
  187SLPC  H12B21508   5.894   2.904   6.784  0.0264  2.2413  1.5947
  187SLPC   C1121509   5.949   2.993   6.609  0.0882  0.4959 -0.3298
  187SLPC  H11A21510   6.034   3.025   6.544  0.3846  0.4152  0.0114
  187SLPC  H11B21511   5.899   3.089   6.632 -3.9344 -1.2117 -1.0932
  187SLPC     P21512   5.721   2.881   6.558  0.4035 -0.1418  0.0927
  187SLPC   O1321513   5.635   2.952   6.458  0.1126  0.5278 -0.5238
  187SLPC   O1421514   5.710   2.734   6.577 -0.4735 -0.0459 -0.6532
  187SLPC   O1221515   5.870   2.910   6.527 -0.6406 -0.6510  0.5692
  187SLPC   O1121516   5.701   2.954   6.695 -0.0159  0.2133  0.2409
  187SLPC    C121517   5.599   3.053   6.714 -0.0887  0.2751  0.0604
  187SLPC    HA21518   5.648   3.147   6.745 -0.3571 -0.3405  2.6129
  187SLPC    HB21519   5.538   3.072   6.623  1.0159  0.1742 -0.7226
  187SLPC    C221520   5.506   3.004   6.828 -0.3071  0.3155 -0.6062
  187SLPC    HS21521   5.418   3.069   6.843 -1.2077 -0.7233 -1.2043
  187SLPC   O2121522   5.586   2.995   6.949  0.0686  0.5498  0.1922
  187SLPC   C2121523   5.599   3.105   7.021  0.6402  0.0571 -0.0549
  187SLPC   O2221524   5.554   3.213   6.989 -0.1118 -0.2715 -0.2871
  187SLPC   C2221525   5.680   3.073   7.140 -0.5639  0.0210 -0.3904
  187SLPC   H2R21526   5.649   2.976   7.184  0.7844 -0.2462 -0.0040
  187SLPC   H2S21527   5.784   3.067   7.103  0.0244  2.3124  0.6944
  187SLPC    C321528   5.436   2.868   6.803  0.2847 -0.3020 -0.0393
  187SLPC    HX21529   5.519   2.800   6.774  1.1864  0.5515  0.4854
  187SLPC    HY21530   5.375   2.880   6.711  0.6657  1.9821 -0.0539
  187SLPC   O3121531   5.361   2.818   6.912 -0.2460  0.3511 -0.2512
  187SLPC   C3121532   5.288   2.715   6.885 -0.0085 -0.2604  0.2239
  187SLPC   O3221533   5.278   2.655   6.777  0.7572  0.2714 -0.4711
  187SLPC   C3221534   5.208   2.670   7.009 -0.2216  0.5454  0.6901
  187SLPC   H2X21535   5.126   2.744   7.019 -1.1610 -0.2407 -0.8207
  187SLPC   H2Y21536   5.276   2.686   7.095 -0.4141 -1.7543  1.3388
  187SLPC   C2321537   5.682   3.180   7.250  0.1065 -0.2312 -0.2309
  187SLPC   H3R21538   5.708   3.281   7.211  2.2426 -0.3254  0.8005
  187SLPC   H3S21539   5.760   3.159   7.326 -1.0067  0.8591  1.2553
  187SLPC   C2421540   5.551   3.187   7.342 -0.1227 -0.0062  0.1672
  187SLPC   H4R21541   5.470   3.228   7.277  0.4501  0.3231 -0.3547
  187SLPC   H4S21542   5.569   3.245   7.434 -0.5008 -0.1169  0.3113
  187SLPC   C2521543   5.498   3.051   7.391 -0.2414 -0.2573 -0.3303
  187SLPC   H5R21544   5.581   3.002   7.446 -1.1957 -1.2236  0.2986
  187SLPC   H5S21545   5.470   2.982   7.308  3.1967 -0.5756 -1.4021
  187SLPC   C2621546   5.386   3.061   7.495  0.4300 -0.7051 -0.2882
  187SLPC   H6R21547   5.309   3.125   7.448  0.0068 -2.2751 -1.8544
  187SLPC   H6S21548   5.423   3.107   7.589 -0.3675  2.5945 -1.4518
  187SLPC   C2721549   5.332   2.923   7.532 -0.0210  0.1394 -0.2285
  187SLPC   H7R21550   5.405   2.855   7.580 -0.4373  1.0000  1.7025
  187SLPC   H7S21551   5.291   2.868   7.444  0.8951  1.1350 -1.3189
  187SLPC   C2821552   5.212   2.935   7.624  0.4737 -0.7745 -0.1209
  187SLPC   H8R21553   5.128   2.989   7.575  0.6006 -1.2380 -0.8562
  187SLPC   H8S21554   5.244   3.006   7.703 -2.4433  0.5025  0.0635
  187SLPC   C2921555   5.154   2.813   7.681  0.5846  0.4399  0.4066
  187SLPC   H9R21556   5.104   2.744   7.611  1.3783 -2.0065  2.1379
  187SLPC  C21021557   5.184   2.769   7.802  0.0704  0.0611  0.1152
  187SLPC  H10R21558   5.142   2.679   7.848  0.0720  0.6776  1.3633
  187SLPC  C21121559   5.275   2.826   7.905  0.1334 -0.4423 -0.1361
  187SLPC  H11R21560   5.212   2.853   7.992  0.4763 -2.9011  0.9590
  187SLPC  H11S21561   5.314   2.925   7.872 -1.3942 -0.1154 -1.0468
  187SLPC  C21221562   5.397   2.744   7.954  1.1833 -0.0817 -0.6739
  187SLPC  H12R21563   5.400   2.639   7.921  0.4345 -0.2495 -0.2447
  187SLPC  C21321564   5.496   2.783   8.038 -0.0455 -0.5854 -0.2899
  187SLPC  H13R21565   5.578   2.710   8.050  0.2633 -0.4635 -1.5277
  187SLPC  C21421566   5.515   2.922   8.102 -0.7235  0.1883 -0.1428
  187SLPC  H14R21567   5.528   2.907   8.211 -1.1215 -0.2153 -0.1475
  187SLPC  H14S21568   5.430   2.993   8.093  0.7764  1.8964 -1.7334
  187SLPC  C21521569   5.639   2.999   8.044  0.0047  0.1126  0.1448
  187SLPC  H15R21570   5.730   2.942   8.072  0.1385 -0.7018 -1.7742
  187SLPC  H15S21571   5.661   3.092   8.100 -0.9976 -0.8836  2.2826
  187SLPC  C21621572   5.634   3.015   7.896 -0.9892 -0.1846  0.2140
  187SLPC  H16R21573   5.541   3.067   7.866 -0.8403  0.5994  1.0525
  187SLPC  H16S21574   5.634   2.911   7.856  1.6828 -0.5387  0.9828
  187SLPC  C21721575   5.757   3.098   7.859 -0.4198 -0.2914 -0.8206
  187SLPC  H17R21576   5.845   3.040   7.895  0.3074  0.8455 -0.7198
  187SLPC  H17S21577   5.767   3.193   7.915  0.6585 -0.5265 -0.5983
  187SLPC  C21821578   5.774   3.134   7.707 -0.1181  0.2788  0.0573
  187SLPC  H18R21579   5.686   3.199   7.688 -0.4179  1.2953  4.1121
  187SLPC  H18S21580   5.767   3.040   7.647  0.1516  0.7545 -0.7286
  187SLPC  H18T21581   5.868   3.193   7.701 -1.0219  1.8718  0.9936
  187SLPC   C3321582   5.160   2.527   7.007  0.6389  0.0073  0.0392
  187SLPC   H3X21583   5.246   2.458   7.018 -1.1082 -2.1247  0.8614
  187SLPC   H3Y21584   5.122   2.525   6.902  1.2419  0.6706 -0.2055
  187SLPC   C3421585   5.051   2.488   7.106  0.4502  0.0302  0.0984
  187SLPC   H4X21586   4.958   2.521   7.054  1.1699 -0.4863 -1.5783
  187SLPC   H4Y21587   5.049   2.526   7.211  1.0946 -1.5525  0.7120
  187SLPC   C3521588   5.042   2.341   7.112  0.1175  0.2265  0.2192
  187SLPC   H5X21589   5.135   2.300   7.158 -0.2148 -1.7668 -0.7441
  187SLPC   H5Y21590   5.048   2.307   7.007 -1.3043 -0.7578  0.4284
  187SLPC   C3621591   4.909   2.288   7.168  0.4871  0.1559  0.5045
  187SLPC   H6X21592   4.933   2.181   7.158  2.2609  0.5869 -0.2128
  187SLPC   H6Y21593   4.822   2.304   7.100  0.0978  0.0162  0.9609
  187SLPC   C3721594   4.875   2.324   7.311 -0.3712  0.3562  0.9169
  187SLPC   H7X21595   4.968   2.317   7.372 -0.2096  0.1686  0.6525
  187SLPC   H7Y21596   4.839   2.429   7.319 -0.3325  0.3909  0.6344
  187SLPC   C3821597   4.768   2.230   7.364 -0.5903 -0.2874  0.3849
  187SLPC   H8X21598   4.800   2.126   7.339 -0.0724 -0.1077  0.2772
  187SLPC   H8Y21599   4.676   2.242   7.304 -0.7605 -1.0399  0.4889
  187SLPC   C3921600   4.728   2.251   7.509 -0.7411 -0.4079  0.0903
  187SLPC   H9X21601   4.678   2.350   7.510  1.3328  0.7146  2.1153
  187SLPC   H9Y21602   4.816   2.247   7.576 -1.4813  0.1030  1.1248
  187SLPC  C31021603   4.619   2.154   7.560 -0.8113 -0.4855  0.9508
  187SLPC  H10X21604   4.654   2.049   7.551  1.0527  0.1914 -0.2748
  187SLPC  H10Y21605   4.536   2.170   7.488 -0.4379  2.5213  1.0267
  187SLPC  C31121606   4.565   2.184   7.699 -0.2080 -0.1302 -0.3680
  187SLPC  H11X21607   4.464   2.137   7.700 -0.4581  0.3279 -1.7576
  187SLPC  H11Y21608   4.537   2.291   7.706 -0.9173 -0.4352  3.7592
  187SLPC  C31221609   4.655   2.138   7.815  0.4733 -0.0848  0.5938
  187SLPC  H12X21610   4.760   2.175   7.806 -0.3680  1.8419 -3.2712
  187SLPC  H12Y21611   4.651   2.027   7.811 -0.0559 -0.1120  1.5326
  187SLPC  C31321612   4.589   2.166   7.951  0.1408 -0.4233 -0.5259
  187SLPC  H13X21613   4.483   2.138   7.933 -0.0629 -0.1350  0.1823
  187SLPC  H13Y21614   4.605   2.270   7.987  1.9172 -0.0621 -2.1622
  187SLPC  C31421615   4.653   2.080   8.060  0.4782 -0.3562 -0.0029
  187SLPC  H14X21616   4.761   2.107   8.056  0.1141  1.0134 -1.7543
  187SLPC  H14Y21617   4.654   1.975   8.024  2.3774 -0.1563 -0.6825
  187SLPC  C31521618   4.599   2.113   8.198  0.3061 -0.3362 -1.3278
  187SLPC  H15X21619   4.502   2.069   8.230  0.3095  0.5056 -0.0709
  187SLPC  H15Y21620   4.587   2.223   8.205 -0.1434 -0.4495  0.3289
  187SLPC  C31621621   4.696   2.072   8.320  0.1919  0.2898 -0.2965
  187SLPC  H16X21622   4.786   2.134   8.304  0.0522  0.3656 -0.7884
  187SLPC  H16Y21623   4.735   1.968   8.312 -0.4168  0.0184  0.1389
  187SLPC  C31721624   4.649   2.081   8.468 -0.4765 -0.4210  0.2481
  187SLPC  H17X21625   4.744   2.077   8.525 -0.0601 -0.7984 -0.4632
  187SLPC  H17Y21626   4.581   1.999   8.499 -0.9815 -0.7891 -1.6781
  187SLPC  C31821627   4.571   2.206   8.495 -0.0952  0.0667  0.1171
  187SLPC  H18X21628   4.618   2.305   8.482  0.4124 -0.0344  1.1020
  187SLPC  H18Y21629   4.549   2.205   8.604 -0.9282  2.0199  0.0105
  187SLPC  H18Z21630   4.476   2.209   8.437 -1.4155 -0.6588  2.1306
  188SLPC     N21631   6.466   3.114   5.977 -0.4457  0.3505 -0.2249
  188SLPC   C1321632   6.414   3.086   5.837  0.1359 -0.3041 -0.3995
  188SLPC  H13A21633   6.403   2.982   5.813 -0.7039 -0.1982 -0.4910
  188SLPC  H13B21634   6.317   3.134   5.831  0.2491 -0.0983 -0.6002
  188SLPC  H13C21635   6.487   3.129   5.769  1.9046 -1.2999  0.7859
  188SLPC   C1421636   6.584   3.024   6.010 -0.3762 -0.5033  0.1020
  188SLPC  H14A21637   6.635   3.052   6.101 -0.3666 -0.2284  0.0153
  188SLPC  H14B21638   6.560   2.919   6.008 -1.1701 -0.3312 -2.1661
  188SLPC  H14C21639   6.658   3.041   5.933 -0.1419 -0.0287  0.4236
  188SLPC   C1521640   6.365   3.085   6.075 -0.2384 -0.3531  0.2795
  188SLPC  H15A21641   6.318   2.988   6.068 -1.7958  0.4825 -2.0596
  188SLPC  H15B21642   6.409   3.089   6.174  0.9923 -2.3396 -0.1271
  188SLPC  H15C21643   6.284   3.155   6.064  0.8543  0.7063 -1.4315
  188SLPC   C1221644   6.512   3.267   5.988 -0.0053 -0.2958 -0.7297
  188SLPC  H12A21645   6.431   3.327   5.950 -1.3420 -1.7993 -0.3486
  188SLPC  H12B21646   6.590   3.280   5.914  0.9594  1.8783  0.5726
  188SLPC   C1121647   6.570   3.312   6.120 -0.6462 -0.3907  0.1625
  188SLPC  H11A21648   6.592   3.421   6.116 -1.3667 -0.1741  1.2650
  188SLPC  H11B21649   6.666   3.264   6.146 -0.0308  0.9936  0.5434
  188SLPC     P21650   6.371   3.407   6.262  0.5012 -0.2410  0.0565
  188SLPC   O1321651   6.334   3.495   6.145  0.0514  0.2310  0.0738
  188SLPC   O1421652   6.253   3.347   6.336 -0.2900 -0.0069  0.2768
  188SLPC   O1221653   6.480   3.292   6.231 -0.3197 -0.0458  0.0505
  188SLPC   O1121654   6.453   3.499   6.361  0.6341 -0.1912  0.2746
  188SLPC    C121655   6.514   3.432   6.472 -0.4165  0.6868  0.1331
  188SLPC    HA21656   6.453   3.355   6.524 -1.1386  0.3975 -1.1070
  188SLPC    HB21657   6.604   3.376   6.439 -1.0996  0.0230 -0.6654
  188SLPC    C221658   6.561   3.547   6.574 -0.4482 -0.3226  0.2611
  188SLPC    HS21659   6.626   3.498   6.650 -1.2321 -0.1177  1.0849
  188SLPC   O2121660   6.448   3.618   6.634 -0.1838 -0.3229  0.4671
  188SLPC   C2121661   6.384   3.551   6.736 -0.0036 -0.1223  0.1138
  188SLPC   O2221662   6.418   3.436   6.762 -0.3484  0.1462 -0.2916
  188SLPC   C2221663   6.284   3.644   6.806  0.2346  0.1701 -0.3727
  188SLPC   H2R21664   6.232   3.705   6.730 -0.7129  1.3043  1.1176
  188SLPC   H2S21665   6.217   3.573   6.859 -1.6024  0.7337 -1.8421
  188SLPC    C321666   6.657   3.651   6.524  1.3261 -0.0639  0.9704
  188SLPC    HX21667   6.598   3.705   6.447 -0.1724 -1.3543  1.1568
  188SLPC    HY21668   6.745   3.612   6.470  1.4801  1.8589 -0.2652
  188SLPC   O3121669   6.681   3.747   6.628  0.5789  0.4277  0.5040
  188SLPC   C3121670   6.783   3.711   6.709 -0.5455  0.0437  0.2904
  188SLPC   O3221671   6.843   3.605   6.696 -0.0942 -0.0688  0.8116
  188SLPC   C3221672   6.824   3.816   6.812 -0.6833  0.3526 -0.2279
  188SLPC   H2X21673   6.761   3.906   6.796  0.1513  0.7719 -1.2636
  188SLPC   H2Y21674   6.932   3.837   6.800 -0.4065 -0.7680  0.2240
  188SLPC   C2321675   6.354   3.737   6.912 -0.4596 -0.1209  0.4507
  188SLPC   H3R21676   6.270   3.791   6.960  0.4312  0.4237  1.4427
  188SLPC   H3S21677   6.417   3.818   6.868 -0.3765  1.6321  3.5009
  188SLPC   C2421678   6.439   3.660   7.015  0.0199 -0.5152 -0.2010
  188SLPC   H4R21679   6.517   3.719   7.068  1.4278 -2.7004  0.3558
  188SLPC   H4S21680   6.500   3.584   6.960 -1.1603 -0.7876 -1.1674
  188SLPC   C2521681   6.353   3.581   7.111  0.1317 -0.1967 -0.2358
  188SLPC   H5R21682   6.275   3.526   7.054 -0.3147  0.7103 -0.5252
  188SLPC   H5S21683   6.306   3.661   7.172  1.1451  0.9385 -0.8945
  188SLPC   C2621684   6.430   3.478   7.199 -0.4738 -0.1059  0.5203
  188SLPC   H6R21685   6.482   3.398   7.142 -0.0814  0.2435  0.3728
  188SLPC   H6S21686   6.365   3.421   7.268 -1.0312  1.9021  1.7349
  188SLPC   C2721687   6.527   3.553   7.296  0.6606 -0.3018 -0.5145
  188SLPC   H7R21688   6.566   3.636   7.232 -0.9661  1.3776  0.5602
  188SLPC   H7S21689   6.599   3.478   7.335  2.2432  0.3196 -2.1069
  188SLPC   C2821690   6.458   3.608   7.426  0.4644  0.4222  0.6133
  188SLPC   H8R21691   6.414   3.522   7.481 -0.2513  0.4569  0.0918
  188SLPC   H8S21692   6.384   3.686   7.400 -1.1450 -0.7606  1.4586
  188SLPC   C2921693   6.562   3.663   7.522  0.1826  0.2104 -0.2617
  188SLPC   H9R21694   6.664   3.625   7.506 -0.4006 -0.5732 -2.4004
  188SLPC  C21021695   6.541   3.751   7.615 -0.4554 -0.1239  0.1327
  188SLPC  H10R21696   6.623   3.792   7.675 -1.9970 -0.7470  2.8581
  188SLPC  C21121697   6.407   3.805   7.652 -0.6197  0.3294  0.8586
  188SLPC  H11R21698   6.338   3.798   7.565 -0.0490  0.0175  0.4251
  188SLPC  H11S21699   6.407   3.914   7.674  1.5802  0.2850  1.2932
  188SLPC  C21221700   6.344   3.724   7.755  0.0795 -0.4878 -0.2677
  188SLPC  H12R21701   6.304   3.625   7.730 -0.6473 -0.4028  0.4943
  188SLPC  C21321702   6.316   3.765   7.883  0.2531  0.4951  0.5185
  188SLPC  H13R21703   6.276   3.695   7.958  0.3700  1.4341  1.4799
  188SLPC  C21421704   6.333   3.905   7.927  0.1786 -0.0834 -0.9975
  188SLPC  H14R21705   6.238   3.944   7.971  1.2110 -0.6040  1.9042
  188SLPC  H14S21706   6.364   3.970   7.842  1.4124 -1.0388 -1.3061
  188SLPC  C21521707   6.445   3.918   8.033 -0.1523 -0.1105  0.4381
  188SLPC  H15R21708   6.435   3.834   8.106 -1.5928 -0.1205  0.2616
  188SLPC  H15S21709   6.438   4.012   8.091 -2.0445 -0.8285  1.4723
  188SLPC  C21621710   6.588   3.912   7.976 -0.3300  0.3011 -0.5796
  188SLPC  H16R21711   6.604   4.006   7.919  0.0007  1.1102  0.8065
  188SLPC  H16S21712   6.602   3.836   7.896 -1.0160  0.3094 -0.7075
  188SLPC  C21721713   6.701   3.903   8.080  0.4325 -0.3345 -0.0462
  188SLPC  H17R21714   6.677   3.972   8.163 -3.4411 -1.9426  0.4109
  188SLPC  H17S21715   6.798   3.926   8.031  0.5802  0.2198  0.5068
  188SLPC  C21821716   6.699   3.757   8.142  0.1287 -0.0729  0.4984
  188SLPC  H18R21717   6.785   3.754   8.212 -0.2332 -0.5174  0.9360
  188SLPC  H18S21718   6.701   3.685   8.057 -3.1073  1.0537 -0.7000
  188SLPC  H18T21719   6.606   3.726   8.194 -0.8852  0.2354 -1.0418
  188SLPC   C3321720   6.826   3.757   6.953 -0.5326  0.8213 -0.6350
  188SLPC   H3X21721   6.888   3.665   6.963 -0.5740  1.0084  2.0231
  188SLPC   H3Y21722   6.723   3.718   6.964 -0.8034  1.9563  1.6470
  188SLPC   C3421723   6.870   3.850   7.072 -0.0417  0.1646  0.4474
  188SLPC   H4X21724   6.819   3.949   7.066 -0.3566  0.0075  0.4902
  188SLPC   H4Y21725   6.978   3.860   7.051  0.3382 -1.1554  1.6421
  188SLPC   C3521726   6.863   3.771   7.200 -0.0085 -0.5102 -0.0780
  188SLPC   H5X21727   6.907   3.672   7.175 -0.7886 -0.9158  0.1183
  188SLPC   H5Y21728   6.755   3.749   7.214 -0.1080 -0.4532 -0.7222
  188SLPC   C3621729   6.930   3.836   7.322  0.0836 -0.0626  0.3304
  188SLPC   H6X21730   6.873   3.926   7.354  0.3182 -0.1976  1.1344
  188SLPC   H6Y21731   7.023   3.890   7.294 -1.2681  2.0508 -0.3876
  188SLPC   C3721732   6.956   3.742   7.441  0.3711 -0.1843  0.7148
  188SLPC   H7X21733   7.011   3.650   7.413 -0.6230 -0.6933  0.3663
  188SLPC   H7Y21734   6.852   3.720   7.474  0.2298  0.2376  0.5448
  188SLPC   C3821735   7.023   3.803   7.558  0.7510 -0.3759 -0.5812
  188SLPC   H8X21736   7.124   3.841   7.532  0.4133 -0.7230 -2.5426
  188SLPC   H8Y21737   7.036   3.723   7.633 -0.4961 -0.0667 -0.0030
  188SLPC   C3921738   6.950   3.911   7.644  0.9118  0.0778  0.6955
  188SLPC   H9X21739   6.860   3.856   7.680  0.2433  0.4772 -0.3263
  188SLPC   H9Y21740   6.927   3.994   7.575 -0.4976 -0.3973  0.5581
  188SLPC  C31021741   7.027   3.973   7.758  0.0640  0.2436 -0.8287
  188SLPC  H10X21742   6.968   4.035   7.828  1.1228 -0.7243  1.0036
  188SLPC  H10Y21743   7.129   4.014   7.739  0.5869  0.2119  1.5728
  188SLPC  C31121744   7.065   3.853   7.852 -0.4367  0.1715  0.0933
  188SLPC  H11X21745   7.117   3.770   7.800 -0.1778  0.2837  0.1721
  188SLPC  H11Y21746   6.964   3.815   7.880 -1.8167  3.2522 -0.2647
  188SLPC  C31221747   7.125   3.890   7.988 -0.2121  0.0696 -0.9014
  188SLPC  H12X21748   7.085   3.990   8.015  1.5944  0.6197 -0.1203
  188SLPC  H12Y21749   7.234   3.901   7.972 -0.1742 -1.7727 -2.1209
  188SLPC  C31321750   7.095   3.784   8.098 -0.2625  0.5597 -0.1162
  188SLPC  H13X21751   7.121   3.679   8.073 -1.8288 -0.6049  2.6873
  188SLPC  H13Y21752   6.984   3.788   8.097 -0.3251  0.9150  2.1856
  188SLPC  C31421753   7.146   3.819   8.231 -0.3787  1.2412  0.2705
  188SLPC  H14X21754   7.256   3.808   8.223 -0.5278  0.7857 -1.9231
  188SLPC  H14Y21755   7.114   3.736   8.298  1.4508 -0.4750 -0.8623
  188SLPC  C31521756   7.112   3.955   8.275  0.7043 -0.3085 -0.2303
  188SLPC  H15X21757   7.008   3.974   8.240  0.8188  0.3804 -0.2068
  188SLPC  H15Y21758   7.183   4.035   8.244 -1.9872  2.9331  1.3114
  188SLPC  C31621759   7.095   3.969   8.430 -0.3999 -0.0135  0.2949
  188SLPC  H16X21760   7.198   3.978   8.473  0.4980 -2.8106 -1.0424
  188SLPC  H16Y21761   7.045   3.875   8.462 -0.6726 -0.2233 -0.7367
  188SLPC  C31721762   7.016   4.094   8.482 -0.1919 -0.3308 -0.1775
  188SLPC  H17X21763   6.909   4.075   8.457  0.6314 -2.7581 -2.3088
  188SLPC  H17Y21764   7.053   4.180   8.423 -1.2859  2.2046  2.5842
  188SLPC  C31821765   7.029   4.108   8.636 -0.4633 -0.5535 -0.4834
  188SLPC  H18X21766   6.975   4.193   8.680 -0.7078  0.1207 -2.0117
  188SLPC  H18Y21767   7.137   4.126   8.657 -1.1898  1.6889  1.7124
  188SLPC  H18Z21768   7.010   4.008   8.681  0.7254 -1.6880 -2.3160
  189SLPC     N21769   1.515   6.537   5.950 -0.2463 -0.2765  0.3231
  189SLPC   C1321770   1.402   6.554   6.044 -0.3324  0.0551  0.2164
  189SLPC  H13A21771   1.395   6.657   6.077  2.4671  0.0412  1.1913
  189SLPC  H13B21772   1.309   6.517   6.006  0.3807 -2.1054  0.4539
  189SLPC  H13C21773   1.420   6.491   6.130  2.3058  1.6846  0.9979
  189SLPC   C1421774   1.457   6.577   5.816 -0.3090  0.2758 -0.1828
  189SLPC  H14A21775   1.385   6.508   5.775 -0.6907  0.7618 -0.3429
  189SLPC  H14B21776   1.397   6.667   5.818 -0.1731  0.3699  1.4783
  189SLPC  H14C21777   1.533   6.590   5.741 -2.3962  1.3678 -2.2662
  189SLPC   C1521778   1.552   6.399   5.932 -0.3387 -0.6328  0.1716
  189SLPC  H15A21779   1.612   6.382   5.844  0.2688 -0.1582  0.4840
  189SLPC  H15B21780   1.607   6.370   6.020  0.1682 -1.0580 -0.2755
  189SLPC  H15C21781   1.466   6.334   5.932 -1.0226  0.2536  1.0166
  189SLPC   C1221782   1.630   6.633   5.986 -0.3657 -0.4211  0.0796
  189SLPC  H12A21783   1.593   6.735   5.984  1.0276  0.1926  2.0836
  189SLPC  H12B21784   1.705   6.622   5.909 -0.2067 -0.0205  0.1745
  189SLPC   C1121785   1.690   6.616   6.126 -0.5222 -0.0663  0.3521
  189SLPC  H11A21786   1.612   6.621   6.205 -1.7576 -0.3018 -0.8132
  189SLPC  H11B21787   1.771   6.686   6.157  1.1735 -1.6048 -0.3858
  189SLPC     P21788   1.762   6.399   6.264  0.0130  0.4134  0.0019
  189SLPC   O1321789   1.652   6.422   6.356 -0.1665 -0.3368 -0.1713
  189SLPC   O1421790   1.773   6.257   6.224  0.1851  0.2291 -0.2530
  189SLPC   O1221791   1.752   6.489   6.129  0.1636  0.3513 -0.3766
  189SLPC   O1121792   1.893   6.455   6.336  0.4633 -0.0166  0.0813
  189SLPC    C121793   1.995   6.376   6.399  0.7973 -0.2625  0.2144
  189SLPC    HA21794   2.030   6.304   6.322  0.1458  0.0329 -0.3666
  189SLPC    HB21795   2.077   6.439   6.438  1.4884 -0.5838 -0.6832
  189SLPC    C221796   1.933   6.296   6.513  0.0462 -0.0353 -0.2612
  189SLPC    HS21797   1.881   6.215   6.457 -2.0208  1.8934 -1.2693
  189SLPC   O2121798   1.844   6.377   6.598 -0.6737  0.2860  0.1685
  189SLPC   C2121799   1.749   6.308   6.648  0.5385  0.2543 -0.4518
  189SLPC   O2221800   1.704   6.203   6.613  0.2559  0.5050  0.4601
  189SLPC   C2221801   1.696   6.384   6.768  0.4622 -0.4652  0.1783
  189SLPC   H2R21802   1.766   6.442   6.832  1.2805  0.2977 -1.3309
  189SLPC   H2S21803   1.637   6.467   6.724  2.0026  0.1508 -0.8237
  189SLPC    C321804   2.036   6.220   6.602  0.0714 -0.3857  0.4849
  189SLPC    HX21805   2.096   6.305   6.640 -0.3965  0.5651 -0.8361
  189SLPC    HY21806   2.112   6.159   6.549 -1.9553 -3.8080  1.2371
  189SLPC   O3121807   1.988   6.150   6.708 -0.5615  0.0444 -0.2988
  189SLPC   C3121808   1.928   6.030   6.687  0.3459  0.0969  0.3075
  189SLPC   O3221809   1.918   5.969   6.581  0.1976 -0.1071 -0.1000
  189SLPC   C3221810   1.874   5.979   6.817 -0.0415 -0.3890  0.3700
  189SLPC   H2X21811   1.857   5.871   6.796 -2.0184  0.3918 -2.8332
  189SLPC   H2Y21812   1.773   6.017   6.840 -1.5996 -2.7640 -1.9090
  189SLPC   C2321813   1.599   6.304   6.857 -0.1260  0.6327  0.2448
  189SLPC   H3R21814   1.650   6.214   6.900  0.6030  1.0748  0.3295
  189SLPC   H3S21815   1.523   6.258   6.790  2.2855 -1.4438 -1.2643
  189SLPC   C2421816   1.538   6.382   6.975 -0.1444  0.4134  0.5107
  189SLPC   H4R21817   1.452   6.318   7.001 -0.0902  1.0062  2.2790
  189SLPC   H4S21818   1.500   6.479   6.936  0.2974  1.1438  1.8024
  189SLPC   C2521819   1.637   6.407   7.087 -0.2495  0.4072 -0.1326
  189SLPC   H5R21820   1.728   6.456   7.048 -1.4583  0.2715 -3.4303
  189SLPC   H5S21821   1.665   6.309   7.130 -2.7758 -1.3608 -2.2380
  189SLPC   C2621822   1.571   6.499   7.180 -0.3142 -0.3222 -1.1706
  189SLPC   H6R21823   1.503   6.570   7.128 -0.3719  1.3003  0.9530
  189SLPC   H6S21824   1.646   6.559   7.235 -2.2361  1.2178 -0.0746
  189SLPC   C2721825   1.503   6.413   7.292  0.1053 -0.1710  0.8016
  189SLPC   H7R21826   1.569   6.328   7.320 -1.6740 -1.3523  1.6254
  189SLPC   H7S21827   1.402   6.375   7.267  0.3560  0.0908 -0.7259
  189SLPC   C2821828   1.486   6.487   7.423 -0.3637 -0.6538 -0.2480
  189SLPC   H8R21829   1.436   6.584   7.400  2.3834  0.5170 -1.8185
  189SLPC   H8S21830   1.587   6.523   7.453  1.1337 -1.2819 -4.0846
  189SLPC   C2921831   1.402   6.422   7.529 -0.8783  0.1480  0.2274
  189SLPC   H9R21832   1.304   6.384   7.498  0.5965 -3.2696 -0.7180
  189SLPC  C21021833   1.430   6.400   7.662  0.2264 -0.0264 -0.3777
  189SLPC  H10R21834   1.350   6.361   7.726  2.3725 -0.0562  2.4655
  189SLPC  C21121835   1.558   6.441   7.732  0.1128 -0.6351 -0.7655
  189SLPC  H11R21836   1.625   6.493   7.660 -0.3232 -2.4057 -2.5179
  189SLPC  H11S21837   1.617   6.362   7.783  2.3172  0.4244 -1.5341
  189SLPC  C21221838   1.535   6.555   7.831  0.1857 -0.3658  0.4740
  189SLPC  H12R21839   1.516   6.649   7.776  0.3285 -0.8502 -0.4238
  189SLPC  C21321840   1.539   6.552   7.961  0.5765 -0.3304 -0.6947
  189SLPC  H13R21841   1.511   6.640   8.021 -0.1256 -0.9276 -0.1153
  189SLPC  C21421842   1.561   6.426   8.045 -0.2864  0.9110 -0.5125
  189SLPC  H14R21843   1.631   6.451   8.127 -1.1285  0.7646  0.2684
  189SLPC  H14S21844   1.619   6.350   7.989  0.5133  0.2794  1.1114
  189SLPC  C21521845   1.431   6.360   8.097 -0.2576  0.0965  0.0521
  189SLPC  H15R21846   1.457   6.264   8.145 -1.7541  0.4702  1.6917
  189SLPC  H15S21847   1.359   6.337   8.015  0.3546  0.1818 -0.5185
  189SLPC  C21621848   1.348   6.451   8.190 -0.5365  0.3702  0.1162
  189SLPC  H16R21849   1.321   6.540   8.129  1.8128 -0.1489 -1.7894
  189SLPC  H16S21850   1.384   6.475   8.293  0.3459  0.1011 -0.1309
  189SLPC  C21721851   1.215   6.392   8.219 -0.3541  0.7404 -0.1563
  189SLPC  H17R21852   1.226   6.308   8.291 -0.0749 -1.9484 -3.1183
  189SLPC  H17S21853   1.165   6.361   8.124  0.0551 -3.0136  0.7006
  189SLPC  C21821854   1.127   6.478   8.305 -0.2846  0.1069 -0.0133
  189SLPC  H18R21855   1.183   6.523   8.389  0.6083 -2.5528  0.9239
  189SLPC  H18S21856   1.048   6.414   8.349  0.4827 -0.6744  0.2689
  189SLPC  H18T21857   1.081   6.550   8.234 -2.1297 -1.3342 -0.3520
  189SLPC   C3321858   1.975   5.997   6.934 -0.0010  0.4137 -0.1003
  189SLPC   H3X21859   2.020   6.099   6.940  1.2485  0.0650 -2.4902
  189SLPC   H3Y21860   2.056   5.922   6.922 -0.2172  0.0804  0.4571
  189SLPC   C3421861   1.909   5.972   7.073  0.9735 -0.1290  0.4248
  189SLPC   H4X21862   1.841   5.884   7.062 -0.9578  1.2693  0.6267
  189SLPC   H4Y21863   1.849   6.066   7.082  1.6257  0.3332  0.0284
  189SLPC   C3521864   2.010   5.945   7.188  0.4081  0.4713  0.2941
  189SLPC   H5X21865   2.068   6.040   7.192 -0.1271  1.0804 -3.3453
  189SLPC   H5Y21866   2.091   5.873   7.163 -0.4634 -0.2104 -0.6134
  189SLPC   C3621867   1.937   5.900   7.321  0.1033  0.1797  0.9006
  189SLPC   H6X21868   1.902   5.796   7.306 -1.1265  0.6743  0.2043
  189SLPC   H6Y21869   1.841   5.956   7.331  0.3366  0.1105  5.5688
  189SLPC   C3721870   2.017   5.922   7.450 -0.0112  1.0303 -0.2839
  189SLPC   H7X21871   2.000   6.028   7.477  0.5306  1.3689 -1.2070
  189SLPC   H7Y21872   2.122   5.928   7.413  0.5257  0.2285  1.0087
  189SLPC   C3821873   1.987   5.831   7.572 -0.7505 -0.5421 -0.2821
  189SLPC   H8X21874   1.973   5.725   7.542 -1.5586 -0.0577 -1.7014
  189SLPC   H8Y21875   1.896   5.870   7.623 -1.4137  1.4946 -2.8380
  189SLPC   C3921876   2.104   5.837   7.670 -0.1480  0.1031  0.5825
  189SLPC   H9X21877   2.149   5.938   7.676  0.3638  0.0228 -1.2733
  189SLPC   H9Y21878   2.187   5.769   7.639  0.7294  1.5945 -0.4475
  189SLPC  C31021879   2.073   5.782   7.808  0.7237  0.1398  0.4998
  189SLPC  H10X21880   2.033   5.680   7.793  1.1487  0.2052 -1.2974
  189SLPC  H10Y21881   1.999   5.845   7.862 -0.7655  0.8589 -2.1568
  189SLPC  C31121882   2.199   5.765   7.896 -0.2320  0.4634 -0.4327
  189SLPC  H11X21883   2.263   5.855   7.885  1.2936 -0.6410 -0.9825
  189SLPC  H11Y21884   2.259   5.680   7.857 -0.8633  0.0645 -0.5562
  189SLPC  C31221885   2.150   5.722   8.034 -0.2792  0.3893 -0.3995
  189SLPC  H12X21886   2.063   5.654   8.024 -0.7253  0.8268  0.4385
  189SLPC  H12Y21887   2.096   5.804   8.086 -0.2521  0.1732 -0.0263
  189SLPC  C31321888   2.265   5.664   8.123 -0.1614  0.4213 -0.6555
  189SLPC  H13X21889   2.304   5.565   8.090  1.5263  0.7577  0.2206
  189SLPC  H13Y21890   2.207   5.660   8.217  0.3867 -0.5139 -0.3482
  189SLPC  C31421891   2.377   5.762   8.148  0.0936 -0.6066 -0.9233
  189SLPC  H14X21892   2.336   5.854   8.194  1.8715  0.5402 -1.5206
  189SLPC  H14Y21893   2.423   5.792   8.051 -0.0502 -1.7108 -1.3486
  189SLPC  C31521894   2.493   5.707   8.239  1.1524  0.0947  0.0838
  189SLPC  H15X21895   2.507   5.600   8.213 -1.3192  0.0368 -1.3845
  189SLPC  H15Y21896   2.463   5.719   8.346  1.1576 -0.2563  0.1274
  189SLPC  C31621897   2.617   5.785   8.199 -0.1816 -0.6847 -0.8975
  189SLPC  H16X21898   2.594   5.894   8.206  1.1556 -0.5160  3.4453
  189SLPC  H16Y21899   2.655   5.777   8.095  1.8398 -1.9926 -0.1076
  189SLPC  C31721900   2.738   5.749   8.294  1.1122 -0.5609 -0.0196
  189SLPC  H17X21901   2.823   5.811   8.260  1.1561  0.3697  1.7123
  189SLPC  H17Y21902   2.757   5.641   8.277  0.9696 -0.9521  2.0998
  189SLPC  C31821903   2.706   5.778   8.443  0.2242  0.3016 -0.5255
  189SLPC  H18X21904   2.631   5.702   8.472  1.0954 -1.0142 -1.6053
  189SLPC  H18Y21905   2.665   5.880   8.459 -2.3667 -0.8024  0.3624
  189SLPC  H18Z21906   2.791   5.758   8.511 -1.3191  0.2244  1.4661
  190SLPC     N21907   2.708   5.628   6.026 -0.1479  0.1937  0.3670
  190SLPC   C1321908   2.599   5.700   5.962  0.3596 -0.3788  0.1110
  190SLPC  H13A21909   2.605   5.807   5.976  0.2714 -0.1770 -1.2129
  190SLPC  H13B21910   2.593   5.682   5.855 -1.0291 -0.1714  0.1285
  190SLPC  H13C21911   2.506   5.671   6.008  0.3586 -1.1182 -0.3377
  190SLPC   C1421912   2.841   5.676   5.971  0.2311 -0.3627  0.6547
  190SLPC  H14A21913   2.853   5.778   6.004 -1.0038  0.6263 -1.7109
  190SLPC  H14B21914   2.926   5.618   6.003  1.8160  1.7600  0.5542
  190SLPC  H14C21915   2.827   5.675   5.864 -0.5647 -0.0248  0.7524
  190SLPC   C1521916   2.680   5.486   5.994 -0.0560  0.1040  0.5627
  190SLPC  H15A21917   2.596   5.433   6.037 -0.5829  0.6841  0.2635
  190SLPC  H15B21918   2.662   5.466   5.890 -0.1084 -2.0524  0.9457
  190SLPC  H15C21919   2.769   5.428   6.017 -1.5651 -1.2055  3.7402
  190SLPC   C1221920   2.700   5.629   6.178  0.0086 -0.4369 -0.4143
  190SLPC  H12A21921   2.699   5.730   6.218  2.7086 -0.5213  0.0287
  190SLPC  H12B21922   2.789   5.579   6.210 -0.3343 -0.9976 -0.3247
  190SLPC   C1121923   2.585   5.563   6.263 -0.3524 -0.1392  0.5844
  190SLPC  H11A21924   2.617   5.574   6.369  1.0270 -1.0335  0.2962
  190SLPC  H11B21925   2.583   5.453   6.244  0.6349 -0.1521  0.4716
  190SLPC     P21926   2.421   5.767   6.300 -0.4123 -0.1702  0.2297
  190SLPC   O1321927   2.536   5.842   6.334  0.2988 -0.1482  0.9455
  190SLPC   O1421928   2.323   5.831   6.208  0.0406  0.2178  0.0246
  190SLPC   O1221929   2.467   5.624   6.238  0.2523 -0.6744 -0.2499
  190SLPC   O1121930   2.343   5.720   6.435  0.4483 -0.2957  0.5828
  190SLPC    C121931   2.234   5.644   6.413 -0.0796 -0.2843 -0.5503
  190SLPC    HA21932   2.169   5.673   6.328  0.2085 -1.2261 -1.1029
  190SLPC    HB21933   2.275   5.542   6.398 -1.2685 -0.5888 -1.8745
  190SLPC    C221934   2.139   5.634   6.535  0.2943 -0.4305  0.0887
  190SLPC    HS21935   2.099   5.737   6.543  1.2694 -0.1945  2.9016
  190SLPC   O2121936   2.216   5.590   6.651  0.5382 -0.4413 -0.3251
  190SLPC   C2121937   2.165   5.628   6.763 -0.0785 -0.5355 -1.0363
  190SLPC   O2221938   2.087   5.721   6.780 -0.4268  0.3841  0.2161
  190SLPC   C2221939   2.208   5.536   6.878 -0.7773 -0.1182 -0.4559
  190SLPC   H2R21940   2.143   5.445   6.880 -2.0785  0.7681  1.7883
  190SLPC   H2S21941   2.308   5.490   6.860 -0.3832  0.0301  1.1511
  190SLPC    C321942   2.026   5.541   6.493  0.1570  0.9969 -0.1071
  190SLPC    HX21943   2.076   5.445   6.468 -1.0788  0.0914  0.7592
  190SLPC    HY21944   1.983   5.566   6.394  0.9989 -0.4777 -0.8880
  190SLPC   O3121945   1.923   5.513   6.592 -0.1619  0.2307  0.7980
  190SLPC   C3121946   1.810   5.575   6.596 -0.2997 -0.4814  0.4033
  190SLPC   O3221947   1.777   5.652   6.506 -0.0046  0.2310  0.0120
  190SLPC   C3221948   1.720   5.513   6.701  0.2055 -0.2240  0.6200
  190SLPC   H2X21949   1.706   5.411   6.658  0.8607 -0.5095  1.0659
  190SLPC   H2Y21950   1.626   5.571   6.713 -0.2702 -1.1717  1.6870
  190SLPC   C2321951   2.196   5.589   7.026  0.0677  0.2233  0.7470
  190SLPC   H3R21952   2.104   5.650   7.034 -0.7548 -0.8766 -0.0695
  190SLPC   H3S21953   2.281   5.656   7.052  0.6096 -1.1275  2.6205
  190SLPC   C2421954   2.209   5.482   7.132 -0.4415 -0.0565 -0.4544
  190SLPC   H4R21955   2.307   5.430   7.138  0.7842  2.0712 -0.7435
  190SLPC   H4S21956   2.130   5.407   7.111 -0.0383 -0.2795 -1.2170
  190SLPC   C2521957   2.178   5.543   7.273  0.2346  0.3633 -0.1353
  190SLPC   H5R21958   2.076   5.585   7.273  0.0199 -0.1413 -0.3386
  190SLPC   H5S21959   2.252   5.621   7.301 -0.3259  0.5168  0.9733
  190SLPC   C2621960   2.188   5.443   7.394 -0.1936 -0.3824 -0.2063
  190SLPC   H6R21961   2.279   5.381   7.377  0.2621  0.2619 -0.1565
  190SLPC   H6S21962   2.100   5.377   7.387 -0.5281 -0.1053  1.2167
  190SLPC   C2721963   2.187   5.499   7.541  0.1906  0.5748  0.2968
  190SLPC   H7R21964   2.080   5.525   7.551 -0.0436  0.2605 -1.1565
  190SLPC   H7S21965   2.242   5.595   7.535 -1.9798  1.7712 -2.1415
  190SLPC   C2821966   2.241   5.404   7.651 -0.0767 -0.2473  0.6004
  190SLPC   H8R21967   2.221   5.467   7.740 -2.0350 -1.0941  0.8030
  190SLPC   H8S21968   2.352   5.400   7.643 -0.0881  0.5662 -0.2096
  190SLPC   C2921969   2.182   5.268   7.663 -0.3187  0.1127  0.5142
  190SLPC   H9R21970   2.114   5.229   7.587 -1.1628  0.9513  0.8129
  190SLPC  C21021971   2.217   5.189   7.767 -0.8256  0.2403  0.1091
  190SLPC  H10R21972   2.160   5.097   7.787 -1.2835  0.0710 -1.7644
  190SLPC  C21121973   2.310   5.231   7.877 -0.3249 -0.0566  0.3804
  190SLPC  H11R21974   2.262   5.303   7.946  0.4929  2.0079 -1.0955
  190SLPC  H11S21975   2.403   5.274   7.833 -0.6368  1.4692  1.1392
  190SLPC  C21221976   2.335   5.111   7.964  0.6061 -0.3750  0.1631
  190SLPC  H12R21977   2.330   5.008   7.926  2.9616 -1.4014  2.3361
  190SLPC  C21321978   2.375   5.115   8.091  0.3406  0.2086 -0.1543
  190SLPC  H13R21979   2.367   5.030   8.159 -0.2511  1.8847  1.9743
  190SLPC  C21421980   2.413   5.237   8.157 -0.1344 -0.3354  0.3542
  190SLPC  H14R21981   2.424   5.320   8.083 -1.0705 -0.1677  0.3939
  190SLPC  H14S21982   2.514   5.223   8.202 -0.0270 -0.5840  0.0424
  190SLPC  C21521983   2.327   5.281   8.269 -0.1007  0.2699 -0.0626
  190SLPC  H15R21984   2.374   5.371   8.316 -0.1759  0.8846 -1.1195
  190SLPC  H15S21985   2.339   5.208   8.351 -0.7744  0.9645  0.6746
  190SLPC  C21621986   2.179   5.308   8.241  0.6144  0.7249 -0.4206
  190SLPC  H16R21987   2.130   5.218   8.197  0.3362  0.0664  1.1416
  190SLPC  H16S21988   2.158   5.384   8.163 -1.0150  0.5485 -0.1906
  190SLPC  C21721989   2.100   5.364   8.371 -0.1264  0.0721  0.2797
  190SLPC  H17R21990   2.148   5.458   8.406 -0.0520 -0.4866  1.7307
  190SLPC  H17S21991   2.124   5.287   8.447 -0.2440 -0.3782 -0.1339
  190SLPC  C21821992   1.953   5.385   8.351  0.0627 -0.2497 -0.9292
  190SLPC  H18R21993   1.908   5.297   8.301 -1.3138 -0.2263  0.2000
  190SLPC  H18S21994   1.938   5.478   8.293  0.7978 -0.2399 -1.1124
  190SLPC  H18T21995   1.898   5.391   8.448  2.4257 -0.1350  0.4746
  190SLPC   C3321996   1.794   5.479   6.828  0.1223 -0.6883  0.5921
  190SLPC   H3X21997   1.854   5.567   6.860 -1.4995  0.0074  1.8046
  190SLPC   H3Y21998   1.862   5.391   6.819 -1.1878 -1.8117  1.2301
  190SLPC   C3421999   1.702   5.456   6.944  0.0058  0.4411  0.1660
  190SLPC   H4X22000   1.668   5.350   6.945  2.7905 -0.5442  1.5241
  190SLPC   H4Y22001   1.610   5.517   6.937 -1.1478 -1.1795  0.6382
  190SLPC   C3522002   1.772   5.485   7.074 -0.2437  0.1101  0.5578
  190SLPC   H5X22003   1.788   5.595   7.068  0.0961  0.0728  0.7772
  190SLPC   H5Y22004   1.856   5.413   7.082 -2.3944 -2.5340  0.5491
  190SLPC   C3622005   1.684   5.456   7.197 -0.1468 -0.5849 -0.6866
  190SLPC   H6X22006   1.664   5.347   7.201  0.6829 -0.7264  0.0577
  190SLPC   H6Y22007   1.586   5.508   7.189 -0.5172 -1.0824  0.3516
  190SLPC   C3722008   1.752   5.492   7.333  0.1859 -0.0048 -0.4094
  190SLPC   H7X22009   1.777   5.600   7.320 -0.5077  0.0917 -1.0007
  190SLPC   H7Y22010   1.841   5.428   7.352 -0.4392  0.3337  5.4218
  190SLPC   C3822011   1.660   5.478   7.463 -0.3561 -0.5920  1.0377
  190SLPC   H8X22012   1.607   5.380   7.461 -0.2689 -0.6411  1.1750
  190SLPC   H8Y22013   1.583   5.557   7.472 -0.0042  0.1615 -1.6583
  190SLPC   C3922014   1.737   5.495   7.601  0.3931 -0.2103 -0.6644
  190SLPC   H9X22015   1.774   5.598   7.619 -0.9684 -0.0115  1.2343
  190SLPC   H9Y22016   1.816   5.418   7.605  0.4288 -0.1225  1.5357
  190SLPC  C31022017   1.628   5.479   7.715  0.1952 -0.3179  0.0095
  190SLPC  H10X22018   1.607   5.370   7.716  2.4112 -0.7761  0.6540
  190SLPC  H10Y22019   1.534   5.533   7.691 -0.2317  0.4843  2.9743
  190SLPC  C31122020   1.688   5.529   7.852  0.1898 -0.2316 -0.7563
  190SLPC  H11X22021   1.722   5.634   7.849  1.9042 -0.6837  0.9131
  190SLPC  H11Y22022   1.781   5.468   7.849 -0.1084 -0.6881 -0.8655
  190SLPC  C31222023   1.604   5.496   7.979 -0.3607 -0.0381 -0.3733
  190SLPC  H12X22024   1.646   5.409   8.035  2.8689  0.3311 -1.9643
  190SLPC  H12Y22025   1.501   5.465   7.953 -0.9972 -0.1793  2.0442
  190SLPC  C31322026   1.598   5.611   8.088 -0.2582 -0.4667 -0.2214
  190SLPC  H13X22027   1.516   5.684   8.070 -0.4815 -1.3083 -3.0460
  190SLPC  H13Y22028   1.693   5.669   8.083 -2.2069  3.1293  0.6190
  190SLPC  C31422029   1.603   5.569   8.238 -0.0070  0.6035  0.1343
  190SLPC  H14X22030   1.702   5.520   8.253  0.0070  0.5677 -0.0756
  190SLPC  H14Y22031   1.525   5.490   8.242 -0.0056  0.6351  1.1448
  190SLPC  C31522032   1.583   5.670   8.349  0.1714  0.3107  0.0258
  190SLPC  H15X22033   1.500   5.740   8.325 -2.1515 -2.0880  0.6387
  190SLPC  H15Y22034   1.676   5.731   8.356 -0.5102  1.4117 -0.2205
  190SLPC  C31622035   1.570   5.602   8.486  0.3783  0.5609 -0.3439
  190SLPC  H16X22036   1.655   5.538   8.518 -1.6288 -1.3009  1.5563
  190SLPC  H16Y22037   1.495   5.522   8.468 -0.1025  1.4492 -2.7377
  190SLPC  C31722038   1.523   5.701   8.593  0.1989  0.7309 -0.2005
  190SLPC  H17X22039   1.592   5.787   8.605  2.0859 -1.0356  2.6548
  190SLPC  H17Y22040   1.529   5.652   8.693 -5.4708 -1.6395 -0.6450
  190SLPC  C31822041   1.376   5.739   8.567  0.1861 -0.1294  0.1102
  190SLPC  H18X22042   1.317   5.647   8.588  0.3201 -0.4283 -0.8063
  190SLPC  H18Y22043   1.364   5.781   8.465 -1.0167  1.3545  0.8193
  190SLPC  H18Z22044   1.343   5.819   8.637 -0.6487  1.3549 -1.8643
  191SLPC     N22045   2.510   0.446   5.610 -0.3415  0.5022  0.2567
  191SLPC   C1322046   2.457   0.558   5.528 -0.0756 -0.2221  0.1122
  191SLPC  H13A22047   2.492   0.654   5.563  0.2941  0.1699 -1.2660
  191SLPC  H13B22048   2.489   0.544   5.426  0.8536 -1.9617  0.5995
  191SLPC  H13C22049   2.349   0.559   5.527 -0.0794 -0.5585 -0.1631
  191SLPC   C1422050   2.658   0.439   5.588 -0.0036 -0.2519 -0.0464
  191SLPC  H14A22051   2.676   0.415   5.485 -0.2616  2.4919 -0.8090
  191SLPC  H14B22052   2.694   0.538   5.613 -0.1170 -0.5629  1.4610
  191SLPC  H14C22053   2.710   0.374   5.656  0.7034  0.8811  0.5415
  191SLPC   C1522054   2.461   0.316   5.557  0.1844  0.8410 -0.6305
  191SLPC  H15A22055   2.509   0.299   5.462  1.8254  0.2196  0.2613
  191SLPC  H15B22056   2.486   0.243   5.633  1.6591  1.2086 -0.7208
  191SLPC  H15C22057   2.354   0.314   5.542  0.1482  0.1016 -0.3079
  191SLPC   C1222058   2.470   0.464   5.748  0.0984 -0.0362  0.2611
  191SLPC  H12A22059   2.364   0.457   5.767  0.3156 -0.7733  1.2913
  191SLPC  H12B22060   2.506   0.563   5.771  0.2612  0.1183 -0.6070
  191SLPC   C1122061   2.543   0.369   5.847 -0.0934  0.6056  0.0757
  191SLPC  H11A22062   2.548   0.260   5.824 -2.3083  0.6095 -0.5872
  191SLPC  H11B22063   2.468   0.382   5.927 -0.7594  0.8559 -0.5724
  191SLPC     P22064   2.682   0.556   5.969  0.1623 -0.0627 -0.2138
  191SLPC   O1322065   2.816   0.564   6.028  0.1785 -0.6803  0.0280
  191SLPC   O1422066   2.620   0.673   5.902  0.8128  0.4150 -0.5585
  191SLPC   O1222067   2.674   0.419   5.879  0.2631  0.1941  0.2923
  191SLPC   O1122068   2.586   0.504   6.085  0.5718  0.4063  0.0257
  191SLPC    C122069   2.494   0.589   6.147 -0.0670  0.1994 -0.5868
  191SLPC    HA22070   2.435   0.649   6.074  0.2844  0.2495 -0.8294
  191SLPC    HB22071   2.426   0.516   6.197  0.5287 -0.0282 -0.0923
  191SLPC    C222072   2.553   0.693   6.248  0.0432  0.5893 -0.6009
  191SLPC    HS22073   2.619   0.758   6.186  2.6979 -2.2213 -0.9271
  191SLPC   O2122074   2.629   0.626   6.352  0.2701  0.2368  0.1590
  191SLPC   C2122075   2.719   0.698   6.414  0.2156  0.3656 -0.4088
  191SLPC   O2222076   2.742   0.814   6.377  0.5994  0.0953 -0.6089
  191SLPC   C2222077   2.774   0.619   6.534 -0.0916 -0.0296  0.6176
  191SLPC   H2R22078   2.697   0.558   6.587 -0.3548  2.5376  3.4758
  191SLPC   H2S22079   2.839   0.540   6.491  0.5414  0.2361  1.0694
  191SLPC    C322080   2.439   0.776   6.311  0.0130 -0.4401 -0.0156
  191SLPC    HX22081   2.400   0.836   6.226  2.4278  1.0154 -0.1856
  191SLPC    HY22082   2.491   0.840   6.385  0.7254  0.0492 -0.9253
  191SLPC   O3122083   2.339   0.689   6.371  0.2159 -0.4887 -0.0635
  191SLPC   C3122084   2.344   0.676   6.506  0.2423  0.5011 -0.0454
  191SLPC   O3222085   2.436   0.717   6.574 -0.9054  0.2168 -0.1806
  191SLPC   C3222086   2.230   0.593   6.552 -0.0522  0.1609 -0.2595
  191SLPC   H2X22087   2.269   0.518   6.624  2.0271 -1.5384 -2.9229
  191SLPC   H2Y22088   2.202   0.531   6.463  1.7456 -1.0909 -0.0155
  191SLPC   C2322089   2.857   0.707   6.638 -0.1616  0.2289  0.1229
  191SLPC   H3R22090   2.896   0.796   6.584  0.8344  0.3892  1.0600
  191SLPC   H3S22091   2.953   0.657   6.664  0.4076  0.6040 -1.1548
  191SLPC   C2422092   2.776   0.759   6.760 -0.2157  0.3013  0.0810
  191SLPC   H4R22093   2.745   0.663   6.806  0.6124 -0.2326 -0.4445
  191SLPC   H4S22094   2.682   0.809   6.727  0.2521  1.5055  0.4802
  191SLPC   C2522095   2.857   0.861   6.843 -0.0233 -0.1801 -0.2790
  191SLPC   H5R22096   2.901   0.947   6.788 -0.6099  0.3259  0.0195
  191SLPC   H5S22097   2.945   0.810   6.886  1.1722  0.1498 -2.2239
  191SLPC   C2622098   2.780   0.922   6.957 -0.5959  0.6275  0.8167
  191SLPC   H6R22099   2.689   0.967   6.913 -0.6533 -0.1577  0.1110
  191SLPC   H6S22100   2.850   0.992   7.008  1.4817 -0.8792  0.2134
  191SLPC   C2722101   2.742   0.815   7.061 -0.2644  0.6554  0.2266
  191SLPC   H7R22102   2.836   0.773   7.102  1.0829  3.1609 -0.0391
  191SLPC   H7S22103   2.697   0.732   7.003  2.0145 -0.0108 -0.7200
  191SLPC   C2822104   2.634   0.849   7.163 -0.7446 -0.9163 -0.1326
  191SLPC   H8R22105   2.592   0.753   7.199  1.1803 -1.5514  0.5566
  191SLPC   H8S22106   2.560   0.910   7.107 -1.4367 -0.5434  1.1275
  191SLPC   C2922107   2.684   0.919   7.286 -0.0893 -0.2040  0.0185
  191SLPC   H9R22108   2.771   0.870   7.334 -0.5996  0.4397  1.6841
  191SLPC  C21022109   2.632   1.033   7.332 -0.2023 -0.0850 -0.5190
  191SLPC  H10R22110   2.679   1.067   7.425  0.5025  0.1854 -0.9636
  191SLPC  C21122111   2.517   1.104   7.272 -0.6266 -0.5386 -0.1112
  191SLPC  H11R22112   2.434   1.030   7.265  0.6452 -2.0249 -0.0302
  191SLPC  H11S22113   2.539   1.129   7.166  0.7381 -1.4062 -0.0602
  191SLPC  C21222114   2.471   1.222   7.355 -0.4684  0.3316  0.1424
  191SLPC  H12R22115   2.526   1.315   7.332  2.5244 -1.1963  0.5814
  191SLPC  C21322116   2.371   1.226   7.443  0.1287  0.1376  0.2463
  191SLPC  H13R22117   2.345   1.325   7.484 -0.0387  0.6260 -1.0066
  191SLPC  C21422118   2.294   1.104   7.479  0.7107  0.2308 -0.0774
  191SLPC  H14R22119   2.363   1.018   7.464 -2.2513 -2.0190 -1.8437
  191SLPC  H14S22120   2.221   1.075   7.401  1.8172 -2.0511 -0.3598
  191SLPC  C21522121   2.247   1.087   7.624 -0.1105 -0.5508 -0.7657
  191SLPC  H15R22122   2.324   1.133   7.690  0.8435  1.2318 -2.9864
  191SLPC  H15S22123   2.246   0.980   7.654 -0.8906 -0.6895 -1.2722
  191SLPC  C21622124   2.113   1.159   7.653 -0.2129  0.1229  0.2172
  191SLPC  H16R22125   2.055   1.117   7.738 -0.7630  0.0125 -0.2091
  191SLPC  H16S22126   2.060   1.133   7.559  0.7758  2.1995 -0.9972
  191SLPC  C21722127   2.130   1.308   7.674  0.4039  0.2544 -0.2385
  191SLPC  H17R22128   2.156   1.368   7.584 -1.6022  1.4607 -0.0836
  191SLPC  H17S22129   2.215   1.325   7.744  0.3856  1.5326 -0.5006
  191SLPC  C21822130   2.011   1.379   7.732  0.2470 -1.1109 -0.2340
  191SLPC  H18R22131   1.918   1.337   7.689  0.7090 -1.3019 -1.0704
  191SLPC  H18S22132   2.017   1.489   7.714 -3.0808 -1.0535 -1.7882
  191SLPC  H18T22133   2.013   1.360   7.841  3.1383 -2.5607 -0.4462
  191SLPC   C3322134   2.113   0.672   6.603 -0.3840 -0.4844 -0.0957
  191SLPC   H3X22135   2.083   0.746   6.526 -2.3132 -1.8056 -0.7040
  191SLPC   H3Y22136   2.137   0.724   6.698  1.6165  0.1422 -0.8976
  191SLPC   C3422137   1.984   0.586   6.628 -0.2362 -0.2605  0.1494
  191SLPC   H4X22138   1.938   0.551   6.533 -1.3693  1.7177 -0.0991
  191SLPC   H4Y22139   1.913   0.656   6.677  1.0898  0.1154  1.6490
  191SLPC   C3522140   2.002   0.464   6.720 -0.5053  0.4436 -1.2314
  191SLPC   H5X22141   2.065   0.396   6.659 -0.9237 -0.6375 -0.4875
  191SLPC   H5Y22142   1.904   0.413   6.731  0.1612 -1.2816 -2.6369
  191SLPC   C3622143   2.058   0.482   6.862  0.3157  0.8095  0.2418
  191SLPC   H6X22144   2.004   0.565   6.912  0.1132  0.3147  0.8578
  191SLPC   H6Y22145   2.166   0.503   6.848  0.4550 -1.1502 -2.6073
  191SLPC   C3722146   2.044   0.354   6.941  0.6657  0.1107  0.4886
  191SLPC   H7X22147   2.077   0.269   6.877 -1.1485 -0.9783  0.9303
  191SLPC   H7Y22148   1.936   0.335   6.958  0.2614  0.6461 -1.2543
  191SLPC   C3822149   2.123   0.365   7.073 -0.3814  0.5008 -0.3048
  191SLPC   H8X22150   2.072   0.436   7.142 -1.8108 -1.7641  1.1062
  191SLPC   H8Y22151   2.225   0.408   7.059 -0.0793  0.4436  1.4834
  191SLPC   C3922152   2.135   0.232   7.151  0.1741 -0.1321 -0.1882
  191SLPC   H9X22153   2.222   0.167   7.126  0.8951 -0.3152  2.4667
  191SLPC   H9Y22154   2.046   0.170   7.129  0.0632 -0.7465  1.7786
  191SLPC  C31022155   2.149   0.260   7.300 -0.7131 -0.1535  0.0758
  191SLPC  H10X22156   2.065   0.329   7.321  0.2929  0.5100  2.1365
  191SLPC  H10Y22157   2.246   0.312   7.312 -0.6257 -0.3906  0.4122
  191SLPC  C31122158   2.142   0.127   7.381  0.6338 -0.0229  0.8079
  191SLPC  H11X22159   2.235   0.069   7.363  0.9344  0.3927  1.0022
  191SLPC  H11Y22160   2.056   0.068   7.344  1.1327 -0.7814  0.8512
  191SLPC  C31222161   2.120   0.157   7.529  0.5140  0.4270 -0.1662
  191SLPC  H12X22162   2.029   0.217   7.546  0.1312 -0.5733  1.5166
  191SLPC  H12Y22163   2.208   0.214   7.569  1.5764 -1.2306 -0.0519
  191SLPC  C31322164   2.117   0.031   7.614 -0.2738 -0.1233  0.1081
  191SLPC  H13X22165   2.204  -0.032   7.586  0.5283 -0.0250  2.2359
  191SLPC  H13Y22166   2.023  -0.014   7.577  0.1697  1.5449 -3.4675
  191SLPC  C31422167   2.117   0.059   7.766 -0.0322  0.5588  0.2691
  191SLPC  H14X22168   2.060   0.152   7.788 -0.3752  0.2405  0.7591
  191SLPC  H14Y22169   2.222   0.072   7.800 -0.3494  1.9485  0.7772
  191SLPC  C31522170   2.060  -0.065   7.840 -0.3982 -0.5922 -0.1819
  191SLPC  H15X22171   2.131  -0.143   7.803 -1.5517 -0.1332 -3.7439
  191SLPC  H15Y22172   1.955  -0.075   7.806 -1.3680  1.8642  1.8130
  191SLPC  C31622173   2.052  -0.056   7.991  0.0100  0.2456 -0.2351
  191SLPC  H16X22174   1.994   0.036   8.018 -1.5340 -0.6363 -0.4070
  191SLPC  H16Y22175   2.156  -0.046   8.028  0.0728 -0.1445 -0.3000
  191SLPC  C31722176   1.983  -0.185   8.041  0.3702 -0.1686 -0.4869
  191SLPC  H17X22177   2.055  -0.268   8.025  1.0011 -0.0606  1.4785
  191SLPC  H17Y22178   1.893  -0.188   7.975  1.2691  0.2157 -1.7641
  191SLPC  C31822179   1.936  -0.186   8.192 -0.0582  0.4902 -0.0878
  191SLPC  H18X22180   1.901  -0.285   8.227 -1.4358  1.0263  0.1167
  191SLPC  H18Y22181   1.854  -0.114   8.211 -1.8302 -0.9484 -1.9058
  191SLPC  H18Z22182   2.027  -0.171   8.254  0.8923  2.4407 -1.8391
  192SLPC     N22183   2.027   1.553   5.898 -0.0492 -1.0592 -0.7773
  192SLPC   C1322184   2.002   1.434   5.810 -0.1422  0.4272  0.3087
  192SLPC  H13A22185   2.013   1.334   5.851 -3.0545  0.4131  1.3038
  192SLPC  H13B22186   1.902   1.429   5.770  0.7676 -0.0475 -2.0384
  192SLPC  H13C22187   2.063   1.450   5.722 -1.2403 -0.5479 -0.6643
  192SLPC   C1422188   1.976   1.679   5.839  0.3394  0.7845  0.0992
  192SLPC  H14A22189   1.882   1.654   5.792  0.1972  0.4038  0.5842
  192SLPC  H14B22190   1.950   1.748   5.918 -1.2501  0.1605  0.1566
  192SLPC  H14C22191   2.048   1.719   5.768 -0.0430 -0.4691 -1.0383
  192SLPC   C1522192   2.175   1.567   5.934 -0.1583 -0.2107  0.7171
  192SLPC  H15A22193   2.180   1.647   6.006  0.8019  1.0739 -0.7382
  192SLPC  H15B22194   2.218   1.473   5.967  0.8698  0.2761  0.7984
  192SLPC  H15C22195   2.234   1.591   5.847 -0.9845  0.1072  0.2351
  192SLPC   C1222196   1.939   1.531   6.016  0.6394  0.4208 -0.2384
  192SLPC  H12A22197   1.951   1.430   6.054 -0.4730  0.1530 -0.5535
  192SLPC  H12B22198   1.838   1.544   5.981  0.7685  0.9845 -0.3973
  192SLPC   C1122199   1.956   1.615   6.148 -0.4496 -0.6020  0.5329
  192SLPC  H11A22200   2.054   1.595   6.196  0.0709  0.4978 -0.0130
  192SLPC  H11B22201   1.879   1.574   6.216 -2.7920 -2.4963 -2.9660
  192SLPC     P22202   1.827   1.843   6.156  0.2189  0.4226  0.0614
  192SLPC   O1322203   1.843   1.975   6.098  0.3127  0.8359 -0.2116
  192SLPC   O1422204   1.711   1.758   6.115 -0.3059  0.3776  0.5202
  192SLPC   O1222205   1.951   1.755   6.119  0.4259  0.1997 -0.1315
  192SLPC   O1122206   1.841   1.843   6.316 -0.5745  0.1551 -0.2500
  192SLPC    C122207   1.966   1.846   6.384  0.2089  0.4760 -0.2343
  192SLPC    HA22208   2.027   1.757   6.357 -1.9182 -1.3514  0.5949
  192SLPC    HB22209   2.027   1.935   6.361  0.8080  0.0984 -0.1355
  192SLPC    C222210   1.946   1.827   6.541  0.8192  0.9129  0.2965
  192SLPC    HS22211   2.045   1.853   6.585  0.9987  1.0467 -0.1760
  192SLPC   O2122212   1.899   1.693   6.564  0.4679  0.0804  0.3598
  192SLPC   C2122213   1.940   1.651   6.679 -0.5257  0.1753  0.0447
  192SLPC   O2222214   2.009   1.722   6.755 -0.3236 -0.1796 -0.3881
  192SLPC   C2222215   1.890   1.511   6.705 -0.8222 -0.2816 -0.7210
  192SLPC   H2R22216   1.900   1.433   6.626  2.2720  0.0727 -0.7967
  192SLPC   H2S22217   1.954   1.473   6.788  0.8022 -0.2818 -1.9236
  192SLPC    C322218   1.847   1.925   6.592  0.4056  0.1048  0.2190
  192SLPC    HX22219   1.759   1.927   6.525 -0.8929  0.7519  1.8691
  192SLPC    HY22220   1.899   2.023   6.588 -1.3924  1.0549 -2.4417
  192SLPC   O3122221   1.795   1.888   6.723 -0.2129 -0.6731 -0.0266
  192SLPC   C3122222   1.864   1.943   6.821 -0.2192 -0.4526  0.1643
  192SLPC   O3222223   1.955   2.025   6.812  0.9653  0.2620  0.5458
  192SLPC   C3222224   1.796   1.899   6.950  0.0364 -0.6314 -0.7345
  192SLPC   H2X22225   1.796   1.788   6.948 -0.3115 -0.6578  0.4217
  192SLPC   H2Y22226   1.688   1.913   6.927  0.2301  1.8255 -0.3946
  192SLPC   C2322227   1.743   1.517   6.761 -0.1563  0.9717  0.0314
  192SLPC   H3R22228   1.671   1.570   6.695  1.7446  0.5086 -2.5380
  192SLPC   H3S22229   1.748   1.561   6.863 -2.9778 -1.2136  1.2522
  192SLPC   C2422230   1.683   1.375   6.795  0.4991 -1.0054  0.1296
  192SLPC   H4R22231   1.706   1.299   6.717 -0.5003 -1.0897 -0.1056
  192SLPC   H4S22232   1.572   1.378   6.794  0.4638 -1.9443  0.4339
  192SLPC   C2522233   1.740   1.310   6.923 -0.0080  0.5341 -0.1153
  192SLPC   H5R22234   1.749   1.389   7.001 -1.9340  0.6349  0.0546
  192SLPC   H5S22235   1.837   1.264   6.893 -0.5917 -0.1826 -0.9456
  192SLPC   C2622236   1.644   1.204   6.983 -0.2674  0.0213 -0.0969
  192SLPC   H6R22237   1.639   1.111   6.920 -1.0174  0.5394 -0.8243
  192SLPC   H6S22238   1.540   1.240   6.984  0.1414  1.2473 -0.2890
  192SLPC   C2722239   1.701   1.153   7.123  0.4900  0.1420  0.1528
  192SLPC   H7R22240   1.735   1.241   7.181 -0.0728  0.3559  0.1651
  192SLPC   H7S22241   1.790   1.092   7.098  0.2717  0.0903 -0.5274
  192SLPC   C2822242   1.585   1.077   7.190 -0.0479 -0.2550 -0.2062
  192SLPC   H8R22243   1.632   1.007   7.262  1.8122  1.1605  0.0636
  192SLPC   H8S22244   1.541   1.005   7.119  1.8349 -2.3622  0.6430
  192SLPC   C2922245   1.484   1.169   7.258 -0.1093 -0.1391  0.3565
  192SLPC   H9R22246   1.418   1.226   7.191  0.5602  0.0031 -0.1951
  192SLPC  C21022247   1.475   1.197   7.394  0.8344 -0.2457  0.6174
  192SLPC  H10R22248   1.396   1.267   7.425  2.1450  1.6111 -0.0696
  192SLPC  C21122249   1.576   1.152   7.494  0.3677 -0.0255  0.2029
  192SLPC  H11R22250   1.605   1.237   7.560 -1.8639  0.1905  0.9877
  192SLPC  H11S22251   1.669   1.115   7.446 -1.3963 -2.9581 -1.2344
  192SLPC  C21222252   1.512   1.041   7.574 -0.4059 -0.4346  0.6561
  192SLPC  H12R22253   1.475   0.953   7.519 -1.2478  0.1875  0.1881
  192SLPC  C21322254   1.494   1.041   7.710  0.6699  0.0638  0.2148
  192SLPC  H13R22255   1.449   0.950   7.752  2.5774 -0.0592  2.1863
  192SLPC  C21422256   1.544   1.141   7.811 -0.0572  0.3800  0.5092
  192SLPC  H14R22257   1.475   1.228   7.812  0.6995  1.0229 -0.5095
  192SLPC  H14S22258   1.636   1.196   7.779 -0.6037  0.4904 -0.9257
  192SLPC  C21522259   1.572   1.088   7.956 -0.0165 -0.9003  0.3487
  192SLPC  H15R22260   1.485   1.029   7.992 -0.8426 -0.8533 -1.4948
  192SLPC  H15S22261   1.587   1.183   8.013 -2.0022 -0.3263 -0.0021
  192SLPC  C21622262   1.705   1.007   7.958  0.0064  0.7528 -0.7045
  192SLPC  H16R22263   1.782   1.077   7.921  0.4840 -1.1656 -3.6514
  192SLPC  H16S22264   1.688   0.915   7.897 -2.9609  0.7217  0.0002
  192SLPC  C21722265   1.735   0.962   8.102  1.3267  0.1614 -0.2566
  192SLPC  H17R22266   1.639   0.921   8.141  2.2035 -3.5055 -1.5197
  192SLPC  H17S22267   1.811   0.882   8.095 -0.1874 -1.2919 -0.8821
  192SLPC  C21822268   1.781   1.065   8.206 -0.6800 -0.3507 -0.1749
  192SLPC  H18R22269   1.751   1.032   8.308  1.0454  0.9386  0.7952
  192SLPC  H18S22270   1.740   1.165   8.184  2.0350  1.0252  0.6291
  192SLPC  H18T22271   1.890   1.069   8.190 -0.6298 -1.0991 -0.0945
  192SLPC   C3322272   1.836   1.970   7.086 -0.0512  0.3282  0.2423
  192SLPC   H3X22273   1.758   1.947   7.162 -0.5769 -2.0725 -0.9191
  192SLPC   H3Y22274   1.841   2.080   7.072 -1.6089  0.2989 -0.8977
  192SLPC   C3422275   1.967   1.919   7.140  0.1304  0.2886  0.5623
  192SLPC   H4X22276   2.052   1.943   7.073  1.4153 -2.3502  1.0746
  192SLPC   H4Y22277   1.947   1.809   7.139  0.6636  0.1816  1.1575
  192SLPC   C3522278   2.008   1.971   7.278 -0.0033 -0.1047  0.0353
  192SLPC   H5X22279   2.023   2.081   7.285 -1.3250  0.2647 -2.1080
  192SLPC   H5Y22280   2.110   1.931   7.299 -0.2948 -0.7366  0.2845
  192SLPC   C3622281   1.927   1.924   7.404  0.9302  0.6852  0.3364
  192SLPC   H6X22282   1.914   1.814   7.401  0.1985  0.7901 -0.9724
  192SLPC   H6Y22283   1.832   1.981   7.394 -0.0298 -1.0436 -1.0948
  192SLPC   C3722284   1.992   1.961   7.537 -0.6388  0.1762 -0.3396
  192SLPC   H7X22285   2.078   1.894   7.559 -0.0825  0.7947 -0.5872
  192SLPC   H7Y22286   1.926   1.944   7.625  1.6835 -1.1984  1.2493
  192SLPC   C3822287   2.048   2.106   7.557  0.2103 -1.0869 -0.2969
  192SLPC   H8X22288   1.964   2.177   7.545  0.8959 -0.1853  0.0739
  192SLPC   H8Y22289   2.117   2.124   7.472 -1.2261 -1.2726 -1.5406
  192SLPC   C3922290   2.119   2.138   7.690  0.1808  0.5717 -0.4323
  192SLPC   H9X22291   2.138   2.246   7.708  1.2436 -0.0405  2.6290
  192SLPC   H9Y22292   2.217   2.087   7.680 -0.5830 -1.0568 -0.1027
  192SLPC  C31022293   2.070   2.078   7.826 -0.6689  0.4198 -0.2323
  192SLPC  H10X22294   2.060   1.968   7.813 -0.1071  0.5400 -1.8745
  192SLPC  H10Y22295   1.969   2.117   7.853 -1.1749  0.3221 -1.8837
  192SLPC  C31122296   2.167   2.123   7.943  0.0653  0.1162  0.0643
  192SLPC  H11X22297   2.156   2.227   7.980 -1.5194 -0.5891  1.7131
  192SLPC  H11Y22298   2.267   2.110   7.894 -0.9372 -2.0799 -1.5892
  192SLPC  C31222299   2.160   2.033   8.070  0.5346 -0.0068 -0.2417
  192SLPC  H12X22300   2.185   1.929   8.039  1.7014 -0.0768  0.8644
  192SLPC  H12Y22301   2.052   2.027   8.096  0.4124  1.2815 -0.3960
  192SLPC  C31322302   2.240   2.082   8.192 -0.0793 -0.2673 -0.2398
  192SLPC  H13X22303   2.230   2.193   8.184  1.4967 -0.1296 -0.5128
  192SLPC  H13Y22304   2.348   2.061   8.178 -0.0527 -1.1020  1.0928
  192SLPC  C31422305   2.191   2.043   8.332 -0.2545 -0.1092  0.6446
  192SLPC  H14X22306   2.093   2.090   8.356 -0.8034  1.2766 -3.4608
  192SLPC  H14Y22307   2.257   2.087   8.409 -0.1236 -1.1718  1.1585
  192SLPC  C31522308   2.179   1.898   8.368 -0.3345  0.2383  0.2159
  192SLPC  H15X22309   2.281   1.859   8.348  0.0007  1.5038 -0.6661
  192SLPC  H15Y22310   2.118   1.842   8.295 -0.2225 -1.4742  1.3712
  192SLPC  C31622311   2.130   1.867   8.509  0.6147 -0.5367 -0.1924
  192SLPC  H16X22312   2.040   1.930   8.518  2.0604  1.8436 -1.2828
  192SLPC  H16Y22313   2.207   1.908   8.578  0.6969  1.4479 -1.3699
  192SLPC  C31722314   2.108   1.726   8.556 -0.2276  0.1006  0.5693
  192SLPC  H17X22315   2.033   1.686   8.484 -0.6996  1.1069  0.4891
  192SLPC  H17Y22316   2.062   1.724   8.656  0.0027  1.8278  0.7342
  192SLPC  C31822317   2.236   1.646   8.555 -0.4441  0.0803  0.8514
  192SLPC  H18X22318   2.294   1.651   8.460  0.0902  0.1775  1.1734
  192SLPC  H18Y22319   2.233   1.538   8.579  0.3204  0.0332  0.7849
  192SLPC  H18Z22320   2.307   1.694   8.627  0.7983 -0.6263  0.1393
  193SOD    SOD22321   0.780   3.881  12.722 -0.1572  0.0046  0.1554
  194SOD    SOD22322   4.806   0.474   3.196  0.0380 -0.6951 -0.1687
  195SOD    SOD22323   2.909   6.669   5.702  0.1260  0.5234  0.2147
  196SOD    SOD22324   0.353   6.197  16.641 -0.4855  0.0082  0.0252
  197SOD    SOD22325   6.804   5.953  14.908 -0.3184 -0.0153 -0.4531
  198SOD    SOD22326   0.619   2.793   3.586  0.1427  0.1942  0.3383
  199SOD    SOD22327   4.343   4.053  11.099  0.0126 -0.0695 -0.0974
  200SOD    SOD22328   1.741   6.559   5.503  0.0854  0.0953 -0.0674
  201SOD    SOD22329   4.242   5.324  13.191  0.2952  0.0508  0.0905
  202SOD    SOD22330   5.363   3.421  11.702 -0.0090 -0.1996  0.1289
  203SOD    SOD22331   2.065   6.236  14.141  0.2286  0.0204  0.3690
  204SOD    SOD22332   2.356   4.541  11.120 -0.3644  0.0356 -0.1009
  205SOD    SOD22333   6.133   0.679  13.658  0.2037 -0.3464 -0.3680
  206SOD    SOD22334   4.783   4.306   1.850 -0.1617  0.3458 -0.5227
  207SOD    SOD22335   3.421   5.505   5.991 -0.0582 -0.0587  0.8584
  208SOD    SOD22336   4.304   2.659  15.463 -0.1713 -0.4164 -0.0530
  209SOD    SOD22337   3.218   2.568  16.097  0.5550 -0.0915 -0.2074
  210SOD    SOD22338   4.288   0.024  12.400 -0.3075  0.3944 -0.7046
  211SOD    SOD22339   0.061   2.223  12.199  0.3585 -0.3122 -0.2102
  212SOD    SOD22340   0.660   5.944   5.980  0.2747  0.0224  0.0608
  213SOD    SOD22341   4.554   0.459   5.503 -0.0042  0.0616 -0.2093
  214SOD    SOD22342   6.776   4.274  11.341  0.0269  0.2650 -0.3649
  215SOD    SOD22343   1.539   2.191  16.828 -0.1054 -0.1244 -0.0364
  216SOD    SOD22344   0.771   0.839  10.567 -0.0249  0.2534  0.2016
  217SOD    SOD22345   2.838   2.920   6.150  0.2494  0.1909  0.2985
  218SOD    SOD22346   0.396   2.243  12.903  0.0304  0.4159  0.0597
  219SOD    SOD22347   0.595   2.929   5.891  0.0963  0.0310 -0.1161
  220SOD    SOD22348   2.388   1.324   0.856  0.1152  0.0521  0.0054
  221SOD    SOD22349   4.601   0.269   1.065  0.0035 -0.0444  0.2219
  222SOD    SOD22350   4.440   3.480   2.984 -0.3987 -0.0283 -0.2721
  223SOD    SOD22351   6.477   1.951   0.459 -0.1509  0.7376  0.0903
  224SOD    SOD22352   4.722   6.124  11.290  0.6130 -0.0571  0.1463
  225SOD    SOD22353   2.332   4.076   3.709 -0.4208 -0.2697  0.6694
  226SOD    SOD22354   5.999   3.028  12.648  0.3935 -0.5310  0.1158
  227SOD    SOD22355   3.388   3.130  14.352 -0.0739  0.1701  0.0837
  228SOD    SOD22356   1.424   3.477  14.160 -0.3220 -0.2238  0.0833
  229SOD    SOD22357   3.515   5.893   1.170 -0.2077  0.3459  0.1893
  230SOD    SOD22358   1.674   5.201   0.356  0.1797 -0.4301 -0.0365
  231SOD    SOD22359   2.739   0.243   0.089  0.5154  0.0671  0.2685
  232SOD    SOD22360   4.389   2.975   0.328 -0.3800  0.4859  0.7470
  233SOD    SOD22361   6.836   1.590  12.177 -0.0975 -0.4438  0.0102
  234SOD    SOD22362   2.443   3.055  17.052  0.0866  0.0073 -0.1379
  235SOD    SOD22363   3.701   3.519  10.472 -0.1293 -0.2401 -0.0077
  236SOD    SOD22364   5.369   3.772  14.218  0.7205 -0.1452 -0.2752
  237SOD    SOD22365   4.395   0.461  16.521  0.1118 -0.7673 -0.2383
  238SOD    SOD22366   0.095   0.615  10.577  0.6742 -0.3018 -0.5744
  239SOD    SOD22367   1.020   4.119  10.832 -0.0272 -0.0522 -0.0986
  240SOD    SOD22368   0.673   5.509  11.326  0.3138  0.0742  0.7134
  241SOD    SOD22369   1.467   3.510   5.216  0.3136  0.0974 -0.8450
  242SOD    SOD22370   6.216   0.588   1.970 -0.4164  0.2711 -0.2968
  243SOD    SOD22371   4.752   5.944   5.559 -0.0712  0.2959 -0.1957
  244SOD    SOD22372   0.199   3.537  16.670 -0.4618 -0.4041 -0.2164
  245SOD    SOD22373   5.089   1.185   5.619  0.1339  0.2368 -0.0343
  246SOD    SOD22374   4.368   1.091  12.249 -0.2065 -0.0752  0.0398
  247SOD    SOD22375   6.304   5.363   1.120  0.0419 -0.5778  0.5380
  248SOD    SOD22376   4.024   5.695  11.407 -0.6629 -0.5081 -0.2194
  249SOD    SOD22377   5.881   5.895  12.126  0.0069  0.1461  0.2554
  250SOD    SOD22378   2.783   2.100  13.536 -0.4434  0.3972 -0.4980
  251SOD    SOD22379   1.857   6.025   4.258 -0.0611 -0.7164 -0.1960
  252SOD    SOD22380   0.788   2.740   4.811  0.4095 -0.3063  0.0744
  253SOD    SOD22381   5.644   6.738   6.363 -0.2897 -0.3135  0.0259
  254SOD    SOD22382   1.598   5.020  14.267  0.6832 -0.3044 -0.1280
  255SOD    SOD22383   0.985   5.999  14.240  0.3529 -0.3922  0.5293
  256SOD    SOD22384   6.065   3.463   6.426 -0.0555  0.0454  0.1812
  257SOD    SOD22385   6.503   4.299   3.037  0.0922  0.2156 -0.4260
  258SOD    SOD22386   5.702   6.779   0.606  0.0747  0.1669 -0.2228
  259SOD    SOD22387   1.386   2.787  12.317  0.0070 -0.1202 -0.1110
  260SOD    SOD22388   5.451   1.835  10.726 -0.1506 -0.0114  0.2542
  261SOD    SOD22389   3.907   2.018  14.511  0.1925  0.2052  0.2384
  262SOD    SOD22390   1.218   0.443   2.554  0.1975  0.5228 -0.0583
  263SOD    SOD22391   5.896   5.791   3.157 -0.5276  0.0341  0.7779
  264SOD    SOD22392   4.197   1.159   5.524 -0.5998 -0.0915  0.1655
  265SOD    SOD22393   2.303   6.597   5.705 -0.0214  0.2879  0.0280
  266CLA    CLA22394   2.227   2.933   3.787  0.0345 -0.4407 -0.2274
  267CLA    CLA22395   6.302   3.727  12.311 -0.1247 -0.0685  0.5527
  268CLA    CLA22396   5.924   5.655   0.156 -0.2675 -0.2638 -0.2810
  269CLA    CLA22397   5.844   4.989  13.010 -0.1138  0.4019 -0.0027
  270CLA    CLA22398   0.383   4.557  16.891 -0.0466 -0.1623  0.5619
  271CLA    CLA22399   3.574   1.357   5.538  0.5285  0.2169  0.1357
  272CLA    CLA22400   2.646   3.571   3.714 -0.0915 -0.0538 -0.1966
  273CLA    CLA22401   0.844   3.573  11.602  0.2532 -0.0563  0.3920
  274CLA    CLA22402   5.025   4.738   2.131  0.1557 -0.0546 -0.1816
  275CLA    CLA22403   0.225   0.663   2.999  0.1015  0.3681  0.0136
  276CLA    CLA22404   4.574   1.214  11.577 -0.1893 -0.6128  0.2457
  277CLA    CLA22405   0.234   0.844   2.087  0.1093 -0.2025 -0.2655
  278CLA    CLA22406   0.063   5.817  15.403 -0.1624  0.1179  0.5089
  279CLA    CLA22407   6.556   2.688  16.437 -0.1063 -0.0256 -0.1123
  280CLA    CLA22408   5.124   6.357  13.365 -0.1833  0.2466  0.3613
  281CLA    CLA22409   6.507   4.127  14.379 -0.2000  0.4235 -0.3563
  282CLA    CLA22410   1.395   3.841  12.503  0.0913  0.1551 -0.3530
  283CLA    CLA22411   3.313   0.305   1.402 -0.3137  0.5064 -0.2140
  284CLA    CLA22412   6.218   1.674  14.666 -0.2149 -0.0405  0.0670
  285CLA    CLA22413   5.939   4.024  11.666  0.0191  0.3377  0.1296
  286CLA    CLA22414   3.649   5.138  12.396  0.1802 -0.1347 -0.1973
  287CLA    CLA22415   3.698   5.170  16.334 -0.4374 -0.0682 -0.2384
  288CLA    CLA22416   3.140   1.690  16.134 -0.1858 -0.2498 -0.5752
  289CLA    CLA22417   3.635   1.116   6.010 -0.2200  0.0206  0.1979
  290CLA    CLA22418   1.561   1.695  11.788 -0.4972  0.1392 -0.1493
  291CLA    CLA22419   4.049   2.224  11.245 -0.3281  0.1098  0.5644
  292CLA    CLA22420   2.100   3.918   2.246  0.0003  0.1319 -0.1980
  293CLA    CLA22421   0.009   1.322   1.495 -0.3398 -0.2228  0.0764
  294CLA    CLA22422   0.895   2.355   5.033  0.1455 -0.1656  0.0154
  295CLA    CLA22423   2.531   0.761   4.799  0.1990 -0.0342 -0.1007
  296CLA    CLA22424   6.562   6.067  12.448 -0.0139  0.4118  0.0701
  297CLA    CLA22425   2.399   0.250   0.890 -0.0977 -0.0455  0.0262
  298CLA    CLA22426   6.659   2.476  14.862 -0.5455 -0.5165  0.4605
  299CLA    CLA22427   6.150   2.846  14.626  0.2888  0.2513  0.2756
  300CLA    CLA22428   6.205   5.993   1.342 -0.3354  0.3649  0.4919
  301CLA    CLA22429   2.195   2.394  14.237 -0.1294 -0.1156  0.2267
  302CLA    CLA22430   2.698   3.093   1.411  0.0358  0.6482  0.0583
  303CLA    CLA22431   4.717   5.748  12.080  0.0018 -0.0625  0.0098
  304CLA    CLA22432   3.162   5.901   0.588  0.3511  0.3789  0.1476
  305CLA    CLA22433   3.801   1.249   5.102  0.2742  0.0117 -0.1395
  306CLA    CLA22434   0.743   1.951  12.648  0.1125 -0.4950  0.1880
  307CLA    CLA22435   2.645   3.608   0.123 -0.4196  0.3578  0.3046
  308CLA    CLA22436   2.989   4.340  13.590 -0.1323  0.5146 -0.4493
  309CLA    CLA22437   4.148   3.497  16.237  0.1105 -0.3913 -0.1973
  310CLA    CLA22438   2.932   1.162  14.984 -0.0698 -0.2144 -0.0304
  311CLA    CLA22439   5.549   2.538   5.313 -0.0317  0.3056 -0.0392
  312CLA    CLA22440   5.785   6.813  14.307  0.0396 -0.2812  0.2615
  313CLA    CLA22441   5.140   1.542   3.605 -0.2581 -0.0768  0.1318
  314CLA    CLA22442   4.980   2.024  13.686 -0.0354 -0.4980 -0.2626
  315CLA    CLA22443   6.816   0.876  13.222 -0.0407  0.0427 -0.3834
  316CLA    CLA22444   4.548   1.127   4.783 -0.4317  0.1826  0.4927
  317CLA    CLA22445   6.237   6.727   3.824  0.1043  0.2021  0.3875
  318CLA    CLA22446   4.355   0.464   2.795  0.2820 -0.0557 -0.1453
  319TIP3   OH222447   2.407   2.905  16.604 -0.4310 -0.5194 -0.0027
  319TIP3    H122448   2.323   2.910  16.558 -1.5053 -0.8341  1.8331
  319TIP3    H222449   2.429   2.996  16.623  0.4719 -0.3079 -1.8136
  320TIP3   OH222450   4.823   6.432  16.664  0.5577 -0.2672  0.4840
  320TIP3    H122451   4.761   6.485  16.614 -1.0306 -1.5772  0.9909
  320TIP3    H222452   4.768   6.376  16.719  2.0979 -2.9722 -0.5567
  321TIP3   OH222453   5.564   5.349   0.226 -0.3604 -0.3984 -0.2091
  321TIP3    H122454   5.653   5.315   0.214 -0.5920 -1.2043  0.2434
  321TIP3    H222455   5.520   5.330   0.143  0.1670  0.9555 -0.8298
  322TIP3   OH222456   3.204   3.284   3.715  0.0518 -0.7729 -0.0586
  322TIP3    H122457   3.292   3.267   3.747  1.2409  1.9639 -1.5235
  322TIP3    H222458   3.169   3.197   3.692  2.1185 -1.9685  1.0779
  323TIP3   OH222459   5.552   3.152  11.078  0.1540 -0.0770  0.2592
  323TIP3    H122460   5.552   3.056  11.080  2.6204 -0.1448  0.3360
  323TIP3    H222461   5.568   3.174  10.986 -0.8144  0.2927  0.1686
  324TIP3   OH222462   6.106   0.509   5.093  0.0862  0.0795  0.0755
  324TIP3    H122463   6.103   0.534   5.001  0.0822 -0.8150 -0.1778
  324TIP3    H222464   6.090   0.591   5.141  0.9646  0.7205 -0.6886
  325TIP3   OH222465   3.369   4.818   5.592  0.2806 -0.2232 -0.3203
  325TIP3    H122466   3.356   4.727   5.620 -0.3552  0.2882  1.1784
  325TIP3    H222467   3.407   4.861   5.669  1.3210  0.6117 -1.2770
  326TIP3   OH222468   4.764   6.154   2.831  0.0891  0.0752 -0.2539
  326TIP3    H122469   4.706   6.180   2.903  1.3773  1.9956  0.1733
  326TIP3    H222470   4.708   6.156   2.754 -0.8555 -0.0144  0.4033
  327TIP3   OH222471   2.942   4.223  15.896  0.0362 -0.5299 -0.3720
  327TIP3    H122472   3.024   4.236  15.944 -1.3333  0.9187  1.7425
  327TIP3    H222473   2.917   4.133  15.914  0.4708 -0.5567  0.1359
  328TIP3   OH222474   0.196   5.390   1.105  0.2464 -0.2205 -0.1552
  328TIP3    H122475   0.225   5.339   1.029 -0.8339 -1.7699  0.4150
  328TIP3    H222476   0.251   5.358   1.177 -1.6757 -2.0659  0.6063
  329TIP3   OH222477   5.193   1.634  17.061  0.6437  0.1796 -0.1945
  329TIP3    H122478   5.279   1.623  17.020  1.3618 -0.4142  1.3919
  329TIP3    H222479   5.207   1.702  17.127 -0.2284  0.3836 -0.2107
  330TIP3   OH222480   5.531   0.646  16.041 -0.3988 -0.0340  0.2849
  330TIP3    H122481   5.513   0.556  16.013  1.8297 -0.9234  1.4406
  330TIP3    H222482   5.477   0.657  16.119 -0.7859 -0.3037  0.0650
  331TIP3   OH222483   3.811   5.344  13.363  0.6862  0.2761 -0.1571
  331TIP3    H122484   3.728   5.377  13.328  1.2812 -1.3714 -3.4813
  331TIP3    H222485   3.786   5.275  13.424 -0.3940  0.6932 -0.1118
  332TIP3   OH222486   5.154   6.818   1.331 -0.1574 -0.1114  0.3194
  332TIP3    H122487   5.170   6.907   1.365 -3.4274  0.9374 -0.5522
  332TIP3    H222488   5.081   6.828   1.271 -0.0963 -3.3286 -0.4569
  333TIP3   OH222489   0.913   5.883   0.121 -0.0213 -0.3106  0.4438
  333TIP3    H122490   0.844   5.874   0.186  1.6856  0.9048  2.5725
  333TIP3    H222491   0.988   5.837   0.159  1.2177  0.9738 -0.3269
  334TIP3   OH222492   6.082   0.050  17.065  0.5932  0.3021 -0.3662
  334TIP3    H122493   6.096  -0.044  17.055 -0.8226  0.0928 -0.5822
  334TIP3    H222494   6.064   0.081  16.976  0.2835  0.6289 -0.1932
  335TIP3   OH222495   6.285   6.569  15.765 -0.1110 -1.0884  0.5331
  335TIP3    H122496   6.210   6.580  15.706  1.2420  3.6208 -0.6935
  335TIP3    H222497   6.350   6.523  15.712 -0.4020 -0.7519 -0.1285
  336TIP3   OH222498   0.718   5.839   0.294 -0.1196 -0.4527 -0.2581
  336TIP3    H122499   0.694   5.759   0.340 -0.5578 -0.3294 -0.2697
  336TIP3    H222500   0.635   5.882   0.275  0.1487  0.5624  0.7393
  337TIP3   OH222501   1.897   5.353   0.334  0.6143 -0.2264  0.6353
  337TIP3    H122502   1.858   5.433   0.371  0.6888 -0.5833  1.5245
  337TIP3    H222503   1.969   5.333   0.394  3.1934  1.2232 -1.7182
  338TIP3   OH222504   5.793   2.091  11.028  0.1052  0.0591 -0.1409
  338TIP3    H122505   5.820   2.094  11.119 -1.4508 -0.8132  0.3736
  338TIP3    H222506   5.725   2.158  11.019 -0.1235 -0.2158 -0.5287
  339TIP3   OH222507   2.546   0.078   3.069  0.2510  0.3961 -0.6765
  339TIP3    H122508   2.553  -0.013   3.098  0.1564  0.8176  0.7490
  339TIP3    H222509   2.618   0.090   3.008  2.0323  0.1343  1.2724
  340TIP3   OH222510   6.249   0.546  14.080  0.1230 -0.4719  0.4497
  340TIP3    H122511   6.294   0.462  14.089  2.1702  0.5386  0.4217
  340TIP3    H222512   6.277   0.579  13.994  1.4484  1.3170  1.4897
  341TIP3   OH222513   0.878   5.258  10.259 -0.0064 -0.2139 -0.2297
  341TIP3    H122514   0.940   5.246  10.331  0.5194 -0.3221 -0.6955
  341TIP3    H222515   0.898   5.346  10.225  0.3826 -0.5338 -0.8435
  342TIP3   OH222516   5.818   4.119   4.401 -0.3043  0.4283  0.4402
  342TIP3    H122517   5.737   4.116   4.350 -0.7505  0.8842  1.1101
  342TIP3    H222518   5.790   4.145   4.489  0.2351 -1.9399  1.3810
  343TIP3   OH222519   1.180   0.624  15.116  0.3693  0.1136 -0.0536
  343TIP3    H122520   1.136   0.539  15.108  1.0028 -0.2476  0.2265
  343TIP3    H222521   1.260   0.615  15.064 -0.5264  1.2278 -1.7106
  344TIP3   OH222522   2.204   0.876  13.048  0.1150  0.2826 -0.7280
  344TIP3    H122523   2.173   0.889  12.959 -0.3755  1.4957 -0.3987
  344TIP3    H222524   2.276   0.939  13.057 -0.1481  0.4987 -0.1174
  345TIP3   OH222525   0.861   3.376   6.217  0.3078 -0.6869  0.0621
  345TIP3    H122526   0.876   3.327   6.298  1.5994 -0.6347 -0.1235
  345TIP3    H222527   0.818   3.457   6.245  1.5685 -0.2612  0.8084
  346TIP3   OH222528   3.540   4.074   1.281  0.3884  0.1687 -0.4644
  346TIP3    H122529   3.555   4.049   1.372 -0.3068  0.1067 -0.3646
  346TIP3    H222530   3.468   4.136   1.284 -1.0355 -1.3864 -1.1643
  347TIP3   OH222531   4.516   2.016   4.605 -0.1907 -0.3372 -0.0194
  347TIP3    H122532   4.474   2.068   4.674  1.0346  1.2299 -0.4105
  347TIP3    H222533   4.461   2.030   4.528  0.1598  0.4286 -0.1346
  348TIP3   OH222534   3.258   2.170   2.583  0.0522 -0.5282 -0.3159
  348TIP3    H122535   3.191   2.175   2.515  0.7886 -1.4119 -1.1590
  348TIP3    H222536   3.246   2.084   2.623 -1.0879  0.4140  1.5012
  349TIP3   OH222537   2.970   0.215  15.215 -0.1277 -0.7650  0.5109
  349TIP3    H122538   2.917   0.243  15.290  1.8153 -3.0929  2.9456
  349TIP3    H222539   3.026   0.290  15.197 -2.2236  0.7008 -0.2764
  350TIP3   OH222540   0.974   6.501   5.483 -0.0280  0.3465  0.4819
  350TIP3    H122541   0.976   6.503   5.579 -0.6625  0.7756  0.4972
  350TIP3    H222542   0.973   6.593   5.457 -0.0725  0.2335  0.0744
  351TIP3   OH222543   2.647   2.459  16.640  0.1048 -0.7180 -0.0115
  351TIP3    H122544   2.575   2.410  16.680  1.3863 -2.3205  0.4849
  351TIP3    H222545   2.715   2.460  16.707  0.7490  0.2857 -0.6541
  352TIP3   OH222546   5.255   2.396   3.010 -0.8174 -0.1279  0.1256
  352TIP3    H122547   5.329   2.335   3.003 -0.7684  0.1033 -1.7182
  352TIP3    H222548   5.265   2.434   3.097 -1.1680 -3.1336  1.6249
  353TIP3   OH222549   2.811   4.457   1.875 -0.5839  1.0113  0.7843
  353TIP3    H122550   2.815   4.509   1.956  0.3049  2.7406 -0.3077
  353TIP3    H222551   2.886   4.399   1.881 -0.9713  0.5568  1.5300
  354TIP3   OH222552   0.406   4.165  12.088  0.0036 -0.2269  0.1178
  354TIP3    H122553   0.313   4.185  12.074 -0.1970 -1.4027 -0.3018
  354TIP3    H222554   0.407   4.099  12.157  0.4025 -1.4883 -1.0572
  355TIP3   OH222555   1.085   1.230   3.476  0.2344  0.0668 -0.6681
  355TIP3    H122556   1.032   1.164   3.430  1.7099 -0.9703 -0.9408
  355TIP3    H222557   1.079   1.205   3.568 -2.3821  1.9027 -0.2261
  356TIP3   OH222558   3.093   4.552   5.789 -0.5688  0.4947  0.1352
  356TIP3    H122559   3.187   4.564   5.772 -0.4349  1.6785  1.5349
  356TIP3    H222560   3.090   4.495   5.866 -1.0318 -0.0530 -0.2784
  357TIP3   OH222561   0.978   5.117  10.997 -0.6042 -0.2760  0.6350
  357TIP3    H122562   0.972   5.213  10.992  0.7025 -0.2175 -0.4985
  357TIP3    H222563   1.007   5.091  10.909 -0.7587 -1.7018  0.9898
  358TIP3   OH222564   6.040   6.568  11.623  0.6000  0.5693  0.4654
  358TIP3    H122565   6.121   6.581  11.671  1.2193  2.4419 -0.9373
  358TIP3    H222566   6.057   6.606  11.537 -0.8275 -1.6015 -0.8777
  359TIP3   OH222567   2.227   4.402   2.402 -0.1168  0.8268 -0.1330
  359TIP3    H122568   2.304   4.370   2.449  0.8324  1.4296 -1.2024
  359TIP3    H222569   2.168   4.432   2.470  0.7557  0.6902  0.7130
  360TIP3   OH222570   1.915   4.089  14.662  0.3667  0.0208 -0.2319
  360TIP3    H122571   1.937   4.080  14.755 -0.2149  1.3054  0.0414
  360TIP3    H222572   1.991   4.053  14.616  1.4729  1.0416  0.7225
  361TIP3   OH222573   4.467   2.817   2.199  0.2277  0.2929  0.0548
  361TIP3    H122574   4.376   2.818   2.228  0.2900  1.3408  0.2329
  361TIP3    H222575   4.462   2.782   2.109 -0.1957 -0.8300  0.4889
  362TIP3   OH222576   3.052   1.464  15.661  0.3887  0.3534 -0.3019
  362TIP3    H122577   3.104   1.466  15.741  0.0753 -0.1414 -0.0858
  362TIP3    H222578   2.967   1.502  15.686  0.4459  0.6286 -0.5148
  363TIP3   OH222579   5.210   4.246  13.995 -0.4316 -0.3003  0.1010
  363TIP3    H122580   5.217   4.306  13.920 -2.3283 -1.1907 -0.8805
  363TIP3    H222581   5.237   4.161  13.960  1.4738 -0.2238  1.2652
  364TIP3   OH222582   6.557   0.239  12.147  0.0392  0.1779  0.0943
  364TIP3    H122583   6.483   0.178  12.145  1.3044 -1.4868  1.2715
  364TIP3    H222584   6.519   0.324  12.125 -1.6800 -1.1108 -2.4140
  365TIP3   OH222585   3.201   1.886   5.006  0.1612  0.4553 -0.0534
  365TIP3    H122586   3.289   1.898   5.043  0.4083  1.8387 -1.0258
  365TIP3    H222587   3.198   1.946   4.932 -1.3683 -0.1061 -0.4726
  366TIP3   OH222588   6.706   6.085   5.200 -0.1820 -0.1339 -0.5701
  366TIP3    H122589   6.714   6.003   5.249 -2.0089 -1.1642 -1.8636
  366TIP3    H222590   6.696   6.153   5.267  0.6700 -1.0569  0.5149
  367TIP3   OH222591   3.177   6.834   0.347 -0.7373 -0.0199 -0.6985
  367TIP3    H122592   3.114   6.763   0.341  0.3396 -1.0939  0.2161
  367TIP3    H222593   3.207   6.848   0.257 -2.7246  0.9805 -1.2595
  368TIP3   OH222594   2.992   6.630   0.537 -0.7428 -0.0271  0.2290
  368TIP3    H122595   3.032   6.590   0.460 -1.9478 -1.1999  0.1748
  368TIP3    H222596   3.065   6.673   0.582 -0.1080  1.1765 -1.8360
  369TIP3   OH222597   0.530   4.902   0.346  0.2125 -0.0520 -0.5264
  369TIP3    H122598   0.588   4.937   0.278  0.6566  0.7301  0.2425
  369TIP3    H222599   0.578   4.828   0.382  0.5990  0.3812 -0.1300
  370TIP3   OH222600   0.085   1.330  11.288 -0.3527 -0.1247  0.2881
  370TIP3    H122601   0.048   1.411  11.252  0.1641 -0.7227 -1.7198
  370TIP3    H222602   0.100   1.350  11.381 -1.2481  1.7049  0.0863
  371TIP3   OH222603   1.816   3.859  12.720 -0.1840 -0.7042  0.2558
  371TIP3    H122604   1.827   3.815  12.635 -0.9743  0.4036 -0.4567
  371TIP3    H222605   1.722   3.875  12.726  0.0492  0.7559  0.5190
  372TIP3   OH222606   2.836   0.436   1.632  0.4844  0.1211 -0.8860
  372TIP3    H122607   2.849   0.530   1.619  0.7426 -0.0812 -2.2268
  372TIP3    H222608   2.891   0.394   1.565 -2.0839 -0.9022 -2.5253
  373TIP3   OH222609   0.040   2.253  11.417  0.5382  0.5624 -0.4737
  373TIP3    H122610  -0.011   2.257  11.337  0.6137 -1.8593 -0.7119
  373TIP3    H222611   0.128   2.227  11.388  0.6985  0.1768  0.3218
  374TIP3   OH222612   4.261   3.609   4.543  0.1504  0.4362 -0.4856
  374TIP3    H122613   4.273   3.691   4.590 -1.1021 -0.8171  2.2538
  374TIP3    H222614   4.169   3.610   4.515  0.2299  0.1214 -0.7698
  375TIP3   OH222615   6.515   5.634  13.335 -0.0129 -0.6792 -0.3469
  375TIP3    H122616   6.588   5.651  13.275 -0.4884  0.4996 -0.6077
  375TIP3    H222617   6.439   5.622  13.278 -0.5328  0.7690 -0.0137
  376TIP3   OH222618   0.080   1.343   1.175  0.4145  0.2595  0.7635
  376TIP3    H122619   0.022   1.324   1.250 -1.2521  0.9800 -0.2948
  376TIP3    H222620   0.133   1.417   1.204 -0.9976  1.2661  0.8746
  377TIP3   OH222621   0.458   2.066  12.773  0.0841 -0.2445  0.1092
  377TIP3    H122622   0.434   2.102  12.688 -0.1201 -0.6580 -0.0152
  377TIP3    H222623   0.540   2.019  12.758  1.3289  1.6636  0.6636
  378TIP3   OH222624   1.219   1.706   4.550 -0.1087  0.6103  0.1710
  378TIP3    H122625   1.298   1.658   4.526 -0.2494  0.6243 -0.3339
  378TIP3    H222626   1.247   1.762   4.623  0.3547  0.6383 -0.0198
  379TIP3   OH222627   1.092   3.295   4.481 -0.4184  0.2944  0.2414
  379TIP3    H122628   1.017   3.285   4.538 -1.2177  0.5635 -0.7345
  379TIP3    H222629   1.073   3.373   4.428  0.9220  0.8649  0.5336
  380TIP3   OH222630   6.643   0.783   1.987  0.0410  0.1283  0.0947
  380TIP3    H122631   6.650   0.876   2.008  1.9904 -0.0472  0.4349
  380TIP3    H222632   6.650   0.739   2.072  1.1896 -0.3724 -0.2380
  381TIP3   OH222633   5.003   6.144   3.560  0.6241 -0.0352 -0.0599
  381TIP3    H122634   4.952   6.094   3.623 -1.8132  2.8668  0.5006
  381TIP3    H222635   5.093   6.112   3.571 -0.0981 -1.2993  3.2062
  382TIP3   OH222636   6.780   3.339  12.273 -0.2131 -0.3461 -0.0012
  382TIP3    H122637   6.716   3.397  12.231  2.7984  1.6779 -2.2421
  382TIP3    H222638   6.764   3.254  12.233 -1.3189  0.1759 -0.7377
  383TIP3   OH222639   3.986   0.616  15.607 -0.6027  0.4631  0.0626
  383TIP3    H122640   3.993   0.525  15.578 -1.4897  0.5569 -0.4812
  383TIP3    H222641   4.008   0.613  15.700  0.0961 -0.1870 -0.1103
  384TIP3   OH222642   0.414   4.086   1.658  0.6094 -0.4184  0.1394
  384TIP3    H122643   0.412   4.167   1.708  0.7598 -1.0501  1.2158
  384TIP3    H222644   0.421   4.113   1.567  2.5448  0.7573  0.5872
  385TIP3   OH222645   0.013   0.453  10.444  0.1085 -0.5298  0.0427
  385TIP3    H122646   0.032   0.362  10.420 -0.6850 -0.8352  0.5095
  385TIP3    H222647  -0.082   0.455  10.455 -0.0870  0.7574 -1.5451
  386TIP3   OH222648   5.342   1.893   4.327 -0.1964  0.0130  0.5230
  386TIP3    H122649   5.373   1.839   4.254  0.8631  0.0953  0.8997
  386TIP3    H222650   5.395   1.866   4.401 -0.1017  1.1149  0.8723
  387TIP3   OH222651   2.001   5.619  12.567 -0.5778  0.7676  0.3172
  387TIP3    H122652   2.053   5.674  12.508 -0.6238 -0.0761 -0.5423
  387TIP3    H222653   2.058   5.543  12.584 -2.3281 -1.4609 -2.6917
  388TIP3   OH222654   3.120   4.050  11.418  0.2873  0.2888  0.5568
  388TIP3    H122655   3.132   4.092  11.333 -0.9504 -0.4505 -0.0067
  388TIP3    H222656   3.209   4.029  11.446  0.7648  1.1962 -0.2084
  389TIP3   OH222657   5.671   4.670   0.833  0.4226 -0.0770 -0.0453
  389TIP3    H122658   5.617   4.605   0.788  1.6373 -1.3858  0.3141
  389TIP3    H222659   5.624   4.689   0.914 -0.4748  0.3317 -0.6441
  390TIP3   OH222660   3.790   1.744  15.931  0.1984  0.2705 -0.5439
  390TIP3    H122661   3.832   1.829  15.936  1.0532 -0.0722 -1.5500
  390TIP3    H222662   3.853   1.688  15.886 -0.6386 -0.7104 -0.5442
  391TIP3   OH222663   4.856   6.516   3.618  0.4961 -0.1584  0.0714
  391TIP3    H122664   4.829   6.424   3.625  0.6701 -0.4936 -2.5388
  391TIP3    H222665   4.909   6.520   3.538  3.9744  1.4933  2.2037
  392TIP3   OH222666   4.249   5.256  15.098  0.2974 -0.0099  0.2460
  392TIP3    H122667   4.329   5.262  15.045  1.1332  2.2995  1.6618
  392TIP3    H222668   4.187   5.315  15.056 -0.1201 -0.5211  0.1216
  393TIP3   OH222669   2.205   0.284  14.810 -0.2779 -0.4154 -0.4138
  393TIP3    H122670   2.169   0.247  14.890  0.7650 -0.0380  0.2479
  393TIP3    H222671   2.281   0.230  14.790 -0.2529 -0.2128 -0.8917
  394TIP3   OH222672   5.519   1.863  11.132  0.1499  0.0833 -0.2136
  394TIP3    H122673   5.553   1.797  11.191  0.6651  1.5924  1.2422
  394TIP3    H222674   5.507   1.817  11.049 -0.2303 -1.9946  0.9335
  395TIP3   OH222675   0.965   5.340  11.897 -0.0390 -0.2939  0.5396
  395TIP3    H122676   0.994   5.256  11.861 -0.6119 -0.6213  0.8196
  395TIP3    H222677   0.921   5.383  11.825  1.4039  0.3553  0.0105
  396TIP3   OH222678   2.175   3.304  16.686 -0.0120 -0.4389 -0.2086
  396TIP3    H122679   2.125   3.339  16.612  0.0052 -1.3613 -0.6675
  396TIP3    H222680   2.127   3.334  16.764 -0.3267  0.0934 -0.5989
  397TIP3   OH222681   4.029   2.496  14.713  0.0811  0.9604 -0.7685
  397TIP3    H122682   3.983   2.578  14.696  0.1086  1.1063 -0.1575
  397TIP3    H222683   3.974   2.451  14.776  0.0068  0.4496 -1.1893
  398TIP3   OH222684   2.032   2.183   1.617 -0.1089 -0.2782 -0.0217
  398TIP3    H122685   2.093   2.153   1.685  0.7945  1.6458  0.0569
  398TIP3    H222686   1.999   2.267   1.648 -1.7118 -0.5699 -0.7753
  399TIP3   OH222687   1.390   6.171  15.434 -0.7417 -0.5534  0.3491
  399TIP3    H122688   1.376   6.225  15.512 -0.7995 -0.7226  0.4574
  399TIP3    H222689   1.417   6.086  15.469 -0.7343 -0.6193  0.1823
  400TIP3   OH222690   5.327   4.735   2.326 -0.0929  0.4899  0.1014
  400TIP3    H122691   5.311   4.643   2.344  1.4549  0.3532  0.9044
  400TIP3    H222692   5.254   4.761   2.268 -0.0843 -1.4320 -0.8447
  401TIP3   OH222693   5.092   6.754   5.790  0.4135  0.2145 -0.0695
  401TIP3    H122694   5.118   6.758   5.882 -2.0936  0.6962  0.6717
  401TIP3    H222695   5.104   6.843   5.757  1.4329  0.0148 -0.2976
  402TIP3   OH222696   0.016   5.042   3.032 -0.2941  0.0622 -0.6635
  402TIP3    H122697   0.077   5.047   3.105 -1.3421 -1.0494  0.3476
  402TIP3    H222698   0.064   4.993   2.965  0.4199  0.4479 -0.4492
  403TIP3   OH222699   4.900   2.535   6.809 -0.4582 -0.4836  0.0215
  403TIP3    H122700   4.812   2.560   6.780 -0.0021 -1.0060 -2.0192
  403TIP3    H222701   4.932   2.610   6.858 -0.9720  0.9498 -1.7293
  404TIP3   OH222702   1.519   4.950  13.221 -0.3751 -0.2724 -0.4236
  404TIP3    H122703   1.584   4.880  13.220 -0.3252 -0.2449  0.2081
  404TIP3    H222704   1.556   5.019  13.166 -0.1691 -0.5131 -0.5901
  405TIP3   OH222705   0.467   0.195   2.995  0.1392  0.4245  0.0782
  405TIP3    H122706   0.469   0.280   2.952  1.5380  0.0288 -0.6999
  405TIP3    H222707   0.536   0.144   2.952  0.1921 -0.6788  1.3797
  406TIP3   OH222708   4.327   6.627   2.645  0.4578  0.1174  0.4200
  406TIP3    H122709   4.423   6.630   2.640  0.4522 -0.9985 -1.9450
  406TIP3    H222710   4.301   6.719   2.654  1.7351  0.5716 -0.2483
  407TIP3   OH222711   3.281   3.018  16.084  0.5637 -0.1245  0.3299
  407TIP3    H122712   3.277   2.993  16.176  5.2280 -1.1778  0.4706
  407TIP3    H222713   3.344   3.090  16.081  2.3217 -1.5936 -2.1745
  408TIP3   OH222714   1.642   5.759  14.222  0.0345  0.0591 -0.3219
  408TIP3    H122715   1.652   5.766  14.317 -0.5417  2.2200 -0.3602
  408TIP3    H222716   1.723   5.794  14.186  0.0740 -0.3405 -0.6313
  409TIP3   OH222717   4.206   4.502  13.857 -0.3501  0.0090 -0.6149
  409TIP3    H122718   4.137   4.436  13.867  0.0643 -0.3230  0.2095
  409TIP3    H222719   4.225   4.504  13.763 -0.9679 -0.4212 -0.7541
  410TIP3   OH222720   4.730   3.149   2.644  0.4164  0.0712 -0.1715
  410TIP3    H122721   4.758   3.167   2.555  0.3105  0.6582 -0.0910
  410TIP3    H222722   4.752   3.057   2.658  0.4588 -0.0141 -0.7890
  411TIP3   OH222723   5.751   1.707  12.823  0.0337  0.1930  0.5322
  411TIP3    H122724   5.803   1.691  12.901 -1.8789 -0.2786  1.7869
  411TIP3    H222725   5.761   1.627  12.771  0.7688  0.2250  0.6167
  412TIP3   OH222726   4.557   2.345  10.877 -0.4693 -0.0758 -0.1073
  412TIP3    H122727   4.602   2.271  10.918  1.1475 -1.4060 -3.8494
  412TIP3    H222728   4.618   2.418  10.887 -0.3246 -0.2423  0.2660
  413TIP3   OH222729   2.886   4.428  11.267  0.2725 -0.5008  0.1907
  413TIP3    H122730   2.850   4.344  11.297  0.3264 -0.0104  1.6815
  413TIP3    H222731   2.858   4.434  11.176 -1.3485 -1.2686  0.5971
  414TIP3   OH222732   3.419   3.269   2.369 -0.0088  0.0182 -0.2784
  414TIP3    H122733   3.512   3.268   2.348  0.0215  0.0698 -0.1506
  414TIP3    H222734   3.383   3.191   2.326  0.2388 -0.4444  0.3399
  415TIP3   OH222735   1.355   1.353   4.884 -0.0474 -0.3251 -0.6701
  415TIP3    H122736   1.426   1.367   4.947  0.3048  0.7435 -1.2873
  415TIP3    H222737   1.392   1.293   4.820  0.2595  0.1139 -0.9099
  416TIP3   OH222738   0.231   6.734  15.997 -0.9080 -0.0669 -0.5169
  416TIP3    H122739   0.312   6.691  15.970 -1.2980 -0.8950 -0.4169
  416TIP3    H222740   0.194   6.769  15.917 -0.0828  0.9972 -0.4611
  417TIP3   OH222741   3.671   3.985  10.363 -0.4130 -0.2372  0.0199
  417TIP3    H122742   3.706   4.074  10.362 -0.4365 -0.2326 -0.7045
  417TIP3    H222743   3.682   3.956  10.454 -0.0226  0.3509  0.1661
  418TIP3   OH222744   1.562   3.741   1.887 -0.2277 -0.0228  0.1189
  418TIP3    H122745   1.585   3.824   1.845  0.2986 -1.7240 -3.2003
  418TIP3    H222746   1.634   3.682   1.867 -1.3643 -1.7892  0.9261
  419TIP3   OH222747   1.765   4.501   2.675 -0.2539  0.3467 -0.4410
  419TIP3    H122748   1.774   4.430   2.611 -0.2236  1.1025 -1.2974
  419TIP3    H222749   1.790   4.461   2.758 -1.8690 -1.1117 -0.5804
  420TIP3   OH222750   2.952   5.142  12.540  0.0050 -0.1136 -0.3366
  420TIP3    H122751   2.893   5.119  12.468  1.0742 -1.0910 -0.9352
  420TIP3    H222752   3.018   5.073  12.539  1.5003  1.2727 -0.0709
  421TIP3   OH222753   5.844   2.527  14.426 -0.4085 -0.4683  0.2500
  421TIP3    H122754   5.864   2.437  14.453  0.3658  0.4448  3.1407
  421TIP3    H222755   5.773   2.518  14.363  0.2436 -3.1402 -0.2369
  422TIP3   OH222756   3.626   5.332  15.304 -0.3819 -0.3207  0.5361
  422TIP3    H122757   3.565   5.353  15.374 -2.8980  0.4681 -1.7393
  422TIP3    H222758   3.584   5.259  15.257  0.3570  0.2993 -1.1506
  423TIP3   OH222759   6.020   3.092   0.564 -0.3281  0.1108  0.0104
  423TIP3    H122760   5.943   3.041   0.538 -0.2705 -0.2645  0.5545
  423TIP3    H222761   6.088   3.026   0.579  0.5767  0.5179 -1.9508
  424TIP3   OH222762   5.671   3.163   3.485 -0.1765  0.0343 -0.5449
  424TIP3    H122763   5.755   3.208   3.495  0.4009 -0.6672 -1.9942
  424TIP3    H222764   5.687   3.073   3.513 -0.5689  0.0154 -0.3702
  425TIP3   OH222765   6.363   4.232   3.558  0.1048 -0.3499 -0.2481
  425TIP3    H122766   6.310   4.180   3.618 -1.6390  1.3513 -0.2554
  425TIP3    H222767   6.334   4.205   3.471  0.5173 -0.6637 -0.2941
  426TIP3   OH222768   1.094   3.491  16.241 -0.0284  0.5889 -0.2645
  426TIP3    H122769   1.098   3.584  16.218  1.6133  0.4026 -0.8730
  426TIP3    H222770   1.137   3.447  16.168  2.0234 -0.3730  1.4319
  427TIP3   OH222771   5.574   4.559   5.638 -0.3491 -0.3067  0.0305
  427TIP3    H122772   5.613   4.615   5.570 -0.7891  1.2074  0.9836
  427TIP3    H222773   5.611   4.472   5.621  0.9609  0.4151 -1.0390
  428TIP3   OH222774   0.296   1.123   0.170  0.4673 -0.2753  0.2736
  428TIP3    H122775   0.216   1.081   0.139  0.0811  1.1902 -0.7833
  428TIP3    H222776   0.365   1.087   0.113  0.2031  0.1993 -0.3523
  429TIP3   OH222777   5.320   6.595  13.810  0.1145  0.1993 -0.5867
  429TIP3    H122778   5.295   6.555  13.893 -0.3738  2.0821  0.2208
  429TIP3    H222779   5.304   6.527  13.745 -2.4687 -0.3310  0.4845
  430TIP3   OH222780   1.779   2.820  11.110  0.7829 -0.2141  0.3801
  430TIP3    H122781   1.851   2.883  11.100 -0.1370  0.7181 -0.6984
  430TIP3    H222782   1.744   2.810  11.021 -0.9837  0.0369  1.0195
  431TIP3   OH222783   4.787   5.712   5.382 -0.4848 -0.0946  0.2507
  431TIP3    H122784   4.861   5.654   5.366 -1.2724 -1.7792  2.1948
  431TIP3    H222785   4.753   5.732   5.295  1.0120 -0.9329 -0.5704
  432TIP3   OH222786   5.039   3.872  16.836 -0.0141  0.1221  0.1057
  432TIP3    H122787   5.058   3.926  16.760  1.4704  0.2510  0.5212
  432TIP3    H222788   4.991   3.797  16.801  1.3771 -0.2504 -1.1075
  433TIP3   OH222789   0.631   1.806  13.460 -0.2233 -0.3760  0.3337
  433TIP3    H122790   0.605   1.746  13.531 -1.5791 -1.7234 -1.2050
  433TIP3    H222791   0.609   1.758  13.380  3.5560  0.0415 -1.1314
  434TIP3   OH222792   1.085   1.065   3.789 -0.0007 -0.1019 -0.0991
  434TIP3    H122793   1.134   1.106   3.860  0.6295 -0.8532 -0.0895
  434TIP3    H222794   1.093   0.971   3.805  1.9252 -0.4094 -2.2716
  435TIP3   OH222795   2.529   2.270  15.347  0.8232 -0.6167  0.1897
  435TIP3    H122796   2.555   2.212  15.419 -0.3614  1.4912  2.4648
  435TIP3    H222797   2.436   2.251  15.333  0.5100  0.4378  0.7252
  436TIP3   OH222798   4.342   2.082  12.581  0.5150 -0.5283 -0.0279
  436TIP3    H122799   4.435   2.091  12.561  0.5408  0.1820  0.3932
  436TIP3    H222800   4.321   1.992  12.557  1.1213 -0.4546 -0.8998
  437TIP3   OH222801   2.730   0.337  16.192  0.0929  0.0322  0.3536
  437TIP3    H122802   2.688   0.281  16.127  0.0919 -0.2272  0.5773
  437TIP3    H222803   2.671   0.336  16.267 -0.0118  0.5033  0.2787
  438TIP3   OH222804   5.221   5.687  15.260  1.0667 -0.4989 -0.0868
  438TIP3    H122805   5.267   5.622  15.206  2.1605  0.2583 -0.0995
  438TIP3    H222806   5.189   5.751  15.197 -1.1832 -1.6417 -0.2251
  439TIP3   OH222807   6.399   4.789  11.504 -0.1782  0.2045 -0.4227
  439TIP3    H122808   6.493   4.782  11.485  0.0642  1.9117 -0.0880
  439TIP3    H222809   6.386   4.736  11.582  0.4099 -0.4218 -0.7364
  440TIP3   OH222810   0.314   2.705   2.689  0.4435 -0.1962 -0.0209
  440TIP3    H122811   0.326   2.681   2.780 -0.3866 -1.6194 -0.2572
  440TIP3    H222812   0.325   2.800   2.687  1.8117 -0.3076  1.3118
  441TIP3   OH222813   4.575   4.255   2.260 -0.6428  0.4653 -0.4186
  441TIP3    H122814   4.515   4.296   2.323  1.1365 -0.7890  2.2740
  441TIP3    H222815   4.655   4.308   2.264  0.1760 -0.7505 -0.1103
  442TIP3   OH222816   2.948   0.832  15.003  0.0758 -0.1116  0.2754
  442TIP3    H122817   2.949   0.904  14.940 -0.9868  0.6881  1.1172
  442TIP3    H222818   2.855   0.822  15.025  0.3388 -0.9705  1.0353
  443TIP3   OH222819   3.816   3.367  15.531 -0.4988  0.6306 -0.4305
  443TIP3    H122820   3.729   3.358  15.570 -0.2530 -1.1125 -0.2177
  443TIP3    H222821   3.872   3.394  15.603 -0.4981 -0.1947 -0.1181
  444TIP3   OH222822   2.853   3.701  15.711 -1.1127  0.0971  0.4035
  444TIP3    H122823   2.880   3.666  15.796 -0.4372  1.2164  0.6637
  444TIP3    H222824   2.776   3.754  15.730 -1.1381  0.1120  0.2632
  445TIP3   OH222825   1.805   0.578  16.731 -0.3590 -0.1183 -0.0029
  445TIP3    H122826   1.774   0.667  16.748  0.1511  0.5418 -2.2998
  445TIP3    H222827   1.736   0.522  16.767 -1.8303  1.2425 -0.6115
  446TIP3   OH222828   3.186   5.061  10.926  0.4913 -0.4925 -0.5209
  446TIP3    H122829   3.282   5.059  10.918  0.6831 -2.0043  1.4038
  446TIP3    H222830   3.156   5.098  10.843  2.7415  0.1376 -1.1299
  447TIP3   OH222831   3.041   1.233   6.299  0.6991  0.2128 -0.4921
  447TIP3    H122832   3.047   1.328   6.297  1.1392  0.1777 -0.9854
  447TIP3    H222833   2.962   1.215   6.352 -1.1810  0.9117 -2.8706
  448TIP3   OH222834   3.174   0.088   1.589  0.1645 -0.2764 -0.2040
  448TIP3    H122835   3.091   0.106   1.545 -0.5159 -0.8360  0.8114
  448TIP3    H222836   3.234   0.156   1.557 -1.3851  1.7850  1.0215
  449TIP3   OH222837   5.729   1.916   0.588  0.0894  0.3028  0.5343
  449TIP3    H122838   5.708   1.823   0.578 -1.5143  0.5158  1.3671
  449TIP3    H222839   5.666   1.946   0.654  1.0044  1.8392  0.7398
  450TIP3   OH222840   1.503   2.666  16.638  0.2533  0.2412  0.4743
  450TIP3    H122841   1.454   2.586  16.659  0.0136 -0.0879 -1.2136
  450TIP3    H222842   1.439   2.723  16.596  1.0145  0.2973 -0.6371
  451TIP3   OH222843   4.946   6.622  15.831 -0.3388  0.8030 -0.4293
  451TIP3    H122844   4.919   6.551  15.772 -0.4401 -0.1146  0.6778
  451TIP3    H222845   4.896   6.698  15.802 -1.5370 -0.0110 -0.5507
  452TIP3   OH222846   0.423   6.569   3.006 -0.4146  0.3709  0.6199
  452TIP3    H122847   0.428   6.662   3.028  1.5604  0.3179  0.5393
  452TIP3    H222848   0.469   6.561   2.923 -0.0538 -0.7543  0.9074
  453TIP3   OH222849   0.843   0.453  12.715 -0.3689  0.7906 -0.2375
  453TIP3    H122850   0.861   0.485  12.803  0.2301  1.5265 -0.6141
  453TIP3    H222851   0.762   0.402  12.724 -0.2200  0.7095  0.7621
  454TIP3   OH222852   0.112   1.353  11.553 -0.1470 -0.3570  0.2025
  454TIP3    H122853   0.034   1.298  11.549  1.6479 -3.1171  0.3863
  454TIP3    H222854   0.134   1.358  11.646 -0.1374  0.4777  0.1631
  455TIP3   OH222855   3.419   4.190  12.767 -0.6203 -0.1706  0.4300
  455TIP3    H122856   3.492   4.215  12.710 -0.1774 -0.0279  1.0518
  455TIP3    H222857   3.341   4.204  12.713 -0.1685 -0.9706 -0.4798
  456TIP3   OH222858   1.130   5.079   0.424 -0.0334  0.1569  0.3207
  456TIP3    H122859   1.206   5.109   0.475 -0.2992 -0.1955  0.9400
  456TIP3    H222860   1.142   5.119   0.338  0.0075  1.4513  0.8912
  457TIP3   OH222861   4.589   4.096  12.281 -0.4089 -0.9219 -0.3609
  457TIP3    H122862   4.639   4.178  12.281  1.3923 -1.9172 -2.3503
  457TIP3    H222863   4.526   4.106  12.210 -1.8172 -0.4303  0.8956
  458TIP3   OH222864   2.495   6.213   4.543 -0.5028  0.4816 -0.2676
  458TIP3    H122865   2.440   6.284   4.511 -2.7178  0.1713  2.5176
  458TIP3    H222866   2.552   6.253   4.608  0.0335  0.1157 -0.4968
  459TIP3   OH222867   0.294   3.053  13.249 -0.4311 -0.8304  0.2217
  459TIP3    H122868   0.362   3.073  13.184 -0.8697 -0.9142 -0.2674
  459TIP3    H222869   0.280   3.136  13.295 -0.9517 -0.4605 -0.5827
  460TIP3   OH222870   3.533   0.073   5.438  0.3502  0.1703  0.1901
  460TIP3    H122871   3.458   0.132   5.435  1.0998  1.2710  1.8407
  460TIP3    H222872   3.498  -0.009   5.472 -0.1692  0.5497  0.5848
  461TIP3   OH222873   3.040   6.774  14.435  0.0442 -0.6816  0.6078
  461TIP3    H122874   3.104   6.756  14.504 -0.9461 -1.2739  1.3926
  461TIP3    H222875   3.084   6.747  14.354  1.3919  0.4399  0.9119
  462TIP3   OH222876   4.147   0.697  15.860 -0.2252 -0.7172  0.5240
  462TIP3    H122877   4.167   0.637  15.933  0.3995 -2.2132 -0.8171
  462TIP3    H222878   4.096   0.767  15.900 -0.0499 -1.5852  2.3736
  463TIP3   OH222879   3.502   3.178  15.091  0.5141 -0.3258 -0.0716
  463TIP3    H122880   3.550   3.241  15.144  2.1150 -0.5583 -1.1915
  463TIP3    H222881   3.446   3.132  15.153  0.9554  0.6794  1.0992
  464TIP3   OH222882   3.617   1.798  12.861 -0.0897  0.0211  0.2906
  464TIP3    H122883   3.670   1.776  12.784 -0.6937 -1.8286  0.3600
  464TIP3    H222884   3.535   1.831  12.824 -0.4404 -1.0178  0.1318
  465TIP3   OH222885   3.421   1.640   0.484  0.3164 -0.2095  0.2084
  465TIP3    H122886   3.460   1.661   0.569 -0.9827  0.6318  0.6241
  465TIP3    H222887   3.447   1.712   0.427 -1.3272  0.8566  0.7349
  466TIP3   OH222888   4.889   5.955  14.561  0.6745 -0.2911 -0.6061
  466TIP3    H122889   4.927   6.014  14.625  1.8945 -1.1001 -0.5500
  466TIP3    H222890   4.963   5.900  14.532  0.4259  0.7164 -3.4494
  467TIP3   OH222891   3.552   4.694   1.421 -0.0106  0.2900  0.0671
  467TIP3    H122892   3.613   4.650   1.361  0.9643  2.3386 -0.5272
  467TIP3    H222893   3.608   4.732   1.488 -0.5953  2.2631 -0.5195
  468TIP3   OH222894   1.611   5.016  14.042  0.1887  0.1796 -0.5556
  468TIP3    H122895   1.590   5.050  13.955 -0.0083 -1.0701 -1.0094
  468TIP3    H222896   1.682   4.954  14.027  0.1055 -0.1022  0.1726
  469TIP3   OH222897   5.905   1.752   3.314 -0.2926 -0.5609  0.8645
  469TIP3    H122898   5.932   1.843   3.305 -2.9091  0.1210 -1.1052
  469TIP3    H222899   5.918   1.714   3.226 -1.3836 -1.4289  1.0595
  470TIP3   OH222900   2.711   1.286   3.592 -0.0069  0.5702  0.1866
  470TIP3    H122901   2.788   1.229   3.595 -1.4107 -1.4269 -0.0232
  470TIP3    H222902   2.689   1.302   3.684  0.0507  0.2743  0.2535
  471TIP3   OH222903   5.600   6.065   1.517  0.2252  0.2112 -0.0719
  471TIP3    H122904   5.628   6.157   1.516  1.4950 -0.1462  0.4320
  471TIP3    H222905   5.667   6.019   1.467  0.8477 -0.7554  1.5715
  472TIP3   OH222906   1.508   5.583  11.850  0.4451  0.1525 -0.7041
  472TIP3    H122907   1.537   5.510  11.904  1.0797 -0.4792 -1.8808
  472TIP3    H222908   1.588   5.619  11.812  0.0755  1.0497 -0.6827
  473TIP3   OH222909   1.739   3.238  14.550  0.1957  0.0145 -0.1243
  473TIP3    H122910   1.689   3.219  14.471 -0.1899 -0.5679  0.2494
  473TIP3    H222911   1.747   3.153  14.594  1.3318  0.1430 -0.0701
  474TIP3   OH222912   3.570   2.610  13.909  0.5050 -0.3540 -0.0958
  474TIP3    H122913   3.640   2.648  13.856 -0.5886  1.3188 -0.4248
  474TIP3    H222914   3.504   2.679  13.914 -1.1914 -1.9058  0.0840
  475TIP3   OH222915   2.453   0.619  11.373  0.3525  0.1402 -0.1550
  475TIP3    H122916   2.476   0.601  11.282  0.3827 -0.2164 -0.0815
  475TIP3    H222917   2.486   0.707  11.390  0.0077  0.3542 -0.6012
  476TIP3   OH222918   2.145   6.034   5.138  0.3246 -0.0784  0.0240
  476TIP3    H122919   2.230   6.079   5.135  0.1050  0.4039  0.7207
  476TIP3    H222920   2.142   5.994   5.225 -1.4485  2.5166  1.2615
  477TIP3   OH222921   2.038   3.302  15.112 -0.0467  0.3939  0.2383
  477TIP3    H122922   1.987   3.275  15.035  0.0378  0.9456 -0.0205
  477TIP3    H222923   2.123   3.260  15.102  0.0832  0.7412 -0.1580
  478TIP3   OH222924   5.498   3.852  11.577 -0.1931 -0.8819  0.4333
  478TIP3    H122925   5.548   3.928  11.547 -1.3626 -0.5229 -0.6795
  478TIP3    H222926   5.521   3.843  11.670 -0.6336  1.3122  0.8045
  479TIP3   OH222927   4.610   1.324  14.738 -0.5143  0.1917  0.0198
  479TIP3    H122928   4.651   1.241  14.712 -1.5478  0.2804 -2.1290
  479TIP3    H222929   4.616   1.325  14.833  1.5937 -1.2638 -0.0148
  480TIP3   OH222930   1.719   1.904  15.011  0.6206  0.6135 -0.2972
  480TIP3    H122931   1.632   1.868  15.023  1.4395 -1.3462  0.2155
  480TIP3    H222932   1.778   1.841  15.053  2.2590  2.0882 -0.2335
  481TIP3   OH222933   3.690   4.767   3.788 -0.0589 -0.7379 -0.0431
  481TIP3    H122934   3.770   4.782   3.839 -0.5037 -1.2628  0.8291
  481TIP3    H222935   3.714   4.789   3.698  0.3275  1.7297  0.5944
  482TIP3   OH222936   4.247   5.578   1.468  0.2524  0.2029 -0.0325
  482TIP3    H122937   4.265   5.644   1.535  0.4585  0.0660  0.0466
  482TIP3    H222938   4.292   5.499   1.498 -0.7911 -0.2586  0.3550
  483TIP3   OH222939   4.382   2.638  11.398  0.1289 -0.1653 -0.1533
  483TIP3    H122940   4.376   2.543  11.407  0.2331 -0.1836 -0.2827
  483TIP3    H222941   4.425   2.667  11.479 -0.5971 -0.1504  0.2422
  484TIP3   OH222942   6.801   5.351   1.230  0.0089 -0.1943  0.2320
  484TIP3    H122943   6.752   5.427   1.260 -1.3984  0.1834 -2.6624
  484TIP3    H222944   6.881   5.388   1.192 -0.0380 -0.2733  0.0548
  485TIP3   OH222945   4.036   1.209  11.529 -0.5303 -0.3319 -0.5599
  485TIP3    H122946   4.033   1.282  11.466  1.1580 -0.8103 -1.2746
  485TIP3    H222947   4.124   1.215  11.567 -0.3469 -1.9832 -0.6448
  486TIP3   OH222948   0.294   2.642   0.146 -0.6265 -0.2745 -0.3858
  486TIP3    H122949   0.291   2.738   0.137 -2.0100 -0.2718 -0.1083
  486TIP3    H222950   0.377   2.617   0.105  0.9333  1.2474  1.6114
  487TIP3   OH222951   1.212   0.443  12.956 -0.1484 -0.0781  0.0262
  487TIP3    H122952   1.121   0.471  12.966  0.0031  0.9223 -1.1521
  487TIP3    H222953   1.218   0.362  13.008 -1.5674  0.0988  0.5191
  488TIP3   OH222954   6.602   3.631   1.271 -0.2826  0.0204 -0.2929
  488TIP3    H122955   6.695   3.609   1.262 -0.5018 -0.6252 -1.0855
  488TIP3    H222956   6.573   3.647   1.181 -1.5418 -2.3522 -0.3804
  489TIP3   OH222957   4.595   2.364  12.827 -0.4877 -0.7192  0.1174
  489TIP3    H122958   4.503   2.357  12.851 -0.5649 -2.5465 -0.5257
  489TIP3    H222959   4.642   2.324  12.901 -0.0352  1.6131  1.1857
  490TIP3   OH222960   2.325   0.485  12.782 -0.4566  0.0984 -0.3951
  490TIP3    H122961   2.261   0.468  12.714 -2.0797 -0.8170  1.2587
  490TIP3    H222962   2.281   0.460  12.863  1.4800  0.8666  0.9773
  491TIP3   OH222963   4.288   6.606   3.209  0.0473  0.0030  0.5543
  491TIP3    H122964   4.194   6.603   3.226  0.2288 -0.2392  1.5481
  491TIP3    H222965   4.314   6.515   3.203 -0.0421  0.0577 -1.3524
  492TIP3   OH222966   2.860   1.323   5.263 -0.0407  0.2892  0.6378
  492TIP3    H122967   2.921   1.380   5.309  0.3875  0.7556 -0.4758
  492TIP3    H222968   2.872   1.345   5.171 -0.0079 -1.4618  0.1931
  493TIP3   OH222969   4.171   5.088   2.346  0.0709  0.3322  0.0858
  493TIP3    H122970   4.221   5.105   2.266  1.8039 -1.0079  0.8181
  493TIP3    H222971   4.085   5.126   2.329  0.9301  1.6065 -1.7277
  494TIP3   OH222972   2.719   5.084   1.030 -0.0880  0.3626  0.4274
  494TIP3    H122973   2.722   5.145   1.104  2.1120 -0.0064  0.6936
  494TIP3    H222974   2.712   5.140   0.953 -1.1635  0.8010  0.8288
  495TIP3   OH222975   5.744   6.121  12.578  0.1973  0.3225 -0.1890
  495TIP3    H122976   5.689   6.043  12.588 -1.4349  1.4044 -0.2402
  495TIP3    H222977   5.760   6.127  12.484  1.3373 -0.5863 -0.0681
  496TIP3   OH222978   3.627   6.572   3.873 -0.0769 -0.2586 -0.4036
  496TIP3    H122979   3.614   6.625   3.951 -0.5548  0.1373 -0.7450
  496TIP3    H222980   3.693   6.507   3.898  0.9480  0.8409 -0.1404
  497TIP3   OH222981   0.562   6.590  11.751 -0.2546 -0.0621 -0.1805
  497TIP3    H122982   0.527   6.529  11.685  0.2316 -0.4703 -0.0673
  497TIP3    H222983   0.655   6.567  11.757  0.3562  1.8284 -1.3993
  498TIP3   OH222984   4.156   2.628  15.661  0.2425  0.3052  0.3365
  498TIP3    H122985   4.099   2.552  15.652  0.7227 -0.1317  0.8899
  498TIP3    H222986   4.098   2.698  15.693  0.2376 -0.4920  2.2212
  499TIP3   OH222987   5.018   4.349   1.494  0.1744  0.2528 -0.4849
  499TIP3    H122988   4.928   4.370   1.467  0.1004  1.5219  0.6512
  499TIP3    H222989   5.033   4.402   1.572  2.8422  2.0759 -2.0930
  500TIP3   OH222990   6.654   3.860   3.881  0.3605  0.0791  0.4387
  500TIP3    H122991   6.707   3.782   3.898  0.8098  0.2057 -0.3488
  500TIP3    H222992   6.565   3.835   3.907  0.6773 -0.3737  1.0918
  501TIP3   OH222993   5.550   0.840  11.127  0.0195 -0.2105  0.4765
  501TIP3    H122994   5.580   0.752  11.106  1.2443  0.4567 -0.7626
  501TIP3    H222995   5.621   0.877  11.180  0.2308  0.5238 -0.3020
  502TIP3   OH222996   0.727   2.348   4.158  0.3315 -0.3307  0.2707
  502TIP3    H122997   0.720   2.436   4.196  1.4341  0.1696 -0.6118
  502TIP3    H222998   0.761   2.294   4.229  1.0119  0.2772  0.4185
  503TIP3   OH222999   6.553   0.789   0.660  0.1305 -0.2283 -0.2305
  503TIP3    H123000   6.497   0.743   0.722  1.5134  0.4660  1.5962
  503TIP3    H223001   6.635   0.804   0.707  1.7794 -0.8766 -2.6725
  504TIP3   OH223002   4.208   0.928  16.374 -0.1555  0.1633 -0.0478
  504TIP3    H123003   4.232   0.869  16.303  2.4146 -0.8923  1.5258
  504TIP3    H223004   4.168   1.003  16.331 -1.0446 -1.5055 -2.3499
  505TIP3   OH223005   3.157   5.122  14.323 -0.0048  0.3668 -0.0391
  505TIP3    H123006   3.214   5.082  14.388 -0.8091 -0.2872  0.2790
  505TIP3    H223007   3.132   5.050  14.265  1.9047  1.1959 -2.0241
  506TIP3   OH223008   0.086   5.681  12.392 -0.1439  0.0134  0.2229
  506TIP3    H123009   0.077   5.769  12.429  1.9653  0.3434  0.1261
  506TIP3    H223010   0.096   5.623  12.467  0.5493  0.1720  0.2598
  507TIP3   OH223011   1.831   4.185  16.568  0.1750 -0.2159 -0.0989
  507TIP3    H123012   1.747   4.203  16.611  0.4434 -4.1340  2.5973
  507TIP3    H223013   1.897   4.206  16.634  1.2189  0.6838 -1.3803
  508TIP3   OH223014   3.897   1.104   0.742 -0.5484  0.0603  0.1173
  508TIP3    H123015   3.888   1.158   0.664  0.9538  1.3704  0.7907
  508TIP3    H223016   3.848   1.151   0.809 -3.5567 -2.0576 -0.3750
  509TIP3   OH223017   3.227   0.064   1.856  0.3683  0.3412  0.0693
  509TIP3    H123018   3.262   0.145   1.892  4.9420 -0.6192 -1.5186
  509TIP3    H223019   3.206   0.085   1.765  0.5913  0.0339 -0.0568
  510TIP3   OH223020   5.073   1.389  15.988  0.1489 -0.6738  0.6516
  510TIP3    H123021   5.125   1.309  15.987  0.5312 -0.4313  0.9493
  510TIP3    H223022   5.136   1.459  16.004 -0.1318 -0.2697  0.0441
  511TIP3   OH223023   0.755   1.194   5.630 -0.4561  0.3933  0.5309
  511TIP3    H123024   0.790   1.105   5.635  0.5366  0.7154 -0.3560
  511TIP3    H223025   0.831   1.248   5.606 -0.9534  1.5415  1.4286
  512TIP3   OH223026   3.983   4.912   1.849 -0.4003  0.5036  0.2902
  512TIP3    H123027   3.938   4.910   1.764  1.8622  1.2910 -1.0238
  512TIP3    H223028   3.924   4.867   1.909 -1.4571 -1.3721 -2.0134
  513TIP3   OH223029   3.279   2.452  13.496 -0.5383  0.9849  0.3196
  513TIP3    H123030   3.372   2.450  13.475 -0.8003  2.0211 -1.1912
  513TIP3    H223031   3.239   2.394  13.432 -1.0882  1.9754 -0.2728
  514TIP3   OH223032   4.331   5.088  13.774 -0.2394  0.3081  0.3744
  514TIP3    H123033   4.351   5.013  13.829 -1.2936  0.3821  0.8900
  514TIP3    H223034   4.389   5.158  13.805  1.5938 -0.5638 -0.8716
  515TIP3   OH223035   4.440   2.288  14.509  0.2004  0.0796  0.1121
  515TIP3    H123036   4.355   2.309  14.547  0.2578 -2.4946  1.9008
  515TIP3    H223037   4.418   2.246  14.425 -0.4138 -1.5093  1.0253
  516TIP3   OH223038   3.180   1.471  16.646  0.2306 -0.0166 -0.4706
  516TIP3    H123039   3.230   1.413  16.703  0.2033 -1.0174 -1.4350
  516TIP3    H223040   3.199   1.441  16.557 -0.0431  1.2564 -0.9849
  517TIP3   OH223041   5.230   1.320  12.265 -0.5806 -0.1799 -0.5147
  517TIP3    H123042   5.251   1.235  12.304  1.7881  1.6586  2.7368
  517TIP3    H223043   5.313   1.352  12.230 -1.4500  0.8124 -1.7539
  518TIP3   OH223044   0.080   2.585   5.766 -0.0572 -0.1234 -0.0063
  518TIP3    H123045   0.033   2.657   5.724  0.7107 -0.3426 -1.2767
  518TIP3    H223046   0.011   2.524   5.793 -0.6384  0.5873  0.1554
  519TIP3   OH223047   6.435   5.059   2.857 -0.1116  0.7447 -0.0140
  519TIP3    H123048   6.345   5.072   2.887  0.1819  1.4755  0.5922
  519TIP3    H223049   6.473   5.000   2.922 -0.3674 -0.2054 -0.7056
  520TIP3   OH223050   0.266   6.243  11.167  0.1716 -0.4826 -0.5356
  520TIP3    H123051   0.324   6.253  11.092 -0.2554 -0.2403 -0.8423
  520TIP3    H223052   0.186   6.204  11.130  1.0475 -3.3215  0.2979
  521TIP3   OH223053   6.705   6.407   5.461 -0.1685  0.1488  0.0877
  521TIP3    H123054   6.615   6.375   5.466 -0.4032  0.8252  0.2340
  521TIP3    H223055   6.742   6.388   5.547 -1.1732  2.7761  1.1961
  522TIP3   OH223056   3.269   6.128  16.063  0.3232 -0.4880  0.0145
  522TIP3    H123057   3.306   6.199  16.011 -0.8022  0.1276  0.0038
  522TIP3    H223058   3.227   6.172  16.137 -1.6186 -0.9782 -0.7236
  523TIP3   OH223059   0.801   2.456   1.788  0.8165 -0.0590 -0.2011
  523TIP3    H123060   0.797   2.452   1.693 -0.0522 -2.4542 -0.1325
  523TIP3    H223061   0.894   2.469   1.808  0.8602  1.6701 -1.3513
  524TIP3   OH223062   0.207   5.026  14.824 -0.0446  0.1278 -0.5733
  524TIP3    H123063   0.116   5.052  14.805 -1.0367 -0.8879  2.2869
  524TIP3    H223064   0.212   4.935  14.795 -0.0648  0.0651 -0.3808
  525TIP3   OH223065   5.597   0.995   2.235 -0.5979  0.7041  0.8076
  525TIP3    H123066   5.605   1.056   2.162 -1.5730 -0.0051  0.0706
  525TIP3    H223067   5.556   1.046   2.305 -2.4681  0.6574 -0.1775
  526TIP3   OH223068   2.439   4.194  13.309 -0.3129  0.6520  0.0993
  526TIP3    H123069   2.416   4.285  13.291 -1.5761  0.6706  1.5560
  526TIP3    H223070   2.533   4.194  13.322 -0.2360  1.6635 -0.4408
  527TIP3   OH223071   6.797   1.448  14.555  0.2650  0.2133 -0.4017
  527TIP3    H123072   6.782   1.539  14.531 -1.9603 -0.0084 -0.0800
  527TIP3    H223073   6.710   1.408  14.552  1.5578 -3.0555 -4.9824
  528TIP3   OH223074   6.537   0.012  16.163  0.1008  0.6280 -0.4157
  528TIP3    H123075   6.443   0.024  16.164  0.1604  1.1361 -0.6605
  528TIP3    H223076   6.558  -0.010  16.072  0.1402 -0.1914 -0.2243
  529TIP3   OH223077   6.574   0.672  13.801  0.5704 -0.0977 -0.0932
  529TIP3    H123078   6.645   0.675  13.866  1.8379  1.1666 -1.4474
  529TIP3    H223079   6.613   0.709  13.721 -1.7234  0.9664 -0.8155
  530TIP3   OH223080   5.802   0.027  13.089 -0.3554  0.3560  0.3613
  530TIP3    H123081   5.770  -0.057  13.056 -3.1703  1.2722  0.4621
  530TIP3    H223082   5.816   0.080  13.011  0.5062  0.1165  0.3429
  531TIP3   OH223083   2.604   5.726   5.208  0.2956  0.5279  0.1489
  531TIP3    H123084   2.529   5.706   5.264  0.1470 -2.0380 -0.8297
  531TIP3    H223085   2.664   5.653   5.221  1.5652  1.3515 -0.8597
  532TIP3   OH223086   6.804   4.717  13.727 -0.6148  0.2375 -0.2480
  532TIP3    H123087   6.745   4.755  13.661 -0.6230 -0.2486 -0.5265
  532TIP3    H223088   6.745   4.678  13.792 -0.6060  0.6997  0.0460
  533TIP3   OH223089   1.427   5.675  11.445 -0.2884  0.3247 -0.4470
  533TIP3    H123090   1.390   5.684  11.533  1.3501  3.3945  0.0315
  533TIP3    H223091   1.414   5.582  11.424 -3.4415  0.0863  1.7454
  534TIP3   OH223092   1.975   0.851  15.798 -0.2726 -0.0135  0.2752
  534TIP3    H123093   1.972   0.921  15.732  2.7503  0.7001  0.7255
  534TIP3    H223094   1.953   0.895  15.880  1.1314  0.3591  0.4805
  535TIP3   OH223095   3.029   6.825  14.736  0.0130 -1.0070 -0.6237
  535TIP3    H123096   3.007   6.916  14.756 -0.0716 -0.6090 -2.3766
  535TIP3    H223097   2.945   6.780  14.731 -0.0235 -0.8882 -1.0701
  536TIP3   OH223098   0.717   4.043  16.523  0.1385 -0.3673 -0.5792
  536TIP3    H123099   0.691   4.134  16.509  1.9123  0.0373 -1.5324
  536TIP3    H223100   0.664   3.992  16.461 -0.9587 -0.0300  0.0539
  537TIP3   OH223101   2.659   4.622  10.774 -0.1305  0.0900 -0.1969
  537TIP3    H123102   2.711   4.558  10.724 -0.7056 -1.0542  0.6365
  537TIP3    H223103   2.691   4.707  10.744  0.0874 -0.5639 -1.9470
  538TIP3   OH223104   4.322   3.665   0.095 -0.5342  0.6249 -0.4488
  538TIP3    H123105   4.272   3.747   0.096 -0.4848  0.6821  1.3891
  538TIP3    H223106   4.403   3.688   0.049  0.1405  2.0942  1.3199
  539TIP3   OH223107   6.353   2.824   2.537 -0.6744 -0.2763  0.1245
  539TIP3    H123108   6.308   2.740   2.538 -1.0674 -0.1782 -2.3427
  539TIP3    H223109   6.401   2.825   2.453 -1.0681  2.1251 -0.1605
  540TIP3   OH223110   5.609   2.846   0.603 -0.5314 -0.2812  0.1133
  540TIP3    H123111   5.549   2.919   0.584 -0.6942 -0.4087  0.1344
  540TIP3    H223112   5.568   2.771   0.561  0.5842 -0.0092 -1.5662
  541TIP3   OH223113   5.474   5.797  11.835 -0.2327  0.5478  0.0573
  541TIP3    H123114   5.508   5.761  11.754 -0.0380  0.6192  0.1077
  541TIP3    H223115   5.383   5.768  11.838 -0.5014  1.2865 -0.6207
  542TIP3   OH223116   3.316   5.484  12.755 -0.7486  0.4624 -0.5199
  542TIP3    H123117   3.390   5.494  12.695 -1.5539 -0.8565 -1.8001
  542TIP3    H223118   3.297   5.390  12.754 -0.8345  0.3942  1.8068
  543TIP3   OH223119   5.635   3.388   2.540 -0.0494 -0.9256 -0.6211
  543TIP3    H123120   5.651   3.310   2.594 -0.7594  0.6103  2.0282
  543TIP3    H223121   5.539   3.397   2.539  0.0315  1.0002  1.0094
  544TIP3   OH223122   0.097   2.955  15.409  0.2477 -0.1535  0.0688
  544TIP3    H123123   0.016   2.927  15.365  1.0292  0.6542 -2.0171
  544TIP3    H223124   0.082   2.935  15.501 -2.0880 -0.5828 -0.3328
  545TIP3   OH223125   5.858   6.312  11.329  0.1799  0.0475 -0.0942
  545TIP3    H123126   5.896   6.267  11.405 -1.2344  0.6835  1.0349
  545TIP3    H223127   5.892   6.263  11.254  2.6709  0.1813  0.8349
  546TIP3   OH223128   2.181   2.177   5.435  0.0456  0.6711 -0.0889
  546TIP3    H123129   2.204   2.107   5.495  0.7638  1.2273  0.3036
  546TIP3    H223130   2.091   2.202   5.460 -0.7035 -0.9135 -1.0493
  547TIP3   OH223131   6.226   3.855  16.205  0.1177  0.4900 -0.5286
  547TIP3    H123132   6.138   3.856  16.168 -0.7235 -0.7079  1.2681
  547TIP3    H223133   6.248   3.762  16.213  0.3978  0.6798  1.5191
  548TIP3   OH223134   2.228   4.144   5.355  0.3342 -1.0756  0.3657
  548TIP3    H123135   2.153   4.188   5.316 -0.3933 -2.0627  0.6104
  548TIP3    H223136   2.235   4.061   5.308  0.9550 -1.2198  0.6971
  549TIP3   OH223137   2.555   5.544   4.672  0.3611 -0.0687  0.2726
  549TIP3    H123138   2.634   5.596   4.662  0.2635 -0.0004 -0.1493
  549TIP3    H223139   2.585   5.463   4.714  0.6212  0.0386  0.2946
  550TIP3   OH223140   5.918   3.790  13.916  0.1718  0.6148 -0.1783
  550TIP3    H123141   5.934   3.864  13.975 -0.3689  0.4080  0.2388
  550TIP3    H223142   5.884   3.721  13.973 -0.6815  0.5174 -0.7921
  551TIP3   OH223143   0.634   5.555   6.177 -0.0984 -0.4763  0.6384
  551TIP3    H123144   0.696   5.511   6.236  0.7488  0.5189  0.5131
  551TIP3    H223145   0.674   5.640   6.158 -0.6392 -0.5168 -0.8826
  552TIP3   OH223146   6.667   3.285  16.252  0.0397 -0.0409 -0.1202
  552TIP3    H123147   6.601   3.222  16.279 -0.8946  0.3595 -1.4115
  552TIP3    H223148   6.672   3.277  16.157 -1.1695  2.8080 -0.5384
  553TIP3   OH223149   0.249   0.371  12.177  0.0644  0.9929  0.1956
  553TIP3    H123150   0.184   0.441  12.176  0.9992  1.9260 -1.7539
  553TIP3    H223151   0.198   0.291  12.164 -0.8669  1.5027  0.6808
  554TIP3   OH223152   0.166   5.197  12.344  0.1412 -0.4239  0.3367
  554TIP3    H123153   0.238   5.258  12.330  0.6261 -0.6290  1.7665
  554TIP3    H223154   0.107   5.212  12.270  0.2396  1.7823  0.6419
  555TIP3   OH223155   4.055   0.268   0.737  0.1017 -0.1884  0.1744
  555TIP3    H123156   4.010   0.211   0.799 -1.3159 -0.0080 -0.6483
  555TIP3    H223157   3.985   0.306   0.684  1.1375  1.0638 -0.3570
  556TIP3   OH223158   6.013   4.764  11.620  0.1228 -0.3040  0.3747
  556TIP3    H123159   5.938   4.737  11.566  0.7603 -1.4348  0.0170
  556TIP3    H223160   6.065   4.684  11.631  2.2437  0.7733 -0.9347
  557TIP3   OH223161   3.510   3.561   3.351 -0.2745  0.0297  0.6368
  557TIP3    H123162   3.474   3.478   3.320  0.8989 -0.2985  0.0602
  557TIP3    H223163   3.459   3.582   3.429 -2.5526  0.2860 -0.8378
  558TIP3   OH223164   4.530   4.251   4.653  0.5593  0.3710  0.0233
  558TIP3    H123165   4.541   4.344   4.676 -0.4858 -0.0689  2.6863
  558TIP3    H223166   4.494   4.211   4.732 -0.1090 -2.1167 -1.4256
  559TIP3   OH223167   1.032   0.695  14.245 -0.3044 -0.0649  0.3135
  559TIP3    H123168   1.096   0.656  14.185  0.6433  0.4010  0.9833
  559TIP3    H223169   0.957   0.716  14.190  0.9384  1.3171 -0.9569
  560TIP3   OH223170   3.533   3.148  13.547  0.2642 -0.0990 -0.1345
  560TIP3    H123171   3.469   3.093  13.591  0.5394 -0.3268 -0.0177
  560TIP3    H223172   3.481   3.197  13.483 -0.0656 -0.0888  0.1363
  561TIP3   OH223173   0.621   0.798  10.371  0.2937 -0.0001  0.7482
  561TIP3    H123174   0.619   0.703  10.358 -0.8949  0.3331 -2.2300
  561TIP3    H223175   0.529   0.823  10.376  0.5949  1.0567  1.2930
  562TIP3   OH223176   4.957   0.941  11.897  0.2104 -0.1739 -0.4594
  562TIP3    H123177   4.936   1.033  11.885 -0.6308 -0.4119 -0.9378
  562TIP3    H223178   5.051   0.939  11.914 -0.1809  0.9983  2.2707
  563TIP3   OH223179   6.805   1.379   2.298 -0.0746  0.2695  0.1338
  563TIP3    H123180   6.896   1.352   2.285 -0.3162 -1.3192  1.4650
  563TIP3    H223181   6.782   1.346   2.385 -2.1498  0.0257 -0.4594
  564TIP3   OH223182   4.446   1.376   4.578 -0.7384 -0.2333 -0.1913
  564TIP3    H123183   4.502   1.443   4.617 -1.2063 -0.3358  0.6861
  564TIP3    H223184   4.451   1.303   4.638  1.6196 -1.9652 -2.2712
  565TIP3   OH223185   5.340   3.931   4.919 -0.6628  0.3295 -0.1674
  565TIP3    H123186   5.348   3.837   4.904 -0.6276  0.3903 -0.5255
  565TIP3    H223187   5.247   3.950   4.904 -0.9779  0.1119  1.2786
  566TIP3   OH223188   4.044   0.754   1.442 -0.0970  0.0624 -0.1915
  566TIP3    H123189   4.023   0.666   1.472 -0.2943  0.3036  0.3908
  566TIP3    H223190   3.961   0.789   1.410 -0.1391  0.2396  0.1069
  567TIP3   OH223191   5.906   6.070  10.627  0.1365 -0.1775 -0.1463
  567TIP3    H123192   5.837   6.131  10.600  0.9066  0.2250 -1.2779
  567TIP3    H223193   5.865   6.016  10.694 -0.5351  1.6459  0.9795
  568TIP3   OH223194   0.793   3.684   4.876  0.0494  0.6577  0.0054
  568TIP3    H123195   0.774   3.778   4.877 -1.1690  0.4881 -1.7894
  568TIP3    H223196   0.731   3.648   4.812  1.7471 -1.0885 -0.7639
  569TIP3   OH223197   0.049   3.108   2.992 -0.2886 -0.1457  0.2418
  569TIP3    H123198   0.105   3.096   3.069  0.1731  2.7773  0.4820
  569TIP3    H223199   0.109   3.138   2.924 -1.0551 -0.3417 -0.5312
  570TIP3   OH223200   3.993   2.186  12.089 -0.1512 -0.3542 -0.2048
  570TIP3    H123201   4.025   2.259  12.141 -1.5046  0.4670 -0.4541
  570TIP3    H223202   3.950   2.129  12.152 -0.9816  0.1741 -0.2764
  571TIP3   OH223203   4.308   0.471   2.079 -0.8497 -0.5357 -0.2374
  571TIP3    H123204   4.251   0.512   2.013  1.2821 -0.7602 -2.3405
  571TIP3    H223205   4.339   0.545   2.132 -1.9140 -0.2321 -0.0138
  572TIP3   OH223206   0.643   1.616  14.286  0.5372  0.1013 -0.0822
  572TIP3    H123207   0.558   1.651  14.313  0.9769  0.3077  1.0637
  572TIP3    H223208   0.650   1.531  14.330  1.4405  0.6324  0.8509
  573TIP3   OH223209   5.618   4.185   4.232  0.1509 -0.2010 -0.5312
  573TIP3    H123210   5.552   4.237   4.278 -1.4338 -1.8433 -0.8394
  573TIP3    H223211   5.632   4.231   4.149 -1.9884 -0.7263 -1.2427
  574TIP3   OH223212   4.638   4.763   1.399 -0.6451  0.6366 -0.1789
  574TIP3    H123213   4.657   4.716   1.317 -1.0718 -0.4960  0.3546
  574TIP3    H223214   4.703   4.731   1.461 -1.2318  0.4037  0.3225
  575TIP3   OH223215   1.523   3.236   0.562 -0.2460 -0.0332  0.1750
  575TIP3    H123216   1.571   3.174   0.618 -0.3795  0.2934  0.6573
  575TIP3    H223217   1.496   3.184   0.487  1.3172 -0.1248 -0.3766
  576TIP3   OH223218   1.825   0.637   3.904  0.0266 -0.0159 -0.0532
  576TIP3    H123219   1.758   0.657   3.838 -0.5919 -0.5979  0.3865
  576TIP3    H223220   1.839   0.543   3.897 -2.8328 -0.8922  3.1204
  577TIP3   OH223221   0.554   0.430   0.871 -0.5917  0.2563  0.4655
  577TIP3    H123222   0.512   0.511   0.843 -0.5811 -0.5538 -2.2092
  577TIP3    H223223   0.524   0.364   0.808 -0.2631 -1.7527  2.2847
  578TIP3   OH223224   4.033   4.900   5.507 -0.6266 -0.0881 -0.1083
  578TIP3    H123225   4.055   4.985   5.546  0.4600 -0.5511  0.3311
  578TIP3    H223226   4.078   4.836   5.562 -2.6385 -1.0971  0.4882
  579TIP3   OH223227   5.240   2.596   4.671 -0.4691  0.4343 -0.1816
  579TIP3    H123228   5.316   2.545   4.642 -1.7989 -2.6083  1.2524
  579TIP3    H223229   5.261   2.622   4.761 -1.5228 -1.4560  0.6545
  580TIP3   OH223230   0.402   1.584  14.998 -0.4138 -0.5150 -0.6749
  580TIP3    H123231   0.445   1.648  14.941 -1.1648  1.8411  1.2436
  580TIP3    H223232   0.315   1.621  15.014 -0.4030 -1.3458  1.5471
  581TIP3   OH223233   5.525   6.362  12.900  0.2670  0.2707 -0.7431
  581TIP3    H123234   5.596   6.302  12.879  0.5295  0.2730  0.1081
  581TIP3    H223235   5.505   6.406  12.817 -1.3024 -2.3753 -1.9091
  582TIP3   OH223236   3.154   1.076  14.786  0.2978  0.5914 -0.3480
  582TIP3    H123237   3.109   1.065  14.703 -0.0513 -1.0385  0.0176
  582TIP3    H223238   3.091   1.123  14.842  0.2517  1.0323 -0.7685
  583TIP3   OH223239   4.333   2.855   1.349  0.1184  0.0775  0.2259
  583TIP3    H123240   4.258   2.796   1.349 -0.4312  0.7553 -0.8376
  583TIP3    H223241   4.389   2.823   1.279 -0.2727  0.8977 -0.4846
  584TIP3   OH223242   3.473   4.285   6.281 -0.3434 -0.4801  0.0830
  584TIP3    H123243   3.450   4.229   6.356 -1.9415  1.4478  1.1411
  584TIP3    H223244   3.433   4.370   6.302 -1.0651  0.0757 -3.0787
  585TIP3   OH223245   2.367   4.472  10.716 -0.0345 -0.2150  0.1283
  585TIP3    H123246   2.320   4.482  10.799 -1.8813  0.0996 -0.8989
  585TIP3    H223247   2.403   4.559  10.699 -1.0477  0.1562 -0.1768
  586TIP3   OH223248   2.574   1.321  16.559 -0.1459 -0.0864  0.6597
  586TIP3    H123249   2.492   1.276  16.542  0.2015 -0.5170  0.0926
  586TIP3    H223250   2.642   1.265  16.520  0.3808  0.4394  0.7928
  587TIP3   OH223251   6.306   2.152  14.774  0.0382 -0.5545 -0.3742
  587TIP3    H123252   6.216   2.140  14.743  0.1190 -2.6060  0.0747
  587TIP3    H223253   6.339   2.063  14.786  1.4343  0.1621  1.4643
  588TIP3   OH223254   0.085   5.089  12.939  0.0382  0.4063  0.2053
  588TIP3    H123255   0.061   4.999  12.959 -0.1127  0.6403  1.1375
  588TIP3    H223256   0.063   5.138  13.019 -0.0801  1.2998 -0.3554
  589TIP3   OH223257   1.946   3.662   5.049 -0.5391 -0.3208  0.1334
  589TIP3    H123258   2.010   3.728   5.075 -0.9515 -0.0068  0.3693
  589TIP3    H223259   1.971   3.637   4.960 -0.4407  0.2302  0.0054
  590TIP3   OH223260   3.866   3.989   2.751 -0.2376 -0.0194  0.5507
  590TIP3    H123261   3.850   3.904   2.793 -0.8333  0.7863  2.0482
  590TIP3    H223262   3.821   4.052   2.808  2.2190  1.5818  0.8815
  591TIP3   OH223263   6.450   4.742   3.351  0.0101 -0.3633  0.3391
  591TIP3    H123264   6.538   4.749   3.389  0.8564 -1.2585 -1.3427
  591TIP3    H223265   6.420   4.833   3.345  1.1294  0.0211  0.2510
  592TIP3   OH223266   0.172   2.244   0.301  0.2229  0.1698  0.1621
  592TIP3    H123267   0.125   2.264   0.220  0.4271  0.9879  0.2379
  592TIP3    H223268   0.264   2.246   0.277  0.4059  2.4379  0.7985
  593TIP3   OH223269   4.217   2.838   2.281  0.1883  0.0829 -0.0463
  593TIP3    H123270   4.214   2.825   2.375 -0.9044  0.0270 -0.0732
  593TIP3    H223271   4.157   2.772   2.246  0.0206  0.5845 -0.7224
  594TIP3   OH223272   6.743   3.651   0.621  0.1155  0.0068 -0.4435
  594TIP3    H123273   6.675   3.607   0.672  0.3395  1.4725  1.2121
  594TIP3    H223274   6.807   3.582   0.603  0.9394 -0.3168  2.9059
  595TIP3   OH223275   4.349   2.767  12.152 -0.7446 -0.2623  0.1650
  595TIP3    H123276   4.319   2.685  12.112  2.5287 -1.5888  0.0598
  595TIP3    H223277   4.329   2.757  12.245  0.0879 -1.4792  0.2422
  596TIP3   OH223278   2.137   1.296   2.614  0.1234  0.2583 -0.0939
  596TIP3    H123279   2.183   1.241   2.677  0.7448  1.2893  0.3781
  596TIP3    H223280   2.050   1.310   2.653  0.0266 -0.2290 -0.1309
  597TIP3   OH223281   5.577   1.981   6.598  0.6806 -0.1969 -1.0373
  597TIP3    H123282   5.533   2.064   6.579  1.7070  0.4210 -0.7962
  597TIP3    H223283   5.664   2.006   6.628  0.1646 -1.2262  1.6557
  598TIP3   OH223284   6.329   3.272  12.704  0.2034  0.4384 -0.2773
  598TIP3    H123285   6.268   3.283  12.778 -0.0954  1.2077 -0.6294
  598TIP3    H223286   6.311   3.347  12.647  0.3745 -0.1977 -1.1741
  599TIP3   OH223287   6.320   2.596  14.218 -0.3076  0.7180  0.3809
  599TIP3    H123288   6.386   2.665  14.222  0.2317  0.1710  1.5542
  599TIP3    H223289   6.251   2.624  14.279 -0.4088  0.5432  0.3500
  600TIP3   OH223290   4.372   5.046  13.495 -0.0295  0.3886 -0.5221
  600TIP3    H123291   4.369   5.042  13.591 -0.9840 -0.3259 -0.5652
  600TIP3    H223292   4.292   5.001  13.467 -0.2598  1.4196 -1.6361
  601TIP3   OH223293   2.468   6.083  12.549 -0.2292 -0.3444  0.0777
  601TIP3    H123294   2.564   6.083  12.547 -0.2087  1.2851 -0.3922
  601TIP3    H223295   2.445   6.170  12.581 -1.5562 -0.4552 -0.5164
  602TIP3   OH223296   1.169   0.286  14.193 -0.0198  0.0589 -0.8153
  602TIP3    H123297   1.082   0.323  14.178 -0.9571 -2.0164 -0.7414
  602TIP3    H223298   1.216   0.300  14.111 -0.1420  1.8221 -0.6248
  603TIP3   OH223299   2.390   1.981   0.686 -0.0195 -0.0379  0.3449
  603TIP3    H123300   2.385   2.039   0.762 -1.8176  0.6134 -0.2022
  603TIP3    H223301   2.299   1.972   0.657  0.6280 -0.0566 -1.8650
  604TIP3   OH223302   0.326   6.718   0.395  0.6709 -0.1867  0.7228
  604TIP3    H123303   0.334   6.646   0.458  0.3883 -0.9269 -0.0623
  604TIP3    H223304   0.337   6.676   0.309 -0.9119  0.4629  0.1651
  605TIP3   OH223305   2.651   1.630  13.325  0.8067  0.1061  0.4125
  605TIP3    H123306   2.658   1.535  13.310  1.4768  0.1889  0.1860
  605TIP3    H223307   2.562   1.642  13.359  0.8131 -0.6436  0.7136
  606TIP3   OH223308   6.178   5.906   2.324 -0.1112  0.1916  0.0584
  606TIP3    H123309   6.103   5.882   2.379  0.0905  0.7442  0.5924
  606TIP3    H223310   6.140   5.957   2.253 -0.3834 -0.5757 -0.3672
  607TIP3   OH223311   3.693   4.306   3.622 -0.4725 -0.0608 -0.3546
  607TIP3    H123312   3.672   4.249   3.696 -1.1608 -0.2356 -0.6685
  607TIP3    H223313   3.613   4.306   3.569 -0.8194  1.9352  0.1062
  608TIP3   OH223314   4.787   3.220  10.668 -0.3251 -0.4292 -0.3031
  608TIP3    H123315   4.837   3.182  10.740 -0.8080  0.1378  0.3338
  608TIP3    H223316   4.763   3.307  10.698 -2.7570 -1.1148 -0.0927
  609TIP3   OH223317   0.892   5.750  14.957  0.2476 -0.1007 -1.2537
  609TIP3    H123318   0.806   5.790  14.973  0.6594  0.2932  0.1210
  609TIP3    H223319   0.947   5.821  14.925 -0.0812 -0.4911 -2.7599
  610TIP3   OH223320   6.028   1.427   0.865 -0.3100 -0.0076 -0.0813
  610TIP3    H123321   6.048   1.472   0.947 -1.3033 -0.6221  0.5108
  610TIP3    H223322   6.098   1.455   0.806 -0.0217  1.0735  0.7255
  611TIP3   OH223323   5.756   3.385  14.359  0.3035 -0.0741 -0.0239
  611TIP3    H123324   5.774   3.441  14.284 -0.4364  0.5280  0.2367
  611TIP3    H223325   5.763   3.295  14.325  0.0847  0.1879 -0.7733
  612TIP3   OH223326   4.511   2.994   6.662 -0.2863  0.0454 -0.4041
  612TIP3    H123327   4.528   3.041   6.581  1.1114  1.6294  0.7408
  612TIP3    H223328   4.597   2.978   6.700 -0.9407  1.2165  1.7608
  613TIP3   OH223329   5.768   0.796  16.479 -0.7557  0.4385 -0.1330
  613TIP3    H123330   5.787   0.854  16.405 -0.0423  0.4923  0.0768
  613TIP3    H223331   5.689   0.833  16.519 -1.8267 -0.2566 -1.5290
  614TIP3   OH223332   2.421   3.566   2.308  0.2601 -0.2123  0.2489
  614TIP3    H123333   2.435   3.619   2.386  0.9446 -0.2869  0.1845
  614TIP3    H223334   2.383   3.626   2.244  1.9739  0.4948 -0.1682
  615TIP3   OH223335   6.700   6.472   1.752  0.2320  0.1173 -0.6307
  615TIP3    H123336   6.690   6.443   1.843  0.2479  0.6865 -0.4421
  615TIP3    H223337   6.681   6.565   1.755  1.2150  0.3416 -1.0387
  616TIP3   OH223338   4.447   0.431  13.022 -0.5367  0.0964  0.3288
  616TIP3    H123339   4.528   0.402  12.980 -0.1622 -0.2872  1.2731
  616TIP3    H223340   4.466   0.521  13.051 -0.7380  0.3003 -0.1548
  617TIP3   OH223341   0.618   0.683  10.664  0.4293 -0.7631  1.0765
  617TIP3    H123342   0.570   0.604  10.688 -1.1657 -0.5140 -1.0263
  617TIP3    H223343   0.561   0.755  10.693 -0.6059 -0.4649 -1.4746
  618TIP3   OH223344   2.026   2.377   4.297 -0.5354  0.3661 -0.0342
  618TIP3    H123345   1.994   2.288   4.289  0.4424 -0.0861  0.8983
  618TIP3    H223346   1.971   2.417   4.364  1.7610 -0.9186  2.8217
  619TIP3   OH223347   5.987   4.863   1.564  0.0621  0.0122  0.3166
  619TIP3    H123348   5.967   4.841   1.655 -1.0561 -1.0164 -0.1461
  619TIP3    H223349   6.047   4.795   1.535 -3.7969 -3.0897 -1.2709
  620TIP3   OH223350   6.307   2.855   1.299 -0.6803 -0.6049 -0.0365
  620TIP3    H123351   6.281   2.774   1.342  0.3794  0.0649  1.9729
  620TIP3    H223352   6.365   2.827   1.228 -2.3724 -1.7206 -1.0537
  621TIP3   OH223353   1.172   1.110   4.159  0.3185 -0.6510 -0.0626
  621TIP3    H123354   1.205   1.035   4.210  1.8735  0.5883  0.8413
  621TIP3    H223355   1.117   1.158   4.222 -0.1849 -0.6884 -0.4667
  622TIP3   OH223356   0.777   5.745  12.449 -0.4978  0.4199  0.4748
  622TIP3    H123357   0.798   5.776  12.537 -1.7595  2.8099  0.0121
  622TIP3    H223358   0.830   5.666  12.438  2.6914  2.1433  1.9269
  623TIP3   OH223359   1.963   6.315  11.401  0.2590  0.0937 -0.3854
  623TIP3    H123360   2.017   6.256  11.454 -0.4380 -0.0483  0.1760
  623TIP3    H223361   1.873   6.294  11.425 -0.0107  1.2698 -0.3000
  624TIP3   OH223362   3.639   3.615  14.445 -0.1487  0.5883 -0.0653
  624TIP3    H123363   3.661   3.577  14.530 -0.9650 -0.2340 -0.2073
  624TIP3    H223364   3.676   3.703  14.448 -0.4221  0.6849  1.2631
  625TIP3   OH223365   5.691   3.279   1.284  0.0938 -0.0811 -0.1190
  625TIP3    H123366   5.687   3.186   1.262 -1.5228 -0.2930  0.8438
  625TIP3    H223367   5.718   3.322   1.203  0.4332 -1.3429 -0.7023
  626TIP3   OH223368   4.208   4.720  11.843 -0.7030 -0.5062 -0.6216
  626TIP3    H123369   4.156   4.740  11.920  2.2172 -0.2375  1.4719
  626TIP3    H223370   4.265   4.648  11.870  0.9835  0.1207 -2.2196
  627TIP3   OH223371   4.634   6.582  15.253  0.5562  0.1958 -0.3201
  627TIP3    H123372   4.639   6.614  15.343  0.5206 -1.2957  0.2347
  627TIP3    H223373   4.698   6.635  15.206  2.1976 -0.4570  1.0578
  628TIP3   OH223374   5.720   0.058   5.647  0.3953  0.7916  0.1399
  628TIP3    H123375   5.703   0.079   5.739  0.2813 -0.4679  0.4230
  628TIP3    H223376   5.813   0.076   5.635  0.3594  1.1927  0.4228
  629TIP3   OH223377   3.892   0.967  13.546  0.3943 -0.1708  0.3995
  629TIP3    H123378   3.813   0.995  13.592  1.1639 -0.7566  2.1325
  629TIP3    H223379   3.911   0.879  13.579  1.3249 -0.3792 -0.5960
  630TIP3   OH223380   3.620   0.243  15.808  0.0263 -0.0624  0.2810
  630TIP3    H123381   3.563   0.221  15.734 -0.6579  0.1465  0.7380
  630TIP3    H223382   3.565   0.295  15.866  0.2180 -1.1859  1.4965
  631TIP3   OH223383   4.883   5.214  17.095  0.3607 -0.2904  0.3007
  631TIP3    H123384   4.905   5.242  17.184 -0.4999 -1.9897  1.1030
  631TIP3    H223385   4.921   5.281  17.038  3.4287 -0.5750  1.7824
  632TIP3   OH223386   5.940   4.953  16.500  0.3388  0.1967 -0.1697
  632TIP3    H123387   5.949   4.961  16.405  0.1128 -1.1162 -0.3232
  632TIP3    H223388   5.845   4.949  16.515  0.3926 -0.7810 -0.0178
  633TIP3   OH223389   4.145   2.308  14.528 -0.3485  0.5321  0.3470
  633TIP3    H123390   4.090   2.376  14.568 -1.7525  0.3509 -1.1753
  633TIP3    H223391   4.157   2.338  14.438 -1.3662 -1.4270 -0.4878
  634TIP3   OH223392   1.127   3.361  17.104  0.3014  0.1542 -0.2373
  634TIP3    H123393   1.169   3.308  17.036  1.5442  0.2405  0.4314
  634TIP3    H223394   1.034   3.361  17.080  0.5553 -0.7024 -1.3308
  635TIP3   OH223395   1.360   6.370   0.059  0.1054  0.5860 -0.4389
  635TIP3    H123396   1.396   6.457   0.044 -0.8488  0.9013 -0.9564
  635TIP3    H223397   1.301   6.355  -0.015  1.7478 -1.3377 -1.4478
  636TIP3   OH223398   2.007   2.871   3.487  0.4043 -0.1110  0.1321
  636TIP3    H123399   1.951   2.812   3.436  1.7674  0.8268 -2.6974
  636TIP3    H223400   2.089   2.872   3.438  1.3365  2.0205  1.6240
  637TIP3   OH223401   5.182   0.462  17.103  0.6159  0.0782 -0.1513
  637TIP3    H123402   5.219   0.550  17.105 -2.0453  1.3306 -1.4079
  637TIP3    H223403   5.187   0.432  17.194  5.1470 -0.2275 -0.2766
  638TIP3   OH223404   0.569   6.107   5.831 -0.2245  0.1099  0.5692
  638TIP3    H123405   0.537   6.197   5.839  1.0619  0.5490  1.1485
  638TIP3    H223406   0.521   6.071   5.757  0.1489  1.7041 -0.5123
  639TIP3   OH223407   0.669   5.000  17.015 -0.1368 -0.0494 -0.2235
  639TIP3    H123408   0.717   4.969  16.939 -1.8199  0.3340 -1.4960
  639TIP3    H223409   0.646   5.091  16.994  1.9082  1.1219  2.0442
  640TIP3   OH223410   2.716   3.414  11.575  0.2389 -0.5933  0.9758
  640TIP3    H123411   2.675   3.333  11.606  1.1081 -0.8053  1.6433
  640TIP3    H223412   2.806   3.388  11.554  0.5142  0.1795  1.1463
  641TIP3   OH223413   0.481   2.412  12.228 -0.0259  0.2996 -0.1614
  641TIP3    H123414   0.571   2.416  12.196 -0.3235  0.6421 -1.0097
  641TIP3    H223415   0.484   2.453  12.315  0.3110  2.1689 -0.9859
  642TIP3   OH223416   4.864   3.579  12.727  0.0651 -0.0923  0.5481
  642TIP3    H123417   4.828   3.639  12.792  2.7873  1.0524  1.1169
  642TIP3    H223418   4.883   3.499  12.776 -0.3610 -0.2115  0.5300
  643TIP3   OH223419   5.638   5.179   6.277 -0.5235  0.2397  0.5107
  643TIP3    H123420   5.689   5.256   6.302  0.5234 -0.4238  0.5025
  643TIP3    H223421   5.547   5.209   6.277 -0.0757  1.7306 -0.4315
  644TIP3   OH223422   1.883   5.258   3.229  0.3827  0.3809  0.4086
  644TIP3    H123423   1.915   5.306   3.306 -1.6242  0.9944  0.9187
  644TIP3    H223424   1.824   5.192   3.265 -0.1854  0.3440 -0.5703
  645TIP3   OH223425   4.350   2.163   3.062  0.1393  0.1295  0.0544
  645TIP3    H123426   4.280   2.221   3.092  1.5647  1.9079  0.1018
  645TIP3    H223427   4.383   2.204   2.983  0.4202 -1.2917 -0.5976
  646TIP3   OH223428   0.005   2.080  14.073  0.1106  0.1004 -0.2208
  646TIP3    H123429   0.083   2.085  14.018  0.8609 -0.6847  0.7258
  646TIP3    H223430  -0.067   2.070  14.011  0.7591  0.7439 -1.1129
  647TIP3   OH223431   0.052   4.094   5.570 -0.1888  0.4628 -0.0809
  647TIP3    H123432   0.136   4.109   5.527 -0.2749 -2.4172 -1.5156
  647TIP3    H223433   0.073   4.092   5.663  1.5707 -1.1514 -0.4541
  648TIP3   OH223434   6.257   6.066   1.038 -0.3538  0.0328 -0.2613
  648TIP3    H123435   6.284   6.153   1.011  1.0563  0.0451  1.0475
  648TIP3    H223436   6.221   6.078   1.126  0.9060 -0.8239  0.4070
  649TIP3   OH223437   0.371   4.935   3.591  0.2215  0.1843  0.4107
  649TIP3    H123438   0.345   4.857   3.541 -1.5967  1.4166 -0.7142
  649TIP3    H223439   0.456   4.913   3.628  1.4866 -1.0473 -2.8110
  650TIP3   OH223440   3.370   4.511   1.538  0.1155 -0.2089 -0.3517
  650TIP3    H123441   3.381   4.532   1.631 -2.0588  2.1293 -0.5025
  650TIP3    H223442   3.420   4.578   1.492  0.3467 -0.7370 -0.8907
  651TIP3   OH223443   4.364   5.524   0.891  0.0551 -0.0922  0.2891
  651TIP3    H123444   4.345   5.615   0.869 -2.7343 -0.5970  0.2244
  651TIP3    H223445   4.403   5.528   0.978  1.4070  1.2273 -0.3364
  652TIP3   OH223446   5.661   6.550   4.077 -0.0707  0.1180 -0.3336
  652TIP3    H123447   5.589   6.510   4.029 -0.8383  0.9981  0.0638
  652TIP3    H223448   5.696   6.478   4.130 -0.6704 -0.3176 -0.5106
  653TIP3   OH223449   5.064   2.470  14.742  0.5663 -0.3578 -0.1270
  653TIP3    H123450   5.069   2.413  14.819  1.8422 -0.6653 -0.4199
  653TIP3    H223451   5.134   2.534  14.755 -0.6798  1.0274  0.0746
  654TIP3   OH223452   1.951   4.003   3.163  0.3070  0.3840  0.3870
  654TIP3    H123453   1.984   3.914   3.150 -3.1131 -1.2238  1.5353
  654TIP3    H223454   2.002   4.056   3.102  1.9431 -2.4523 -0.9547
  655TIP3   OH223455   4.936   1.558   5.730 -0.0468 -0.2984 -0.0321
  655TIP3    H123456   4.873   1.625   5.757  1.0374  0.1079  1.5931
  655TIP3    H223457   4.881   1.483   5.704 -1.2452  0.9643 -1.2882
  656TIP3   OH223458   0.397   0.447  11.622 -0.2785 -0.6594  0.1900
  656TIP3    H123459   0.487   0.433  11.592 -0.6119 -1.8834 -0.2798
  656TIP3    H223460   0.342   0.427  11.546 -0.9023  2.4770 -0.3302
  657TIP3   OH223461   2.923   5.411   3.668 -0.2669  0.3587  0.1496
  657TIP3    H123462   2.888   5.425   3.756 -0.0593 -0.2530  0.3372
  657TIP3    H223463   2.991   5.477   3.658  0.5419 -0.3313  0.9220
  658TIP3   OH223464   5.871   2.277  12.052 -0.0248 -0.0492  0.5438
  658TIP3    H123465   5.853   2.342  12.120  4.4584  0.8162  1.1741
  658TIP3    H223466   5.867   2.193  12.098 -1.2493  0.1178  0.7868
  659TIP3   OH223467   6.207   4.895  15.170  0.6993  0.9415  0.2136
  659TIP3    H123468   6.141   4.874  15.236  0.0220  1.2133 -0.3592
  659TIP3    H223469   6.256   4.814  15.158 -0.2732  0.3985 -0.1762
  660TIP3   OH223470   3.881   1.766   2.396  0.0127  0.0439  0.0508
  660TIP3    H123471   3.960   1.786   2.447  0.9725 -1.6963 -0.6543
  660TIP3    H223472   3.865   1.844   2.344  0.5931  0.8470  1.0465
  661TIP3   OH223473   4.771   1.662  11.514  0.1457 -0.0661  0.2433
  661TIP3    H123474   4.830   1.734  11.494 -1.2115  0.6096 -1.6833
  661TIP3    H223475   4.776   1.605  11.438 -0.3847 -0.9007  0.8181
  662TIP3   OH223476   6.242   0.508   1.056 -0.1513 -0.1596 -0.4921
  662TIP3    H123477   6.258   0.428   1.105 -1.5654 -0.8778 -1.1463
  662TIP3    H223478   6.155   0.536   1.084  0.5279  1.4639  0.1253
  663TIP3   OH223479   2.699   5.797   3.202  0.0913 -0.5811 -0.1505
  663TIP3    H123480   2.660   5.881   3.224  1.8133 -0.4933  2.9450
  663TIP3    H223481   2.643   5.732   3.245 -2.3883 -1.4243 -4.0560
  664TIP3   OH223482   6.715   2.115  16.129  0.5737 -0.7755 -0.1804
  664TIP3    H123483   6.665   2.037  16.149 -0.9134  0.0933 -0.3786
  664TIP3    H223484   6.733   2.155  16.215 -0.9786  0.0289 -0.1948
  665TIP3   OH223485   4.614   1.652  13.025  0.7793  0.4098  0.2064
  665TIP3    H123486   4.555   1.660  13.100  0.7384  1.1950  0.1031
  665TIP3    H223487   4.630   1.558  13.016  1.1816  0.3373  1.5045
  666TIP3   OH223488   6.124   6.270  12.049  0.1574  0.0724  0.0940
  666TIP3    H123489   6.193   6.256  12.114  1.8271  2.3793 -1.0669
  666TIP3    H223490   6.168   6.260  11.964 -1.7667 -1.9365 -0.7927
  667TIP3   OH223491   5.276   5.594   1.928 -0.2199  0.0062  0.3868
  667TIP3    H123492   5.185   5.608   1.952  0.3042 -0.3719  2.8935
  667TIP3    H223493   5.326   5.647   1.991  1.3239 -1.6099  0.6157
  668TIP3   OH223494   0.187   0.318  16.662  0.2557 -0.1500 -0.4056
  668TIP3    H123495   0.264   0.360  16.700  0.5414  0.4379 -1.6095
  668TIP3    H223496   0.155   0.260  16.731  2.1617 -0.8939 -0.1033
  669TIP3   OH223497   6.438   0.396  13.817  0.9115 -0.5717  0.5479
  669TIP3    H123498   6.486   0.478  13.825  1.8282 -1.0981  0.5278
  669TIP3    H223499   6.441   0.375  13.724  0.1690 -0.3328  0.4653
  670TIP3   OH223500   3.648   1.922   5.836 -0.2598  0.2940 -0.3508
  670TIP3    H123501   3.657   1.846   5.894 -3.1091  1.3804  1.7331
  670TIP3    H223502   3.597   1.985   5.887  0.8781  3.1499 -2.4691
  671TIP3   OH223503   0.948   0.079  14.057  0.5170 -0.0882  0.1936
  671TIP3    H123504   0.942   0.022  13.980  0.0552  0.4384 -0.1776
  671TIP3    H223505   0.987   0.160  14.023 -0.2330  0.3651  0.3783
  672TIP3   OH223506   4.221   3.096  10.365  0.0266  0.0054 -0.7733
  672TIP3    H123507   4.212   3.001  10.367  1.5066 -0.1565  0.0728
  672TIP3    H223508   4.167   3.127  10.437  0.4062 -0.3085 -0.3457
  673TIP3   OH223509   4.641   2.196  15.027 -0.0567  1.0030 -0.3849
  673TIP3    H123510   4.621   2.259  14.957  0.0355  0.6844 -0.7018
  673TIP3    H223511   4.579   2.125  15.015  0.0330  0.8936 -0.2112
  674TIP3   OH223512   1.931   3.351  11.884  0.4025 -0.2232 -0.6179
  674TIP3    H123513   1.895   3.392  11.962  0.1336 -0.4552 -0.6178
  674TIP3    H223514   1.904   3.407  11.812  1.6833  0.6765 -0.4444
  675TIP3   OH223515   6.118   6.200  13.617  0.2526 -0.1280  0.1633
  675TIP3    H123516   6.172   6.201  13.537  1.0952  2.3444  0.6638
  675TIP3    H223517   6.031   6.226  13.587  0.9457  2.5160  0.1601
  676TIP3   OH223518   6.202   6.668  15.998  0.3362 -0.3425 -0.0393
  676TIP3    H123519   6.195   6.606  16.071  1.7795 -0.5149 -0.0164
  676TIP3    H223520   6.201   6.613  15.920  0.0843 -0.2659 -0.0899
  677TIP3   OH223521   5.960   0.084  16.598  0.3359 -0.1540 -0.0378
  677TIP3    H123522   5.883   0.028  16.586  0.2124 -0.0558  0.2812
  677TIP3    H223523   5.978   0.119  16.511 -2.4759  3.1270  0.4875
  678TIP3   OH223524   4.408   4.667   0.676 -0.6208 -0.4669 -0.3138
  678TIP3    H123525   4.333   4.719   0.647 -0.5171 -0.1664 -0.0568
  678TIP3    H223526   4.464   4.662   0.598 -1.0419 -0.9432 -0.5885
  679TIP3   OH223527   4.976   5.267  14.527 -0.3923 -0.0911  0.0850
  679TIP3    H123528   5.071   5.262  14.540 -0.1095 -1.0003 -1.8973
  679TIP3    H223529   4.939   5.253  14.614  1.2685 -2.0780  0.5528
  680TIP3   OH223530   2.630   1.668  15.967 -0.3877 -0.1905  0.1803
  680TIP3    H123531   2.675   1.613  16.031 -0.2786 -0.1949  0.1007
  680TIP3    H223532   2.545   1.626  15.954 -0.3781 -0.2348  0.2615
  681TIP3   OH223533   0.369   6.548  16.319  0.1838 -0.1912 -0.7967
  681TIP3    H123534   0.305   6.611  16.351  0.0525 -1.1767  1.0057
  681TIP3    H223535   0.391   6.579  16.230 -0.6344  1.7649 -0.3711
  682TIP3   OH223536   0.080   0.919   1.631 -0.8578 -0.4882  0.1804
  682TIP3    H123537   0.034   0.916   1.715  0.2874 -0.1935  0.8480
  682TIP3    H223538   0.123   0.833   1.624 -1.4191 -0.7318 -0.3956
  683TIP3   OH223539   6.647   3.099   0.467 -0.2798 -0.0085 -0.0639
  683TIP3    H123540   6.699   3.149   0.530 -2.5857  1.7162  0.5976
  683TIP3    H223541   6.637   3.013   0.507 -0.6367  0.6627  1.3313
  684TIP3   OH223542   1.143   3.737  12.698  0.2793  0.2476 -0.4106
  684TIP3    H123543   1.224   3.772  12.661  1.0349  1.4018  2.1390
  684TIP3    H223544   1.103   3.811  12.743  0.2580 -1.3208  2.3660
  685TIP3   OH223545   6.739   2.397  12.292 -0.3883 -0.2273  0.6296
  685TIP3    H123546   6.668   2.394  12.357 -0.8286 -0.1981  0.1577
  685TIP3    H223547   6.697   2.371  12.210 -0.5426  2.4782 -0.2654
  686TIP3   OH223548   6.146   5.489   3.214 -0.2190  0.0238 -0.3116
  686TIP3    H123549   6.092   5.565   3.237 -0.9802 -0.8428  0.9165
  686TIP3    H223550   6.231   5.526   3.191 -0.2494  1.2004  1.3003
  687TIP3   OH223551   5.981   2.562   2.600 -0.4554  0.0001 -0.1414
  687TIP3    H123552   6.020   2.480   2.571 -1.3596 -0.4396 -0.1519
  687TIP3    H223553   6.001   2.567   2.693 -1.2840 -0.7602  0.0876
  688TIP3   OH223554   5.609   0.694  17.094 -0.0899 -0.4462 -0.7060
  688TIP3    H123555   5.647   0.676  17.008  0.3338  0.1837 -0.6565
  688TIP3    H223556   5.518   0.720  17.075 -0.1516 -0.8153 -0.9203
  689TIP3   OH223557   3.550   2.956  15.587 -0.3852 -0.1097  0.2913
  689TIP3    H123558   3.495   2.884  15.553  0.2947 -0.4357 -0.1372
  689TIP3    H223559   3.512   2.976  15.672  0.0698 -1.7445  0.9326
  690TIP3   OH223560   4.080   4.704   5.720  0.6231  0.1215  0.1281
  690TIP3    H123561   4.023   4.649   5.774  0.6460  0.1763  0.2096
  690TIP3    H223562   4.142   4.642   5.680 -1.6274 -0.4360 -2.7749
  691TIP3   OH223563   1.957   3.081  11.388  0.0554  0.4913  0.9378
  691TIP3    H123564   1.939   3.003  11.440 -0.3439  0.1762  0.3463
  691TIP3    H223565   2.051   3.094  11.396  0.3273 -0.7637  0.0845
  692TIP3   OH223566   0.770   1.448   4.820 -0.3031 -0.0302 -0.2579
  692TIP3    H123567   0.781   1.385   4.891 -0.4989  0.7765  0.5002
  692TIP3    H223568   0.858   1.462   4.785  0.0020  0.6465  0.7644
  693TIP3   OH223569   1.581   5.372   3.336 -0.1250 -0.4776  0.0342
  693TIP3    H123570   1.502   5.323   3.315  0.0785 -0.4284 -0.9015
  693TIP3    H223571   1.650   5.332   3.282  0.2014  0.3272 -0.1702
  694TIP3   OH223572   6.708   2.970  13.389  0.1181  0.3554 -0.3760
  694TIP3    H123573   6.658   3.016  13.321  0.8464 -0.5518 -1.5565
  694TIP3    H223574   6.750   2.898  13.343  0.9355 -0.0630  0.9819
  695TIP3   OH223575   5.796   5.551  16.351  0.0824 -0.0493 -0.0305
  695TIP3    H123576   5.837   5.550  16.438 -1.7593  1.8064  0.9468
  695TIP3    H223577   5.708   5.517  16.365 -0.5204  1.0358 -0.9694
  696TIP3   OH223578   5.983   6.049  16.141  0.2618 -0.2092 -0.1232
  696TIP3    H123579   5.918   6.062  16.211  1.1439  0.8726  0.5289
  696TIP3    H223580   5.960   6.115  16.075  2.7237  2.7025  1.6868
  697TIP3   OH223581   4.449   6.370  16.689 -0.4977  0.0111 -0.0111
  697TIP3    H123582   4.427   6.312  16.762 -1.9682  0.5621  0.0184
  697TIP3    H223583   4.384   6.440  16.694 -0.2467  0.3837 -1.4956
  698TIP3   OH223584   2.400   3.963   0.750 -0.2863  0.0983 -0.3466
  698TIP3    H123585   2.354   4.012   0.818 -1.5685  0.6346 -1.5684
  698TIP3    H223586   2.365   3.875   0.756 -0.8375  0.2911 -0.6964
  699TIP3   OH223587   1.765   4.603  11.932  0.0558 -0.9668 -0.2822
  699TIP3    H123588   1.773   4.687  11.887 -1.4390 -0.3886  0.4404
  699TIP3    H223589   1.711   4.550  11.874  1.3457 -1.6006 -0.9329
  700TIP3   OH223590   3.549   2.583  12.489 -0.5364 -0.1319 -0.2776
  700TIP3    H123591   3.453   2.580  12.489 -0.7669  3.1518  0.4872
  700TIP3    H223592   3.576   2.501  12.531 -3.0798 -0.3745  1.0460
  701TIP3   OH223593   3.255   1.204  12.965  0.1980 -0.1162 -0.0053
  701TIP3    H123594   3.266   1.298  12.947  0.0414  0.0914  0.9487
  701TIP3    H223595   3.161   1.191  12.966  0.2176 -0.2424  0.1171
  702TIP3   OH223596   4.946   2.605  16.523  0.1866 -0.3681  0.6133
  702TIP3    H123597   4.889   2.678  16.547 -0.0734 -1.2059  2.7136
  702TIP3    H223598   4.897   2.557  16.457 -0.6116  0.0984  0.8586
  703TIP3   OH223599   3.647   4.974   0.163  0.4204  0.3677 -0.1693
  703TIP3    H123600   3.663   4.945   0.074  2.5088  1.8219 -0.3470
  703TIP3    H223601   3.660   5.069   0.160  2.0973  0.2946  1.9260
  704TIP3   OH223602   1.151   0.552   3.967 -0.1080 -0.3230 -0.5052
  704TIP3    H123603   1.090   0.491   3.925 -1.4191  0.5735  0.0175
  704TIP3    H223604   1.153   0.524   4.059  0.6705 -0.6443 -0.6110
  705TIP3   OH223605   4.490   6.058  16.051 -0.3804 -0.0393  0.1144
  705TIP3    H123606   4.495   6.034  15.958 -1.3338  0.8217 -0.1707
  705TIP3    H223607   4.581   6.061  16.079 -0.0823 -0.4276 -0.7652
  706TIP3   OH223608   5.479   5.393   0.495  0.3895 -0.0603  0.2187
  706TIP3    H123609   5.562   5.413   0.539  0.4048  0.7882 -0.1867
  706TIP3    H223610   5.500   5.397   0.402 -0.4580  1.8099  0.0683
  707TIP3   OH223611   5.823   6.697  11.738  0.4000  0.2652 -0.4470
  707TIP3    H123612   5.878   6.709  11.661 -1.3741 -2.3156 -2.2708
  707TIP3    H223613   5.844   6.608  11.768 -1.2137  0.0388  0.0929
  708TIP3   OH223614   3.642   5.886  10.872  0.2920 -0.5078 -0.1109
  708TIP3    H123615   3.694   5.966  10.875 -0.8969  0.2770  0.2901
  708TIP3    H223616   3.554   5.914  10.897  0.1473 -2.1931  1.4539
  709TIP3   OH223617   0.180   6.661  11.188 -0.0101 -0.5150 -0.5223
  709TIP3    H123618   0.228   6.617  11.259  2.0639 -0.0336 -1.5382
  709TIP3    H223619   0.156   6.590  11.128  0.0646 -0.6810 -0.3582
  710TIP3   OH223620   5.526   3.779  14.388 -0.4946 -0.0417  0.7067
  710TIP3    H123621   5.611   3.737  14.380 -0.7864 -0.3130 -3.2714
  710TIP3    H223622   5.544   3.862  14.431  1.7266 -0.3066  0.3884
  711TIP3   OH223623   0.814   3.543   5.357  0.1133  0.4353 -0.0830
  711TIP3    H123624   0.766   3.617   5.394  1.4050  0.7959  0.9650
  711TIP3    H223625   0.772   3.466   5.394 -0.5353  0.6876 -0.2895
  712TIP3   OH223626   3.852   0.133  16.948  0.4388  0.2693 -0.0007
  712TIP3    H123627   3.914   0.074  16.905 -0.0279  1.2142 -2.0432
  712TIP3    H223628   3.784   0.075  16.980  0.6154 -0.4428 -0.8673
  713TIP3   OH223629   2.349   3.167   5.331 -0.0624 -0.2145 -0.0101
  713TIP3    H123630   2.401   3.214   5.397  1.4163 -1.6072 -0.1304
  713TIP3    H223631   2.278   3.127   5.380 -1.2746  1.9347  0.1223
  714TIP3   OH223632   4.421   2.240  12.086  0.4882  0.3033  0.2751
  714TIP3    H123633   4.479   2.169  12.057 -0.6826  0.4029 -2.5627
  714TIP3    H223634   4.371   2.202  12.158  0.4500 -1.5169 -0.6615
  715TIP3   OH223635   2.580   4.333  15.354 -0.2398 -0.3129 -0.2595
  715TIP3    H123636   2.559   4.240  15.342  2.4693 -1.4311  2.3271
  715TIP3    H223637   2.504   4.369  15.398 -0.8546 -1.6288 -0.1823
  716TIP3   OH223638   0.645   0.545   3.090 -0.7494  0.1164 -0.0495
  716TIP3    H123639   0.705   0.504   3.153  0.4140  0.6719 -0.7541
  716TIP3    H223640   0.585   0.596   3.144 -1.4272 -1.4553  0.7630
  717TIP3   OH223641   3.759   3.008   4.425  0.2398  0.1869  0.2259
  717TIP3    H123642   3.846   3.034   4.454 -0.1951 -0.1178  1.8978
  717TIP3    H223643   3.707   3.088   4.427 -0.3326 -0.1916  2.4553
  718TIP3   OH223644   4.459   6.186  15.226  0.1551  0.1875 -0.0946
  718TIP3    H123645   4.450   6.222  15.138 -1.2851 -1.0556 -0.5083
  718TIP3    H223646   4.370   6.188  15.261  0.9265  2.2471  2.0431
  719TIP3   OH223647   0.035   4.782   5.334  0.6553 -0.1729 -0.0093
  719TIP3    H123648   0.027   4.731   5.415  1.6561 -0.2600  0.0457
  719TIP3    H223649  -0.023   4.857   5.347 -0.4511 -1.0246  0.1173
  720TIP3   OH223650   0.536   0.221  11.261 -0.0111 -0.4920 -0.7400
  720TIP3    H123651   0.452   0.178  11.248 -0.0708 -0.5497 -0.1840
  720TIP3    H223652   0.569   0.236  11.172 -0.1866 -1.2967 -0.9526
  721TIP3   OH223653   5.827   6.171   3.690  0.0235 -0.3702 -0.5958
  721TIP3    H123654   5.746   6.223   3.690  0.0539 -0.2773  1.2643
  721TIP3    H223655   5.897   6.236   3.696  0.3531 -0.3865 -3.1507
  722TIP3   OH223656   4.443   1.473  13.173  0.1925 -0.2099  0.4931
  722TIP3    H123657   4.421   1.470  13.266 -0.9377 -1.4319  0.2147
  722TIP3    H223658   4.408   1.391  13.137  1.2280 -0.0910 -0.8799
  723TIP3   OH223659   0.340   2.375  14.712 -0.5132  0.5113  0.8639
  723TIP3    H123660   0.258   2.421  14.728  0.7427  3.5813 -0.8302
  723TIP3    H223661   0.404   2.444  14.695  2.1789 -1.8018  0.8563
  724TIP3   OH223662   4.668   4.479   3.902  0.1234  0.3728  0.0358
  724TIP3    H123663   4.609   4.440   3.966  1.7680 -1.0750  0.7436
  724TIP3    H223664   4.711   4.551   3.949  0.3576  0.1554  0.1598
  725TIP3   OH223665   2.493   4.019   3.271 -0.0697 -0.2930  0.1274
  725TIP3    H123666   2.498   4.057   3.183 -0.6482  1.4285  0.8056
  725TIP3    H223667   2.401   3.994   3.280 -0.4891  1.4496  0.9792
  726TIP3   OH223668   2.560   3.805  14.540  0.3109 -0.0682  0.2609
  726TIP3    H123669   2.468   3.832  14.529  0.9469  1.9396 -0.7117
  726TIP3    H223670   2.569   3.729  14.483 -0.6651 -0.0536  0.0622
  727TIP3   OH223671   4.148   3.394   4.089 -0.1866  0.0839 -0.2938
  727TIP3    H123672   4.062   3.395   4.131 -0.4797  1.5934 -0.8632
  727TIP3    H223673   4.156   3.306   4.054 -2.0564  0.2626 -1.2950
  728TIP3   OH223674   4.985   4.598   0.342  0.1682  0.1815 -0.6548
  728TIP3    H123675   4.926   4.525   0.362  1.5642 -0.6188  0.7990
  728TIP3    H223676   4.949   4.672   0.390  1.8880 -1.0372  2.8556
  729TIP3   OH223677   4.804   4.812   3.210 -0.4588  0.2424 -0.0031
  729TIP3    H123678   4.804   4.727   3.165 -2.8186 -0.6275  1.4610
  729TIP3    H223679   4.767   4.873   3.146 -1.3049 -0.4208 -0.1621
  730TIP3   OH223680   1.616   2.769  15.060 -0.2758 -0.4531 -0.7008
  730TIP3    H123681   1.697   2.818  15.073 -0.6233  0.0738 -0.5107
  730TIP3    H223682   1.634   2.683  15.098 -0.0066 -0.1387 -0.1009
  731TIP3   OH223683   6.505   5.269  10.972 -0.1111  0.4463 -0.3131
  731TIP3    H123684   6.446   5.255  11.046  2.1731  1.2256  1.7689
  731TIP3    H223685   6.486   5.197  10.912 -2.3282  0.0205  0.8013
  732TIP3   OH223686   5.953   3.122   5.008  0.5744 -0.0650  0.4770
  732TIP3    H123687   5.887   3.062   4.975  1.0152  1.3895 -3.7838
  732TIP3    H223688   6.028   3.067   5.029 -0.0224 -1.2690 -0.4356
  733TIP3   OH223689   4.860   5.479   5.069 -0.2480  0.7204 -0.8144
  733TIP3    H123690   4.809   5.469   5.149  0.6375 -0.9644 -0.4103
  733TIP3    H223691   4.833   5.405   5.014  2.3777 -0.8440 -0.1733
  734TIP3   OH223692   2.154   4.539  12.467 -0.2201 -0.2962  0.1893
  734TIP3    H123693   2.072   4.562  12.423 -0.2156 -1.0168 -0.2184
  734TIP3    H223694   2.195   4.475  12.408  1.2278  0.9579 -0.2294
  735TIP3   OH223695   0.373   5.711   0.426  0.1526  0.6064 -0.2206
  735TIP3    H123696   0.387   5.649   0.354  1.2804  1.5116 -0.8336
  735TIP3    H223697   0.457   5.712   0.473 -0.5982 -0.0278  1.1773
  736TIP3   OH223698   3.988   1.059  13.841 -0.2587  0.0936 -0.3548
  736TIP3    H123699   4.042   1.128  13.803 -0.1131  1.2554  1.8474
  736TIP3    H223700   3.903   1.069  13.797 -0.8713  3.0435  1.2779
  737TIP3   OH223701   5.240   4.224   1.811  0.5274  0.0960 -0.4499
  737TIP3    H123702   5.219   4.155   1.874  2.3930 -0.8177 -0.7785
  737TIP3    H223703   5.334   4.238   1.820  0.5384  1.1657 -1.8373
  738TIP3   OH223704   3.682   4.818   5.961 -0.6876  0.1598  0.0853
  738TIP3    H123705   3.740   4.742   5.952  0.5314  1.0549  0.0175
  738TIP3    H223706   3.692   4.845   6.052 -0.8100  0.4726  0.0054
  739TIP3   OH223707   5.359   0.724   3.876  0.2223  0.3435  0.5981
  739TIP3    H123708   5.389   0.655   3.816 -1.4904  0.3780 -0.3824
  739TIP3    H223709   5.430   0.735   3.938  1.0001 -1.5484  0.1180
  740TIP3   OH223710   2.155   0.402   0.394  0.2779 -0.3988  0.1739
  740TIP3    H123711   2.085   0.350   0.434 -0.2412  0.6870  0.6930
  740TIP3    H223712   2.223   0.405   0.461  0.1423 -0.0774  0.2983
  741TIP3   OH223713   5.433   1.045  15.511  0.4861 -0.7644  0.3432
  741TIP3    H123714   5.375   1.119  15.530  1.4148 -0.2136  1.1144
  741TIP3    H223715   5.407   1.016  15.423 -0.3948 -0.0010  0.3400
  742TIP3   OH223716   2.524   5.172   4.125  0.0988 -0.3071 -0.1521
  742TIP3    H123717   2.570   5.235   4.069  0.2092  0.0960  0.3881
  742TIP3    H223718   2.449   5.221   4.159  0.3441 -0.3829  0.4948
  743TIP3   OH223719   2.923   2.817   1.752  0.3385 -0.0582  0.3933
  743TIP3    H123720   2.885   2.746   1.804  0.9518 -1.0130 -0.4179
  743TIP3    H223721   3.015   2.791   1.741  0.1133 -0.1538 -1.5617
  744TIP3   OH223722   1.373   3.752  16.966 -0.1075  0.8765  0.4731
  744TIP3    H123723   1.343   3.836  16.999 -0.9601  0.8629 -0.2021
  744TIP3    H223724   1.322   3.687  17.015  0.1861  0.7715  0.6434
  745TIP3   OH223725   5.863   3.508   2.453 -0.2154  0.3160  0.4727
  745TIP3    H123726   5.782   3.492   2.502 -0.2368 -0.8102  0.0986
  745TIP3    H223727   5.843   3.584   2.398 -1.3721 -0.5621 -0.3593
  746TIP3   OH223728   5.559   4.379  14.881  0.3934  0.1985  0.0538
  746TIP3    H123729   5.531   4.396  14.792 -0.6791 -1.0634  0.1183
  746TIP3    H223730   5.520   4.450  14.933 -0.2651  0.0825 -0.2745
  747TIP3   OH223731   0.021   4.593  11.830 -0.3124  0.3909 -0.2186
  747TIP3    H123732   0.001   4.595  11.924 -0.2376  0.8687 -0.2089
  747TIP3    H223733  -0.065   4.585  11.788 -0.2387 -1.5954 -0.0754
  748TIP3   OH223734   3.410   0.458   5.605  0.3670  0.3784 -0.1224
  748TIP3    H123735   3.334   0.399   5.607  0.1036  0.7103  1.0462
  748TIP3    H223736   3.371   0.546   5.615  0.8286  0.6529 -0.7119
  749TIP3   OH223737   3.099   1.056  12.500 -0.2165  0.2224  0.0160
  749TIP3    H123738   3.122   0.968  12.470 -0.5480  0.0514  0.2643
  749TIP3    H223739   3.151   1.068  12.580 -0.8703 -0.1138  0.5040
  750TIP3   OH223740   2.350   6.591  13.899 -0.4229  0.1297  0.4611
  750TIP3    H123741   2.268   6.637  13.884  0.1977  0.8484 -0.8639
  750TIP3    H223742   2.411   6.659  13.926 -0.0003 -0.2368  0.4289
  751TIP3   OH223743   0.882   6.366   5.235 -0.1109  0.2189 -0.6662
  751TIP3    H123744   0.916   6.391   5.321 -2.8440  0.0142  0.5745
  751TIP3    H223745   0.898   6.272   5.230 -1.8340 -0.1816  0.6174
  752TIP3   OH223746   6.561   6.502   2.313  0.0791  0.2227 -1.2395
  752TIP3    H123747   6.471   6.481   2.289 -1.1039 -2.0520  3.9103
  752TIP3    H223748   6.558   6.595   2.337 -0.6821  0.3669 -1.8452
  753TIP3   OH223749   4.878   3.840   2.106  0.3867  0.2457  0.3281
  753TIP3    H123750   4.834   3.925   2.103  2.0242  1.2033  1.7398
  753TIP3    H223751   4.971   3.861   2.107  0.8268 -1.5080  1.7519
  754TIP3   OH223752   1.183   0.811   3.835 -0.5352 -0.1520  0.0060
  754TIP3    H123753   1.109   0.754   3.854 -1.3509  0.2005 -1.9356
  754TIP3    H223754   1.259   0.753   3.837 -1.0784 -0.8718  0.1716
  755TIP3   OH223755   5.458   4.355  13.880  0.3334 -0.1331 -0.3025
  755TIP3    H123756   5.494   4.339  13.967  0.8832  0.9323 -0.3160
  755TIP3    H223757   5.485   4.444  13.859  0.4295 -0.4559 -1.6706
  756TIP3   OH223758   1.309   0.322  13.965 -0.6221  0.1572 -0.0639
  756TIP3    H123759   1.398   0.355  13.974 -0.4521 -0.6738  1.6699
  756TIP3    H223760   1.309   0.276  13.881  1.5268 -2.4672  1.2078
  757TIP3   OH223761   0.154   2.222   4.203 -0.3426  0.5813 -0.0796
  757TIP3    H123762   0.232   2.193   4.250 -1.9427 -0.6396  1.9944
  757TIP3    H223763   0.138   2.311   4.235 -2.1615 -0.6806  2.9703
  758TIP3   OH223764   2.438   2.311   6.769 -0.8362  0.6500 -0.2732
  758TIP3    H123765   2.433   2.319   6.674  0.5728 -1.2697 -0.5590
  758TIP3    H223766   2.365   2.255   6.793 -1.1178  1.0331 -0.2214
  759TIP3   OH223767   6.650   2.750   2.308  0.0664 -0.0259 -0.0112
  759TIP3    H123768   6.672   2.810   2.236 -1.8292 -0.2450 -0.8410
  759TIP3    H223769   6.628   2.668   2.264 -0.0664 -0.4865  0.9085
  760TIP3   OH223770   2.492   3.413  13.309 -0.2217 -0.4934  0.5080
  760TIP3    H123771   2.399   3.419  13.332  0.3572  0.4137  2.8862
  760TIP3    H223772   2.500   3.465  13.230 -1.8555 -1.2771 -0.2283
  761TIP3   OH223773   2.131   0.440   3.372 -0.5793  0.2471  0.2622
  761TIP3    H123774   2.185   0.395   3.437  0.0596  1.3302  0.5188
  761TIP3    H223775   2.069   0.374   3.342 -0.9896 -0.2666  2.0942
  762TIP3   OH223776   5.116   6.448   2.499  0.2409 -0.4921 -0.5103
  762TIP3    H123777   5.145   6.490   2.580  0.1967 -1.1884 -0.1216
  762TIP3    H223778   5.196   6.438   2.447  0.0943  0.9833 -1.0496
  763TIP3   OH223779   4.082   1.081  13.386  0.2352 -0.1638 -0.1648
  763TIP3    H123780   4.020   1.130  13.331  0.2818  1.2442  0.9727
  763TIP3    H223781   4.029   1.045  13.457  0.6075  0.6672  0.5610
  764TIP3   OH223782   3.610   1.277   1.201 -0.2805 -0.2541 -0.0846
  764TIP3    H123783   3.520   1.245   1.202 -0.7068  0.8991 -0.4852
  764TIP3    H223784   3.661   1.202   1.168 -1.0483 -0.9743  0.3226
  765TIP3   OH223785   2.507   0.199  12.740 -0.0938 -0.1003 -0.1160
  765TIP3    H123786   2.414   0.222  12.737  0.1911  1.3118  0.8476
  765TIP3    H223787   2.541   0.229  12.655 -0.0234  1.8883  0.5651
  766TIP3   OH223788   4.541   3.776   0.936  0.5446 -0.1952  0.1836
  766TIP3    H123789   4.547   3.839   1.008  0.9312  0.0986 -0.1031
  766TIP3    H223790   4.493   3.702   0.973 -1.0812  0.8009  0.1492
  767TIP3   OH223791   4.982   6.803  13.903 -0.3269 -0.4833 -0.1538
  767TIP3    H123792   4.900   6.835  13.940 -1.6051 -1.0640 -2.3280
  767TIP3    H223793   5.004   6.867  13.835  0.7378 -0.6309  0.0302
  768TIP3   OH223794   6.025   1.514   1.922  0.3125 -0.1286  0.0279
  768TIP3    H123795   6.116   1.485   1.918  0.9162  1.4990  0.7625
  768TIP3    H223796   6.029   1.607   1.897 -1.3109 -0.3011 -1.0036
  769TIP3   OH223797   0.643   5.723   1.804  0.2611 -0.4222 -0.0043
  769TIP3    H123798   0.553   5.698   1.783  0.4736 -0.3592 -1.0338
  769TIP3    H223799   0.634   5.805   1.853 -0.1598  0.7430 -1.9565
  770TIP3   OH223800   6.225   3.569   4.320 -0.2349  0.0743 -0.0536
  770TIP3    H123801   6.235   3.474   4.330 -0.9323  0.2663  4.6219
  770TIP3    H223802   6.131   3.585   4.323 -0.0833  0.9520  0.9369
  771TIP3   OH223803   2.238   1.756   5.635  0.8741  0.1232 -0.8478
  771TIP3    H123804   2.201   1.694   5.572  1.1481  1.2849 -2.2219
  771TIP3    H223805   2.316   1.791   5.591  0.7129  1.4363 -0.1300
  772TIP3   OH223806   0.050   4.810   4.122  0.3813  0.5383 -0.3408
  772TIP3    H123807   0.041   4.786   4.214 -0.4877 -1.5039 -0.8931
  772TIP3    H223808   0.125   4.869   4.119  3.4157 -2.8666  1.1305
  773TIP3   OH223809   4.858   1.277   2.697 -0.6120 -0.7107 -0.0936
  773TIP3    H123810   4.914   1.354   2.692 -1.5461 -0.0003  0.2386
  773TIP3    H223811   4.844   1.263   2.790  0.5756 -2.0682 -0.0704
  774TIP3   OH223812   4.188   6.694   4.405 -0.2765 -0.1503 -0.4011
  774TIP3    H123813   4.211   6.683   4.497 -1.2577 -0.9471 -0.2388
  774TIP3    H223814   4.226   6.618   4.361 -1.0136 -0.5129 -0.4202
  775TIP3   OH223815   4.867   5.982   0.998  0.3263  0.5727 -0.1470
  775TIP3    H123816   4.934   5.926   1.037  1.9297  2.4417 -0.0030
  775TIP3    H223817   4.817   6.015   1.072  0.7316  0.9315 -0.0274
  776TIP3   OH223818   0.633   1.687  15.485  0.1314  0.0918  0.2135
  776TIP3    H123819   0.657   1.744  15.412  0.9156 -0.6340 -0.1064
  776TIP3    H223820   0.587   1.745  15.546  1.1001  1.1396 -0.0027
  777TIP3   OH223821   1.493   5.695   1.877  0.0425 -0.2969  0.4021
  777TIP3    H123822   1.486   5.667   1.786 -1.2985 -0.8850  0.6680
  777TIP3    H223823   1.465   5.787   1.876  0.5260 -0.1510  0.1471
  778TIP3   OH223824   1.260   5.406  11.363 -0.2274 -0.0147 -0.0241
  778TIP3    H123825   1.215   5.423  11.281 -0.6304 -0.2650  0.1466
  778TIP3    H223826   1.192   5.374  11.422 -0.1974  1.3251  0.7894
  779TIP3   OH223827   4.256   5.702  13.714  0.0254 -0.0139  0.5172
  779TIP3    H123828   4.285   5.679  13.625 -1.9703  1.5940 -0.6637
  779TIP3    H223829   4.220   5.621  13.749 -1.2977 -0.2172 -1.1312
  780TIP3   OH223830   5.793   2.850  10.468 -0.5506 -0.2105  0.2080
  780TIP3    H123831   5.796   2.840  10.373 -2.1624 -0.3674  0.1532
  780TIP3    H223832   5.721   2.794  10.496 -0.7465  0.5963  1.4042
  781TIP3   OH223833   6.684   6.535   3.697 -0.3259  0.6619 -0.5999
  781TIP3    H123834   6.600   6.561   3.659 -1.2553 -0.2644  0.7432
  781TIP3    H223835   6.721   6.475   3.632 -1.2145  0.2283 -0.7293
  782TIP3   OH223836   4.938   3.354  14.431 -0.7015 -0.2787 -0.3754
  782TIP3    H123837   4.967   3.267  14.404 -0.1635  0.0774 -0.9777
  782TIP3    H223838   5.001   3.414  14.392  0.5072  0.2610  2.1760
  783TIP3   OH223839   0.716   0.356  13.145 -0.0427  0.0171  0.2269
  783TIP3    H123840   0.749   0.268  13.166 -0.7964  0.1921  2.4744
  783TIP3    H223841   0.636   0.341  13.096  1.1028 -0.4721 -1.5812
  784TIP3   OH223842   2.054   4.234   2.110 -0.0903 -0.4229 -0.0031
  784TIP3    H123843   2.058   4.151   2.157  1.5764  0.0424  0.7322
  784TIP3    H223844   2.060   4.301   2.178 -0.4691  0.2956 -0.6624
  785TIP3   OH223845   3.665   0.793  16.177 -0.2498  0.2769 -0.6839
  785TIP3    H123846   3.623   0.740  16.245  0.2941  1.9409  1.0506
  785TIP3    H223847   3.739   0.740  16.148 -0.7341 -0.6506 -0.2666
  786TIP3   OH223848   5.652   5.956  11.437 -0.6634  0.3259 -0.0744
  786TIP3    H123849   5.573   5.942  11.488 -0.2166 -1.3430  0.2154
  786TIP3    H223850   5.697   6.028  11.481 -0.2691 -1.0859  1.9924
  787TIP3   OH223851   1.515   6.550   4.530 -0.6776 -0.2336  0.5860
  787TIP3    H123852   1.504   6.496   4.452  0.5508 -1.1626  1.0392
  787TIP3    H223853   1.567   6.625   4.500 -1.2072  0.0164  0.2689
  788TIP3   OH223854   3.514   3.417  13.841 -0.1788  0.2308 -0.7437
  788TIP3    H123855   3.480   3.422  13.752  0.4021  1.6552 -0.9222
  788TIP3    H223856   3.609   3.411  13.830 -0.1443 -0.1700 -0.2281
  789TIP3   OH223857   4.394   0.073  16.326 -0.0836 -0.5983 -0.4254
  789TIP3    H123858   4.424  -0.006  16.370 -0.4689 -0.0077  0.9755
  789TIP3    H223859   4.300   0.075  16.343  0.2036  1.1408  1.2842
  790TIP3   OH223860   5.168   1.546   5.995  0.2478 -0.1255 -0.8767
  790TIP3    H123861   5.077   1.574   6.004  0.4185  0.4118 -0.7568
  790TIP3    H223862   5.200   1.538   6.085  0.5889  0.6178 -0.9250
  791TIP3   OH223863   4.933   3.777  15.003 -0.6717  0.1442  0.1487
  791TIP3    H123864   4.961   3.828  14.927  0.8631 -0.7076  0.0996
  791TIP3    H223865   4.896   3.697  14.965 -0.9859  0.2324  0.2719
  792TIP3   OH223866   0.958   4.981  13.911  0.7302  0.2825 -0.2177
  792TIP3    H123867   0.938   5.018  13.997  1.5476  0.8637 -0.2657
  792TIP3    H223868   0.914   5.038  13.848  1.4235  0.7756 -0.2579
  793TIP3   OH223869   2.050   5.175  16.965 -0.3064  0.5023  0.1983
  793TIP3    H123870   2.127   5.232  16.968  1.0142 -1.1464 -0.8375
  793TIP3    H223871   2.010   5.184  17.052  1.1739  1.2431  0.8278
  794TIP3   OH223872   5.739   3.787  13.210  0.1263  0.5932  0.2113
  794TIP3    H123873   5.823   3.749  13.233 -1.0712 -2.0159  0.6449
  794TIP3    H223874   5.695   3.800  13.295  0.0497  1.9490 -0.0055
  795TIP3   OH223875   0.099   3.512   4.285  0.1837 -0.6375 -0.7189
  795TIP3    H123876   0.044   3.573   4.235 -1.3482 -0.1639  1.4214
  795TIP3    H223877   0.188   3.536   4.260 -0.4650  0.4083 -2.2529
  796TIP3   OH223878   1.682   4.487   0.409 -0.3173 -0.1808  0.4262
  796TIP3    H123879   1.660   4.449   0.494  1.5189  1.3596  1.6599
  796TIP3    H223880   1.736   4.421   0.366 -0.2752 -0.4952  0.9545
  797TIP3   OH223881   4.780   1.076  10.982  0.0108 -0.4754  0.3409
  797TIP3    H123882   4.825   0.997  10.953  0.7461 -1.0071  2.7103
  797TIP3    H223883   4.842   1.147  10.965  0.2735 -0.7159  0.2842
  798TIP3   OH223884   0.408   1.440  16.568 -0.2850 -0.0830  0.8088
  798TIP3    H123885   0.430   1.530  16.593 -1.1817 -0.1490  1.9217
  798TIP3    H223886   0.429   1.388  16.646 -2.8304 -0.3459  1.4010
  799TIP3   OH223887   2.276   0.561   4.350  0.3622 -0.0359 -0.5201
  799TIP3    H123888   2.280   0.600   4.438 -0.9967  1.1602 -0.9500
  799TIP3    H223889   2.364   0.525   4.336  0.3516 -1.0680  1.6725
  800TIP3   OH223890   2.671   2.039   0.675  0.3718  0.4654  0.0407
  800TIP3    H123891   2.577   2.020   0.671  0.3488  0.4412  0.5887
  800TIP3    H223892   2.680   2.125   0.635  0.3755 -0.3466 -1.7982
  801TIP3   OH223893   2.935   4.165  11.828 -0.0964  0.0141  0.3697
  801TIP3    H123894   2.922   4.073  11.852  1.4077 -0.4642 -0.5158
  801TIP3    H223895   3.016   4.165  11.778  0.0745  1.8838  0.5865
  802TIP3   OH223896   2.266   1.769   4.595 -0.2892 -0.0338  0.2301
  802TIP3    H123897   2.171   1.755   4.601 -0.3020 -0.7052 -1.0773
  802TIP3    H223898   2.301   1.729   4.674 -1.0764 -0.1287  0.5397
  803TIP3   OH223899   0.252   1.638  15.643  0.1350 -0.1402 -0.1013
  803TIP3    H123900   0.185   1.571  15.634 -1.3010  0.7410  2.8931
  803TIP3    H223901   0.329   1.592  15.676  0.0729 -0.6929 -0.7023
  804TIP3   OH223902   4.300   0.693  12.999 -0.3500  0.3200 -0.0871
  804TIP3    H123903   4.297   0.646  12.916  0.1995  1.1258 -0.5729
  804TIP3    H223904   4.268   0.630  13.063  1.8078 -1.2849 -0.4645
  805TIP3   OH223905   6.491   0.791   1.196 -0.4757 -1.1215 -0.2502
  805TIP3    H123906   6.493   0.768   1.289  2.5444 -1.9995 -0.4035
  805TIP3    H223907   6.528   0.715   1.152 -0.4271 -0.1433 -2.0001
  806TIP3   OH223908   5.195   1.635   4.606  0.1148 -0.3059 -0.2660
  806TIP3    H123909   5.192   1.721   4.565 -1.8841 -0.0706  0.2845
  806TIP3    H223910   5.131   1.583   4.557  0.7983 -1.2787 -0.1499
  807TIP3   OH223911   3.295   4.525   4.424  0.0112 -0.1771 -0.1406
  807TIP3    H123912   3.371   4.500   4.372  0.3841  0.5312  0.0493
  807TIP3    H223913   3.309   4.618   4.445 -0.4288 -0.2840  0.6950
  808TIP3   OH223914   6.550   1.930   2.899 -0.3353 -0.1031  0.0226
  808TIP3    H123915   6.490   1.999   2.868  2.1381  1.8343 -0.8283
  808TIP3    H223916   6.551   1.940   2.994 -1.5838 -0.4127  0.0865
  809TIP3   OH223917   6.581   4.368   2.820 -0.0092 -0.0089 -0.2607
  809TIP3    H123918   6.654   4.364   2.759 -0.9310  0.0103 -1.4147
  809TIP3    H223919   6.548   4.458   2.813  0.2308  0.1688  0.7229
  810TIP3   OH223920   2.575   6.701  13.539 -0.0710  0.2892 -0.6747
  810TIP3    H123921   2.643   6.748  13.491 -1.1100  1.4576 -1.0795
  810TIP3    H223922   2.622   6.648  13.603  1.2044  1.6207 -0.4507
  811TIP3   OH223923   0.575   3.237  11.710 -0.1844 -0.2329 -0.3317
  811TIP3    H123924   0.507   3.249  11.776  0.1587 -1.4069  0.2647
  811TIP3    H223925   0.567   3.145  11.683  0.4452 -0.0853 -1.0730
  812TIP3   OH223926   3.394   0.749   3.880  0.3792  0.2169 -0.5169
  812TIP3    H123927   3.450   0.691   3.828 -0.8350 -1.8769  0.4048
  812TIP3    H223928   3.306   0.714   3.868 -0.3143  1.5205  0.5773
  813TIP3   OH223929   2.862   3.267  10.459 -0.3915 -0.5029 -0.1540
  813TIP3    H123930   2.859   3.352  10.502 -1.6562 -0.1878 -0.8276
  813TIP3    H223931   2.911   3.281  10.378  0.1095 -0.6084  0.1273
  814TIP3   OH223932   4.686   2.025   0.655 -0.4110  0.6082  0.7416
  814TIP3    H123933   4.732   2.063   0.580  1.1516  1.9350  2.2862
  814TIP3    H223934   4.651   2.100   0.703 -4.3382 -0.3260 -0.3029
  815TIP3   OH223935   0.339   6.115   1.978 -0.6136  0.1186 -0.0732
  815TIP3    H123936   0.381   6.061   2.045  2.7474  3.6280  1.0274
  815TIP3    H223937   0.326   6.199   2.020 -0.4459  1.8335 -3.1787
  816TIP3   OH223938   3.172   4.264  12.659 -0.3068 -0.7052  0.4687
  816TIP3    H123939   3.132   4.291  12.576  1.0817  0.9354  0.2645
  816TIP3    H223940   3.158   4.339  12.717  0.1354 -1.1908  1.2132
  817TIP3   OH223941   5.296   4.267  15.710  0.5835  0.3406  0.0518
  817TIP3    H123942   5.361   4.333  15.731  0.5469  0.1856  0.6584
  817TIP3    H223943   5.338   4.211  15.645  0.4966  1.1494 -0.7281
  818TIP3   OH223944   4.515   3.421  15.234 -0.3671  0.1643  0.2248
  818TIP3    H123945   4.466   3.368  15.297 -0.1558  0.8506  0.9864
  818TIP3    H223946   4.511   3.510  15.270 -1.8700  0.9480 -1.7110
  819TIP3   OH223947   2.247   5.727  16.454 -0.1378 -0.0665  0.4352
  819TIP3    H123948   2.320   5.725  16.516  0.7901  1.0099 -0.5802
  819TIP3    H223949   2.199   5.806  16.476  0.4750  0.5871 -0.4879
  820TIP3   OH223950   5.484   2.658  16.230  0.2467 -0.9411  0.5958
  820TIP3    H123951   5.462   2.751  16.235 -0.6404 -1.1595  0.8938
  820TIP3    H223952   5.540   2.651  16.152  1.1694 -0.0087  1.1449
  821TIP3   OH223953   4.680   5.211   0.893  0.2432 -0.1262  0.1357
  821TIP3    H123954   4.773   5.226   0.878  0.1126  0.7724  0.1405
  821TIP3    H223955   4.669   5.116   0.887  0.6096 -0.0911 -3.0734
  822TIP3   OH223956   5.009   2.510  12.498 -0.4252  0.1986 -0.4151
  822TIP3    H123957   5.005   2.596  12.454 -2.6317  1.4864  2.0279
  822TIP3    H223958   4.938   2.513  12.562  1.3911 -2.2750  1.9282
  823TIP3   OH223959   3.042   4.409  11.514  0.0150  0.0179  0.5386
  823TIP3    H123960   3.100   4.464  11.461  1.5650 -1.9259  0.0989
  823TIP3    H223961   2.959   4.409  11.466 -0.0727  1.9923  0.6081
  824TIP3   OH223962   6.302   1.774   0.840 -0.3232 -0.0471 -0.0709
  824TIP3    H123963   6.349   1.856   0.827  2.1822 -1.4289 -0.2292
  824TIP3    H223964   6.211   1.796   0.821  0.3021  2.6127 -0.3756
  825TIP3   OH223965   6.815   5.738  10.869  0.5472  0.2525 -0.0556
  825TIP3    H123966   6.758   5.662  10.881  0.5842  0.0995 -0.7810
  825TIP3    H223967   6.834   5.739  10.775 -1.0796  2.3154 -0.4256
  826TIP3   OH223968   4.907   2.257   0.776  0.2772  0.7285 -0.2617
  826TIP3    H123969   4.999   2.282   0.768  0.5734  1.7168  3.9565
  826TIP3    H223970   4.910   2.172   0.820 -0.9022 -0.2848 -2.0219
  827TIP3   OH223971   4.162   2.101  13.397 -0.4539 -0.5628 -0.4166
  827TIP3    H123972   4.102   2.133  13.464  0.1536  1.3775 -0.7432
  827TIP3    H223973   4.147   2.006  13.394 -1.1455 -0.5664  1.7892
  828TIP3   OH223974   2.524   1.647   4.995  0.1859 -0.5948  0.2076
  828TIP3    H123975   2.507   1.627   5.087  1.0137  0.8802  0.7072
  828TIP3    H223976   2.445   1.620   4.949 -0.1204 -1.6280  1.3003
  829TIP3   OH223977   3.689   2.679  11.994 -0.1541  0.5833  0.1514
  829TIP3    H123978   3.710   2.676  11.901 -0.6253 -0.6183  0.0597
  829TIP3    H223979   3.754   2.623  12.036 -0.5860  0.2553  0.3979
  830TIP3   OH223980   6.619   3.566   2.326 -0.2805 -0.3734  0.0106
  830TIP3    H123981   6.563   3.489   2.340 -0.9845 -0.3016 -1.9507
  830TIP3    H223982   6.576   3.612   2.254  0.3654  1.6543  0.8762
  831TIP3   OH223983   2.604   5.944   1.442 -0.1415 -0.6587 -0.2565
  831TIP3    H123984   2.611   6.008   1.371 -1.7478  1.7114  1.5339
  831TIP3    H223985   2.671   5.971   1.505  0.2334 -1.7749 -0.1523
  832TIP3   OH223986   5.252   4.610   3.775 -0.2239 -0.3169  0.2805
  832TIP3    H123987   5.309   4.687   3.778 -1.1288  0.5264 -1.6779
  832TIP3    H223988   5.167   4.643   3.805 -1.0821  0.0220 -2.2289
  833TIP3   OH223989   5.164   2.169   3.398  0.2104 -0.1147  0.5610
  833TIP3    H123990   5.253   2.135   3.384  0.4446 -0.7472  3.0584
  833TIP3    H223991   5.175   2.263   3.408  0.4395 -0.0514 -0.2814
  834TIP3   OH223992   0.471   6.628  16.728  0.3624  0.2062 -0.5176
  834TIP3    H123993   0.449   6.679  16.650 -0.0674  0.8994  0.0350
  834TIP3    H223994   0.389   6.625  16.778  0.1704 -1.6712 -0.8627
  835TIP3   OH223995   0.811   3.808   1.643 -0.5279  0.0303 -0.3805
  835TIP3    H123996   0.804   3.816   1.547  0.3072  0.7157 -0.4027
  835TIP3    H223997   0.846   3.893   1.671 -3.5268  0.9499  0.8799
  836TIP3   OH223998   3.404   1.497   0.875  0.2840 -0.4466  0.5786
  836TIP3    H123999   3.442   1.529   0.794 -1.9202 -0.2805 -0.4521
  836TIP3    H224000   3.347   1.425   0.848 -0.2169 -0.6257  2.0150
  837TIP3   OH224001   5.998   3.283   4.800  0.3733  0.1119  0.0452
  837TIP3    H124002   6.013   3.225   4.874 -1.5629 -0.0692  0.3429
  837TIP3    H224003   6.076   3.338   4.797  1.0182 -0.6658  1.4697
  838TIP3   OH224004   1.191   4.189   3.074 -0.0744 -0.3195 -0.3418
  838TIP3    H124005   1.263   4.233   3.120  0.7265  0.2960 -2.0896
  838TIP3    H224006   1.152   4.258   3.021 -1.0706 -0.9765 -0.4777
  839TIP3   OH224007   6.203   1.478  11.628 -0.1463 -0.0999 -0.6500
  839TIP3    H124008   6.138   1.498  11.696  1.6813  1.2227  0.8193
  839TIP3    H224009   6.171   1.398  11.587 -1.1334 -1.1971  2.0511
  840TIP3   OH224010   5.488   0.067   4.575 -0.2764  0.3450  0.1285
  840TIP3    H124011   5.579   0.098   4.575 -0.7316  1.9864  2.5940
  840TIP3    H224012   5.493  -0.024   4.547  2.1949  0.2787  0.5884
  841TIP3   OH224013   4.090   3.106   0.640 -0.8161  0.7415 -0.2435
  841TIP3    H124014   4.150   3.064   0.702  0.9055  1.3533 -1.4134
  841TIP3    H224015   4.051   3.034   0.591  1.0271  0.3676 -1.2657
  842TIP3   OH224016   1.069   6.326  12.700 -0.5160  0.8006  0.2764
  842TIP3    H124017   1.145   6.335  12.643 -0.1127 -0.3432  0.6119
  842TIP3    H224018   1.025   6.247  12.670 -1.4108  1.2789  0.2874
  843TIP3   OH224019   4.499   3.975  15.586 -0.1269 -0.0030 -0.4118
  843TIP3    H124020   4.463   3.895  15.624  2.1048 -0.2528  1.3862
  843TIP3    H224021   4.530   3.949  15.499 -1.5390 -0.4721 -0.7963
  844TIP3   OH224022   2.060   4.443   4.734  0.0103 -0.3300  0.4413
  844TIP3    H124023   2.086   4.364   4.687 -1.1685 -0.7527  0.4683
  844TIP3    H224024   1.986   4.416   4.789 -1.2536  1.0326 -0.4845
  845TIP3   OH224025   3.501   4.730  16.377  0.3256 -0.1788  0.0583
  845TIP3    H124026   3.528   4.679  16.454  1.2867 -0.4844 -0.4625
  845TIP3    H224027   3.583   4.761  16.338 -0.1656  0.3006 -0.6244
  846TIP3   OH224028   1.497   5.614  12.618 -0.0490 -0.1759  0.3894
  846TIP3    H124029   1.488   5.642  12.709 -4.2211 -0.5733  0.2746
  846TIP3    H224030   1.491   5.695  12.567  0.2062 -0.1631  0.3759
  847TIP3   OH224031   5.611   2.629  13.916 -0.1913 -0.0845  0.1275
  847TIP3    H124032   5.522   2.629  13.950 -0.0816  0.4778  0.4279
  847TIP3    H224033   5.608   2.569  13.842 -1.5065  2.0169 -1.6401
  848TIP3   OH224034   1.293   6.598  11.529  0.1302 -0.3238 -0.0419
  848TIP3    H124035   1.273   6.606  11.435 -0.3617  1.4370  0.1827
  848TIP3    H224036   1.389   6.599  11.532  0.1488  0.5839 -0.4766
  849TIP3   OH224037   1.009   1.900   4.557 -0.2881  0.2490  0.2496
  849TIP3    H124038   0.915   1.889   4.542  0.3092 -0.4259 -4.1418
  849TIP3    H224039   1.045   1.812   4.548  1.0267  0.8861 -0.9463
  850TIP3   OH224040   4.549   0.706   5.477 -0.0174 -0.1457 -0.1831
  850TIP3    H124041   4.568   0.762   5.552 -0.5692  1.0049 -0.8623
  850TIP3    H224042   4.503   0.764   5.416 -1.3895 -1.5643 -0.5659
  851TIP3   OH224043   2.757   2.862  10.960  0.1304  0.1235 -0.3931
  851TIP3    H124044   2.778   2.779  10.918  1.0883  1.7893 -3.5545
  851TIP3    H224045   2.663   2.874  10.943 -0.2023 -0.5956  0.7795
  852TIP3   OH224046   4.547   2.645  15.041  0.0547  0.1303 -0.2257
  852TIP3    H124047   4.545   2.707  14.968  2.0703 -0.4162 -0.8217
  852TIP3    H224048   4.567   2.699  15.118 -0.5511  0.5072 -0.3264
  853TIP3   OH224049   5.128   0.859   3.360 -0.1296 -0.0489  0.1291
  853TIP3    H124050   5.129   0.952   3.335 -1.0333  0.5350  2.0726
  853TIP3    H224051   5.042   0.846   3.400 -0.2979 -1.9351 -0.7409
  854TIP3   OH224052   2.083   6.794  10.659 -0.1600 -0.0933 -0.3659
  854TIP3    H124053   2.090   6.777  10.753 -0.3933  1.6665  0.0048
  854TIP3    H224054   2.126   6.878  10.646 -0.9316  0.1311 -1.6881
  855TIP3   OH224055   4.858   3.520   5.221  0.3067 -0.3322  0.0851
  855TIP3    H124056   4.873   3.469   5.301 -0.8943  1.1139  1.2661
  855TIP3    H224057   4.944   3.557   5.200  0.3353  0.5522  1.6311
  856TIP3   OH224058   5.890   3.347   6.307  0.1013  0.6931  0.2126
  856TIP3    H124059   5.838   3.413   6.260 -1.2302 -1.6683 -1.8792
  856TIP3    H224060   5.826   3.284   6.338  1.2234  0.9087  3.2817
  857TIP3   OH224061   1.434   5.444   4.742 -0.0792 -0.3774  0.2033
  857TIP3    H124062   1.508   5.492   4.703  0.3776  0.6079  2.1267
  857TIP3    H224063   1.468   5.357   4.761  1.3446  0.6292  2.8616
  858TIP3   OH224064   0.153   6.699   3.742  0.1986  0.3589 -0.3669
  858TIP3    H124065   0.187   6.643   3.812  0.5792  0.8999 -0.1102
  858TIP3    H224066   0.156   6.644   3.664 -0.1914 -0.2376  0.0313
  859TIP3   OH224067   0.737   1.612  13.660  0.7730 -0.3560  0.1168
  859TIP3    H124068   0.746   1.680  13.727 -0.3224  1.3349 -1.3721
  859TIP3    H224069   0.807   1.630  13.598  0.8614 -0.9956  0.0228
  860TIP3   OH224070   4.763   2.859  15.976  0.4348  0.0653  0.8160
  860TIP3    H124071   4.740   2.799  15.906  1.2898 -1.0143  1.4256
  860TIP3    H224072   4.755   2.947  15.938  0.2774 -0.4802 -0.4199
  861TIP3   OH224073   4.021   2.622  13.082  0.1496 -0.2504  0.4967
  861TIP3    H124074   3.988   2.645  12.995  0.2293  0.9923  0.7845
  861TIP3    H224075   4.011   2.527  13.087  0.7795 -0.4399 -1.1351
  862TIP3   OH224076   2.498   5.487  16.355  0.6708 -0.1272 -0.1468
  862TIP3    H124077   2.447   5.452  16.428 -0.1806  0.2106 -0.5690
  862TIP3    H224078   2.570   5.534  16.397 -0.6899  1.4312  0.5582
  863TIP3   OH224079   4.609   4.909  15.674 -0.1800 -0.3493  0.2224
  863TIP3    H124080   4.579   4.992  15.637 -0.0970 -0.5581 -0.3194
  863TIP3    H224081   4.703   4.909  15.658 -0.2568 -0.7804 -0.2480
  864TIP3   OH224082   6.651   5.304   3.097  0.1075  0.0965  0.4772
  864TIP3    H124083   6.731   5.353   3.081  0.4982 -0.5580  0.3898
  864TIP3    H224084   6.602   5.310   3.015  1.4213 -1.9804 -0.5381
  865TIP3   OH224085   2.565   3.334   1.619 -0.4511  0.1056  0.7809
  865TIP3    H124086   2.637   3.397   1.621 -0.6376  0.4078 -0.6289
  865TIP3    H224087   2.585   3.277   1.545 -0.9839 -0.6426  1.2022
  866TIP3   OH224088   1.280   0.862   1.713 -0.1441  0.0660 -0.0711
  866TIP3    H124089   1.298   0.774   1.747 -0.4169  0.6602  1.7457
  866TIP3    H224090   1.363   0.891   1.676 -0.2776 -1.2723 -1.5188
  867TIP3   OH224091   1.245   3.601   3.791  0.3372  0.0677  0.0808
  867TIP3    H124092   1.195   3.573   3.714 -0.7379  1.1619  0.3421
  867TIP3    H224093   1.335   3.606   3.761  0.1856 -1.1415 -0.6401
  868TIP3   OH224094   6.408   5.409  16.411  0.2147 -0.2869  0.5619
  868TIP3    H124095   6.352   5.485  16.397  0.0762 -0.7229 -1.6327
  868TIP3    H224096   6.496   5.445  16.415 -0.0549  0.2504  2.5436
  869TIP3   OH224097   4.849   0.483   4.518  0.0962  0.2295  0.0068
  869TIP3    H124098   4.861   0.418   4.587  0.1801 -0.5443 -0.7204
  869TIP3    H224099   4.809   0.435   4.446  0.2302  0.9632 -0.5760
  870TIP3   OH224100   2.392   1.759  14.570 -0.1158 -0.2524 -0.6082
  870TIP3    H124101   2.371   1.798  14.655  0.0304  2.0747 -1.5566
  870TIP3    H224102   2.308   1.751  14.525 -0.1757 -1.3339 -0.3172
  871TIP3   OH224103   3.733   5.837   1.195  0.4751 -0.2972  0.1511
  871TIP3    H124104   3.793   5.891   1.246  1.5802 -0.5865 -0.8251
  871TIP3    H224105   3.772   5.749   1.197 -1.1261 -1.0370  1.4494
  872TIP3   OH224106   3.148   1.815  15.589  0.3363 -0.2859 -0.0864
  872TIP3    H124107   3.098   1.862  15.522 -1.8907 -1.3743  0.7129
  872TIP3    H224108   3.084   1.796  15.657  2.0485 -1.1214  1.3646
  873TIP3   OH224109   0.751   5.330   5.611  0.4976 -0.4755  0.2373
  873TIP3    H124110   0.728   5.332   5.518  2.1245  0.9388 -0.1724
  873TIP3    H224111   0.699   5.258   5.647 -1.3080 -0.0825 -1.4436
  874TIP3   OH224112   3.316   5.120  12.132 -0.1123 -0.4556 -0.4062
  874TIP3    H124113   3.385   5.166  12.180 -0.0074 -0.4764 -0.5384
  874TIP3    H224114   3.295   5.178  12.059 -1.6973  0.5494  0.7817
  875TIP3   OH224115   6.369   5.334   0.320  0.3389 -0.7060  0.0166
  875TIP3    H124116   6.419   5.302   0.395  0.9196 -1.0740 -0.5136
  875TIP3    H224117   6.346   5.424   0.343 -1.2323 -1.4319  1.4826
  876TIP3   OH224118   1.162   6.826  13.066  0.3335  0.0440  0.3513
  876TIP3    H124119   1.221   6.786  13.002  0.4471  3.1310 -1.7011
  876TIP3    H224120   1.076   6.792  13.043  0.7095 -1.0034  0.4150
  877TIP3   OH224121   1.531   4.151   2.107 -0.3450 -0.1848 -0.6000
  877TIP3    H124122   1.601   4.086   2.105 -1.3455 -1.3017 -0.1784
  877TIP3    H224123   1.479   4.129   2.184  0.4634  2.4189  0.8182
  878TIP3   OH224124   0.265   2.204   5.491  0.1394 -0.2876 -0.4961
  878TIP3    H124125   0.251   2.121   5.445 -1.0654 -0.6504  0.4685
  878TIP3    H224126   0.355   2.229   5.470  0.3403 -1.5575 -1.2349
  879TIP3   OH224127   5.508   2.625   0.467  0.0318  0.1170 -0.5081
  879TIP3    H124128   5.419   2.591   0.467  0.1570 -0.2181 -0.8883
  879TIP3    H224129   5.560   2.556   0.426  0.4559  0.3342 -0.3401
  880TIP3   OH224130   5.972   2.598   4.759  0.0805  0.0923  0.3985
  880TIP3    H124131   6.029   2.672   4.780 -0.0808  0.3872 -0.1857
  880TIP3    H224132   6.032   2.525   4.744  0.1733 -0.7134  3.8768
  881TIP3   OH224133   6.037   1.271   5.722  0.8792  0.5237  0.0052
  881TIP3    H124134   6.050   1.192   5.775 -0.5341  0.1476 -0.1674
  881TIP3    H224135   5.956   1.309   5.756  0.9462  1.2867 -0.6782
  882TIP3   OH224136   1.976   4.736  11.665  0.0809 -0.1934  0.4877
  882TIP3    H124137   2.032   4.797  11.713 -0.0499 -0.3897  0.8964
  882TIP3    H224138   1.887   4.769  11.679  0.1295  0.4065 -0.5798
  883TIP3   OH224139   1.950   3.323   0.252  0.2197 -0.1887  0.2349
  883TIP3    H124140   1.929   3.273   0.331  1.6138  0.7274  1.2214
  883TIP3    H224141   1.936   3.414   0.277  0.9254  0.1280 -0.4888
  884TIP3   OH224142   1.315   4.947  14.693 -0.3850 -0.4054  1.1012
  884TIP3    H124143   1.273   4.904  14.618 -0.1736 -1.0190  1.3321
  884TIP3    H224144   1.262   4.921  14.768  0.0702 -0.7235  1.3178
  885TIP3   OH224145   3.423   6.743  11.143 -0.2449  0.3987  0.6364
  885TIP3    H124146   3.508   6.746  11.187  0.2203 -1.0266 -0.0800
  885TIP3    H224147   3.424   6.817  11.083 -1.1666  2.8228  3.3608
  886TIP3   OH224148   1.171   0.417   2.780  0.1031 -0.3217  0.5146
  886TIP3    H124149   1.104   0.422   2.848  0.6454  1.8537  0.9627
  886TIP3    H224150   1.254   0.434   2.826  0.2154  5.0165 -0.9358
  887TIP3   OH224151   2.487   6.554  15.225  0.8104 -0.0825 -0.9328
  887TIP3    H124152   2.544   6.624  15.256  0.0062  0.0870  0.2276
  887TIP3    H224153   2.485   6.491  15.298 -1.2632  0.3969 -0.5273
  888TIP3   OH224154   3.783   0.454  15.804 -0.2999 -0.6057  0.2616
  888TIP3    H124155   3.740   0.527  15.760  0.9913 -0.2394 -0.4371
  888TIP3    H224156   3.727   0.379  15.787 -0.0473 -0.3972 -1.7115
  889TIP3   OH224157   5.337   5.357  16.427  0.2079 -0.4856  0.0527
  889TIP3    H124158   5.267   5.344  16.491 -1.0589 -0.5097 -1.2948
  889TIP3    H224159   5.376   5.271  16.416 -0.3346 -0.7192 -0.0644
  890TIP3   OH224160   2.324   2.242   3.863 -0.0903 -0.4387  0.5828
  890TIP3    H124161   2.248   2.210   3.912  0.2025 -1.1628  0.5741
  890TIP3    H224162   2.300   2.331   3.836 -1.0406 -0.7635  0.3446
  891TIP3   OH224163   2.375   5.162  10.610 -0.2450 -0.4960  0.2825
  891TIP3    H124164   2.371   5.206  10.525 -2.7080 -0.6339  0.2532
  891TIP3    H224165   2.468   5.157  10.630  0.6635 -2.6123 -3.4972
  892TIP3   OH224166   5.857   1.368   5.899  0.3274 -0.8253  0.1456
  892TIP3    H124167   5.767   1.380   5.929 -0.5598 -1.9110 -1.8943
  892TIP3    H224168   5.886   1.456   5.876 -0.6702 -0.5989 -0.3153
  893TIP3   OH224169   1.107   6.781  15.630 -0.8938  0.3080  0.3423
  893TIP3    H124170   1.113   6.715  15.561  0.2160  0.4129  0.3143
  893TIP3    H224171   1.056   6.740  15.699 -0.1191 -0.6236  0.3718
  894TIP3   OH224172   1.926   1.833  11.370 -0.0481 -0.0224 -0.0114
  894TIP3    H124173   1.853   1.889  11.394 -0.1525 -0.2890  0.2953
  894TIP3    H224174   1.997   1.859  11.428 -0.0660 -0.1377  0.0623
  895TIP3   OH224175   6.822   2.340   0.462 -0.7718 -0.0444  0.4693
  895TIP3    H124176   6.853   2.395   0.533  1.9759 -1.1368  0.2343
  895TIP3    H224177   6.901   2.310   0.418 -2.3145 -0.6947 -2.0938
  896TIP3   OH224178   3.144   2.735   3.755 -0.4601 -0.1092  0.0050
  896TIP3    H124179   3.102   2.653   3.782 -2.0063  0.5448 -0.2898
  896TIP3    H224180   3.237   2.718   3.764 -0.7358 -1.9334 -0.1077
  897TIP3   OH224181   2.020   3.993  12.551 -0.0014  0.0191 -0.1469
  897TIP3    H124182   1.935   4.025  12.579  0.9781  1.8036  0.9522
  897TIP3    H224183   2.084   4.046  12.599  1.7501 -1.4645 -0.6851
  898TIP3   OH224184   0.891   0.486  15.117 -1.0156 -0.5550  0.3812
  898TIP3    H124185   0.867   0.534  15.196  0.1891 -0.8946  0.9737
  898TIP3    H224186   0.948   0.415  15.148  1.3904  0.6597 -0.9969
  899TIP3   OH224187   5.095   4.575  15.777 -0.4234  0.4699 -0.2841
  899TIP3    H124188   5.178   4.611  15.808 -0.1267  1.3427 -1.9515
  899TIP3    H224189   5.102   4.481  15.792  0.6598  0.5906  0.0602
  900TIP3   OH224190   3.771   4.333  14.474 -1.0750  0.2604  0.1446
  900TIP3    H124191   3.786   4.316  14.381 -0.2910  0.2518  0.2670
  900TIP3    H224192   3.775   4.428  14.482 -1.9030  0.3083  0.0490
  901TIP3   OH224193   4.334   3.334   1.202 -0.1393 -0.0015 -0.3159
  901TIP3    H124194   4.353   3.261   1.261 -0.8622 -1.0305 -1.3023
  901TIP3    H224195   4.300   3.403   1.259 -0.0614 -0.6732  0.5662
  902TIP3   OH224196   5.941   4.068   1.339 -0.7565 -0.3888 -0.2342
  902TIP3    H124197   5.915   3.992   1.392 -1.4956 -0.7233 -1.0539
  902TIP3    H224198   5.864   4.086   1.285 -0.6902  1.1153  0.1277
  903TIP3   OH224199   4.667   2.860   0.974  0.2779 -0.4922 -0.0343
  903TIP3    H124200   4.652   2.918   1.050 -0.3512 -0.9508  0.1997
  903TIP3    H224201   4.755   2.882   0.945 -0.9136  2.6384 -1.7261
  904TIP3   OH224202   6.645   0.602   1.001 -0.3467 -0.6659 -0.2024
  904TIP3    H124203   6.723   0.646   0.968 -0.4339 -1.1480 -1.1014
  904TIP3    H224204   6.674   0.513   1.021 -0.3918 -0.4975  0.6734
  905TIP3   OH224205   3.576   4.175  12.284 -0.0122 -0.2789  0.1023
  905TIP3    H124206   3.531   4.093  12.262  1.0788 -0.1959 -2.9623
  905TIP3    H224207   3.506   4.233  12.315 -1.0801 -1.8002  0.6825
  906TIP3   OH224208   5.274   0.153  15.365  0.4015  0.1882 -0.4157
  906TIP3    H124209   5.311   0.065  15.355  1.5596  0.7913 -1.9259
  906TIP3    H224210   5.339   0.200  15.417  0.9164  0.7390 -1.5107
  907TIP3   OH224211   0.936   0.824   0.111  0.4232 -0.0013  0.2194
  907TIP3    H124212   0.909   0.808   0.021 -0.5748  0.1909  0.4738
  907TIP3    H224213   0.934   0.737   0.152 -2.5259  0.3005  0.9358
  908TIP3   OH224214   0.984   3.900   3.176 -0.2206  0.1556 -0.0518
  908TIP3    H124215   0.902   3.918   3.130  0.5701  1.0962 -1.1172
  908TIP3    H224216   0.968   3.930   3.265 -0.6377  1.4536 -0.5472
  909TIP3   OH224217   4.096   1.998  16.598 -0.0125  0.2466  0.3329
  909TIP3    H124218   4.026   1.935  16.583 -0.7248  1.5695 -2.5447
  909TIP3    H224219   4.129   2.019  16.511  2.7108  1.1474  1.4481
  910TIP3   OH224220   2.080   4.039  13.405  0.8716  0.4808  0.1932
  910TIP3    H124221   2.155   4.038  13.346  1.4593  0.6574  0.9245
  910TIP3    H224222   2.096   4.113  13.463 -0.1234  0.8257  0.0412
  911TIP3   OH224223   3.444   5.125  10.853  0.0958  0.5667 -0.6181
  911TIP3    H124224   3.464   5.203  10.904  2.7941 -1.0205  0.9990
  911TIP3    H224225   3.481   5.143  10.766 -0.0313  1.3793 -0.5140
  912TIP3   OH224226   0.153   4.525   3.988 -0.3764 -0.1836  0.5853
  912TIP3    H124227   0.177   4.437   3.958  0.6743  0.3736 -0.2938
  912TIP3    H224228   0.060   4.532   3.968 -0.7350 -1.4898  1.6893
  913TIP3   OH224229   1.398   2.775  13.430  0.6701 -0.0423 -0.2336
  913TIP3    H124230   1.357   2.763  13.516 -2.0640  0.0105 -1.4409
  913TIP3    H224231   1.429   2.865  13.432 -1.0925  0.6009  0.0726
  914TIP3   OH224232   4.059   6.194   4.066  0.2573  0.0991  0.1809
  914TIP3    H124233   4.061   6.099   4.057 -1.5445  0.1638 -1.8974
  914TIP3    H224234   4.145   6.223   4.037  0.1078 -0.8380 -1.3317
  915TIP3   OH224235   6.409   0.021   3.250 -0.6671 -0.6387 -0.4496
  915TIP3    H124236   6.331   0.002   3.303 -0.6991  1.3011  0.2893
  915TIP3    H224237   6.480   0.026   3.313 -0.3467 -0.2210 -0.8381
  916TIP3   OH224238   1.248   0.642  16.361  0.0326  0.0421  0.2709
  916TIP3    H124239   1.173   0.586  16.382 -0.5246  1.1872  1.4738
  916TIP3    H224240   1.314   0.618  16.426 -0.1512  0.6365  0.6876
  917TIP3   OH224241   6.459   4.806  10.296  0.1847  0.0163  0.0445
  917TIP3    H124242   6.374   4.836  10.329 -0.3635 -0.0466 -1.2467
  917TIP3    H224243   6.521   4.829  10.365 -0.8619  0.1832  0.9552
  918TIP3   OH224244   6.344   4.406  12.316  0.0810  0.0912 -0.8126
  918TIP3    H124245   6.369   4.465  12.387 -0.4370  0.8564 -1.2574
  918TIP3    H224246   6.315   4.326  12.361 -1.2707  0.9444 -0.0898
  919TIP3   OH224247   6.796   4.311  12.150 -0.0949  0.8748  0.2766
  919TIP3    H124248   6.779   4.221  12.178  1.7555  0.4967  0.2593
  919TIP3    H224249   6.726   4.362  12.191 -1.6910 -0.6541 -0.4123
  920TIP3   OH224250   0.017   3.113  12.149 -0.2637 -0.2246  0.0476
  920TIP3    H124251   0.100   3.161  12.154  0.4365 -1.3635 -0.2184
  920TIP3    H224252  -0.007   3.116  12.056 -1.2396  1.2357  0.3149
  921TIP3   OH224253   3.189   4.433   5.098  0.0330 -0.3616  0.0744
  921TIP3    H124254   3.194   4.421   5.193 -1.3918 -1.0487  0.0850
  921TIP3    H224255   3.280   4.425   5.068  0.2820 -2.2143  1.1654
  922TIP3   OH224256   4.667   6.285  16.363 -0.0480 -0.4942  0.3250
  922TIP3    H124257   4.754   6.245  16.353 -0.1476 -1.0636  1.4802
  922TIP3    H224258   4.609   6.211  16.381 -0.7565 -0.1001 -0.2692
  923TIP3   OH224259   2.328   3.440  12.156 -0.0450 -0.1391  1.0928
  923TIP3    H124260   2.256   3.431  12.093  1.6448  0.4182 -1.0641
  923TIP3    H224261   2.305   3.516  12.208  0.0316  1.5495 -1.1760
  924TIP3   OH224262   3.688   0.558  15.560 -0.4376 -0.1527 -0.4267
  924TIP3    H124263   3.639   0.628  15.517 -1.6479  0.1920  1.4064
  924TIP3    H224264   3.777   0.592  15.567 -0.0617 -0.4075 -2.9771
  925TIP3   OH224265   3.832   6.474  15.181  0.5114 -0.0845  0.3354
  925TIP3    H124266   3.770   6.545  15.165  2.0804  1.3390  0.2928
  925TIP3    H224267   3.808   6.407  15.116 -0.6036  0.6597 -0.0583
  926TIP3   OH224268   3.577   4.521   3.962  0.0033 -0.0581 -0.1811
  926TIP3    H124269   3.580   4.613   3.935  1.5953 -0.2332 -0.7419
  926TIP3    H224270   3.669   4.492   3.957 -0.2227 -1.2336  1.5395
  927TIP3   OH224271   6.413   0.907  16.798 -0.5394  0.1544 -0.1786
  927TIP3    H124272   6.407   0.991  16.753 -1.1932  0.0866 -0.2255
  927TIP3    H224273   6.374   0.922  16.884 -0.6709 -0.1028 -0.1916
  928TIP3   OH224274   4.900   2.464  15.908  0.5440  0.1115  0.3150
  928TIP3    H124275   4.970   2.528  15.919  1.7384 -1.0363 -0.4131
  928TIP3    H224276   4.902   2.441  15.816 -0.4798 -0.3010  0.3814
  929TIP3   OH224277   5.594   3.895   3.992 -0.4603  0.2149 -0.3396
  929TIP3    H124278   5.654   3.957   4.032 -0.3420  0.2120 -0.5120
  929TIP3    H224279   5.618   3.810   4.030  1.0526 -0.1369 -1.9619
  930TIP3   OH224280   0.839   2.215  14.822  0.2545 -0.1881  0.3183
  930TIP3    H124281   0.807   2.150  14.761  0.3359 -0.6648  0.7769
  930TIP3    H224282   0.921   2.246  14.784 -0.4240  0.5847 -0.5450
  931TIP3   OH224283   2.284   0.024  14.396 -0.2881 -0.1742 -0.4066
  931TIP3    H124284   2.315   0.023  14.306  0.6550 -2.8853 -0.1426
  931TIP3    H224285   2.364   0.026  14.449 -0.8129  0.7463  0.3736
  932TIP3   OH224286   3.482   0.897  17.035  0.9110 -0.0297  0.5041
  932TIP3    H124287   3.412   0.865  17.092 -2.0315  1.3893 -2.0360
  932TIP3    H224288   3.458   0.866  16.947  2.2046  2.3921 -0.8149
  933TIP3   OH224289   2.329   6.340  11.768  0.5187 -0.0191  0.2088
  933TIP3    H124290   2.336   6.245  11.776 -0.0082  0.0601  1.9437
  933TIP3    H224291   2.405   6.374  11.814  1.3053  0.4254 -1.3322
  934TIP3   OH224292   6.045   2.929  13.075  0.2206  0.2301 -0.3230
  934TIP3    H124293   6.112   2.952  13.139 -0.0752 -0.2212  0.1557
  934TIP3    H224294   5.987   2.868  13.121 -0.4611  0.5320 -0.7610
  935TIP3   OH224295   6.182   5.778  13.306 -0.2798  0.3584  0.1762
  935TIP3    H124296   6.159   5.870  13.293  0.7964  0.6473  0.2013
  935TIP3    H224297   6.148   5.757  13.392 -0.2183  0.8397  0.3223
  936TIP3   OH224298   4.212   0.995   1.342  0.2890  0.0981  0.3849
  936TIP3    H124299   4.285   0.934   1.351 -1.1012 -1.4822  1.9662
  936TIP3    H224300   4.136   0.938   1.329 -0.8609  1.5973  0.2950
  937TIP3   OH224301   1.271   3.321   4.200  0.4555 -0.4417 -0.1153
  937TIP3    H124302   1.269   3.225   4.196  0.7570 -0.5271  1.4074
  937TIP3    H224303   1.351   3.345   4.154  1.2113 -1.0221  0.8660
  938TIP3   OH224304   3.788   1.084   3.680 -0.1700 -0.2396 -0.1796
  938TIP3    H124305   3.743   1.003   3.703  1.1135 -1.5418 -1.9877
  938TIP3    H224306   3.881   1.063   3.689  0.1966  0.8998 -1.0248
  939TIP3   OH224307   0.596   6.338   1.210  0.3630 -0.0295 -0.0028
  939TIP3    H124308   0.586   6.312   1.118  0.1606 -0.8013  0.2335
  939TIP3    H224309   0.588   6.434   1.208  1.4375  0.0672 -0.9285
  940TIP3   OH224310   0.536   3.692   3.471  0.0349 -0.4887 -0.5388
  940TIP3    H124311   0.483   3.771   3.483  1.4263  0.6813 -1.7187
  940TIP3    H224312   0.472   3.622   3.460 -1.2637  0.2462  1.5342
  941TIP3   OH224313   0.372   4.214  10.379  0.4369  0.3159  0.0447
  941TIP3    H124314   0.309   4.284  10.361  1.2811  1.0728 -0.0867
  941TIP3    H224315   0.428   4.250  10.448 -0.0671 -0.8460  1.0879
  942TIP3   OH224316   5.282   4.384  12.562 -0.3593 -0.2213 -0.2821
  942TIP3    H124317   5.266   4.478  12.566 -0.4272 -0.2544  0.2851
  942TIP3    H224318   5.240   4.356  12.481 -0.9747  0.1165 -0.0860
  943TIP3   OH224319   2.795   2.750  16.086  0.1140  0.0736  0.0052
  943TIP3    H124320   2.774   2.816  16.152  4.2676 -1.9059  3.8126
  943TIP3    H224321   2.716   2.696  16.080 -1.3004  1.8771  1.3129
  944TIP3   OH224322   4.968   5.220   0.894  0.3684 -0.7855  0.0988
  944TIP3    H124323   5.013   5.185   0.971  0.9423  1.9598  1.1350
  944TIP3    H224324   5.033   5.216   0.824  0.7992 -0.7358  0.4920
  945TIP3   OH224325   5.208   4.486   3.259 -0.4593  0.1010 -0.1533
  945TIP3    H124326   5.222   4.524   3.346  0.8070  1.4894 -0.9110
  945TIP3    H224327   5.190   4.561   3.203  1.1281 -0.4875 -1.5190
  946TIP3   OH224328   3.440   5.713  15.158  0.1777  0.6574 -0.2072
  946TIP3    H124329   3.345   5.704  15.153 -0.0545 -0.3118  3.1956
  946TIP3    H224330   3.474   5.640  15.107 -0.9242  0.5549 -0.8223
  947TIP3   OH224331   1.734   1.060  16.392  0.0397 -0.5843 -0.1456
  947TIP3    H124332   1.696   0.975  16.414 -0.5388 -0.3125 -0.0685
  947TIP3    H224333   1.712   1.116  16.467  1.2326 -0.6041  0.2494
  948TIP3   OH224334   0.244   4.554   5.760  0.1787 -0.2184  0.7613
  948TIP3    H124335   0.194   4.614   5.706  1.3256  0.6183  0.6029
  948TIP3    H224336   0.187   4.535   5.834 -0.4227  0.6042  0.5183
  949TIP3   OH224337   2.269   0.724   0.404 -0.2266  0.4051 -0.0820
  949TIP3    H124338   2.330   0.669   0.453 -1.3045 -0.5444  0.2540
  949TIP3    H224339   2.293   0.814   0.427  1.1094  0.0576 -0.0693
  950TIP3   OH224340   1.475   5.875  12.549 -0.6983 -0.2532  0.1117
  950TIP3    H124341   1.490   5.880  12.454 -2.1077  1.7842 -0.0942
  950TIP3    H224342   1.554   5.911  12.588 -0.7780  0.5020 -0.3988
  951TIP3   OH224343   2.949   1.297   3.856  0.2064 -0.3298 -0.1659
  951TIP3    H124344   3.034   1.271   3.890  0.2386  0.0635  0.0568
  951TIP3    H224345   2.888   1.280   3.927  0.3223  0.8111  0.2355
  952TIP3   OH224346   3.240   5.840  11.751  0.0648 -0.0188 -0.0413
  952TIP3    H124347   3.165   5.801  11.795 -1.2336  1.7669 -0.5836
  952TIP3    H224348   3.230   5.815  11.659 -0.0221  0.4507 -0.1606
  953TIP3   OH224349   5.857   4.423   3.188  0.6485 -0.4691 -0.3510
  953TIP3    H124350   5.771   4.441   3.150  0.9262  1.4298 -0.1623
  953TIP3    H224351   5.854   4.330   3.211 -1.4194 -0.3925 -0.1574
  954TIP3   OH224352   0.294   5.225   4.802  0.3560  0.5001  0.2116
  954TIP3    H124353   0.329   5.242   4.889  1.2361  0.1038 -0.0559
  954TIP3    H224354   0.340   5.146   4.772  0.2476  0.7737 -0.7110
  955TIP3   OH224355   3.236   6.088   5.098  0.0971 -0.1035  0.0455
  955TIP3    H124356   3.245   6.024   5.169  0.0030 -1.1923 -0.8985
  955TIP3    H224357   3.274   6.044   5.021  0.0290  0.9782 -0.6228
  956TIP3   OH224358   3.595   1.004   4.217  0.5725 -0.2904 -0.1661
  956TIP3    H124359   3.664   0.957   4.264 -0.4715 -0.3448  1.3932
  956TIP3    H224360   3.523   1.009   4.280 -0.3571  0.9449 -1.2852
  957TIP3   OH224361   3.628   5.800  14.596  0.2509 -0.1516 -0.1329
  957TIP3    H124362   3.647   5.879  14.646  0.2509 -0.4107  0.2770
  957TIP3    H224363   3.533   5.803  14.581  0.2680 -0.0175 -0.2177
  958TIP3   OH224364   3.916   2.073  12.321  0.0325 -0.0834  0.5533
  958TIP3    H124365   3.830   2.078  12.363  0.0430 -1.2313  0.7390
  958TIP3    H224366   3.977   2.108  12.386 -0.4036  1.7855  0.0072
  959TIP3   OH224367   2.592   6.018   0.049 -0.8547 -0.1027 -0.3827
  959TIP3    H124368   2.659   6.085   0.036 -0.0684 -0.7727  0.1081
  959TIP3    H224369   2.531   6.029  -0.025  0.5295 -0.3559 -1.5995
  960TIP3   OH224370   5.287   5.150  11.116 -0.2049 -0.7255 -0.2345
  960TIP3    H124371   5.198   5.179  11.096 -0.2609  0.0768  1.0332
  960TIP3    H224372   5.317   5.106  11.037 -1.9675 -1.6011 -0.4523
  961TIP3   OH224373   2.147   0.483   4.606 -0.0274 -0.0576  0.0585
  961TIP3    H124374   2.187   0.442   4.529  1.0009  0.1375  0.4623
  961TIP3    H224375   2.187   0.570   4.609  3.3059 -1.4353  3.1558
  962TIP3   OH224376   6.041   1.416   4.625 -0.1988  0.0209 -0.2431
  962TIP3    H124377   5.966   1.473   4.610 -1.2317 -0.8329  1.3682
  962TIP3    H224378   6.026   1.340   4.569 -1.0237 -0.5326  0.6883
  963TIP3   OH224379   0.003   1.620   5.654  0.0733  0.6586 -0.4074
  963TIP3    H124380   0.060   1.558   5.699  0.9884  1.2358 -0.7375
  963TIP3    H224381  -0.071   1.568   5.623  0.7688 -0.2444 -0.5770
  964TIP3   OH224382   5.324   5.349  14.289 -0.0087  0.4208  0.7345
  964TIP3    H124383   5.313   5.315  14.378  1.1775  0.0028  0.7347
  964TIP3    H224384   5.243   5.325  14.244 -0.5485  0.4863  1.6488
  965TIP3   OH224385   3.549   3.077   5.118  0.2097  0.2912  0.1825
  965TIP3    H124386   3.594   3.139   5.061 -0.3693  1.1367  0.6335
  965TIP3    H224387   3.507   3.016   5.057 -0.6791  1.3802 -0.3331
  966TIP3   OH224388   6.200   0.304  11.944  0.3999  0.2590  0.1843
  966TIP3    H124389   6.279   0.279  11.992  0.4699 -0.1411 -0.1344
  966TIP3    H224390   6.127   0.275  11.999  0.4785 -0.0436  0.1295
  967TIP3   OH224391   0.962   6.068   4.716 -0.4170 -0.0967 -0.5861
  967TIP3    H124392   0.966   5.988   4.769  0.1277 -0.2425 -0.8349
  967TIP3    H224393   1.053   6.085   4.694 -0.7136 -0.6569 -2.3881
  968TIP3   OH224394   2.613   1.147   4.528  0.0204 -0.2225 -0.0868
  968TIP3    H124395   2.598   1.180   4.617  1.3920  1.4450 -0.4149
  968TIP3    H224396   2.655   1.062   4.541 -0.0873 -0.1409  0.8576
  969TIP3   OH224397   6.796   0.242  14.222  0.1368 -0.2817 -0.0477
  969TIP3    H124398   6.882   0.242  14.265 -0.2651  0.3754  0.7857
  969TIP3    H224399   6.746   0.308  14.270 -0.7800 -0.5415 -0.6393
  970TIP3   OH224400   3.568   4.719  16.783  0.4547 -0.3341 -0.4892
  970TIP3    H124401   3.624   4.667  16.725  0.7709 -0.7727  0.1967
  970TIP3    H224402   3.620   4.797  16.804 -0.3008  0.6783 -2.1150
  971TIP3   OH224403   3.461   2.007  11.242 -1.1257  0.0025  0.2026
  971TIP3    H124404   3.521   2.037  11.310 -0.3927  1.3498 -0.9851
  971TIP3    H224405   3.455   1.912  11.255 -1.0777  0.2269  2.1625
  972TIP3   OH224406   4.899   0.939   0.613 -0.7318  0.5144 -0.3501
  972TIP3    H124407   4.898   1.031   0.638 -0.0656  0.1300  1.2151
  972TIP3    H224408   4.990   0.912   0.623 -0.8751 -0.2556 -1.0224
  973TIP3   OH224409   6.395   1.515  15.961  0.4755 -0.2282  0.1565
  973TIP3    H124410   6.392   1.513  15.865 -4.3771  2.2613 -0.0617
  973TIP3    H224411   6.434   1.599  15.982 -1.2964  0.6447  0.1315
  974TIP3   OH224412   5.969   0.179   0.427  0.2885  0.6386  0.6591
  974TIP3    H124413   5.979   0.100   0.373  1.8274  1.7702 -0.8239
  974TIP3    H224414   6.021   0.161   0.505 -0.4095 -0.2887  0.9330
  975TIP3   OH224415   0.883   1.463  10.915  0.0125  0.0930  0.0776
  975TIP3    H124416   0.869   1.440  11.007  0.4810  1.6735  0.5772
  975TIP3    H224417   0.950   1.531  10.918 -0.1786  0.3662 -1.4146
  976TIP3   OH224418   6.173   4.997   5.704  0.0506  0.0285  0.3364
  976TIP3    H124419   6.259   4.970   5.672  0.7655  2.2961  0.1679
  976TIP3    H224420   6.162   4.949   5.786  1.5571 -0.1391  0.4668
  977TIP3   OH224421   2.378   3.121  12.629  0.8744 -0.6149  0.0667
  977TIP3    H124422   2.461   3.167  12.637  0.2841  0.4183  0.4061
  977TIP3    H224423   2.397   3.048  12.569  1.9708 -0.2958  0.0001
  978TIP3   OH224424   2.696   6.656   3.989 -0.3760 -0.4402  0.3703
  978TIP3    H124425   2.722   6.738   4.031 -1.2384 -0.1803  0.4229
  978TIP3    H224426   2.635   6.682   3.921  0.8100 -0.8880 -0.9111
  979TIP3   OH224427   2.200   4.002   3.317 -0.4571  0.4151  0.4850
  979TIP3    H124428   2.147   3.953   3.380 -0.7817 -0.6278 -0.5428
  979TIP3    H224429   2.138   4.026   3.248  0.0445  0.8147  0.1645
  980TIP3   OH224430   0.402   2.727   1.462  0.5757  0.5522  0.4730
  980TIP3    H124431   0.311   2.702   1.448 -0.3743  1.6383  3.6684
  980TIP3    H224432   0.429   2.770   1.381 -1.3149 -0.8614 -0.9836
  981TIP3   OH224433   0.853   0.563   4.389  0.7355 -0.1833 -0.2418
  981TIP3    H124434   0.804   0.645   4.387  1.1119  0.0558  0.1440
  981TIP3    H224435   0.786   0.495   4.392  0.3750  0.0256 -2.1921
  982TIP3   OH224436   5.438   3.110  14.709  0.1959 -0.0912  0.0315
  982TIP3    H124437   5.456   3.159  14.789  0.9924 -1.1209  0.5013
  982TIP3    H224438   5.522   3.106  14.664 -0.2837  0.6466 -0.9843
  983TIP3   OH224439   0.431   4.839  16.229  0.2029  0.4768  0.1802
  983TIP3    H124440   0.360   4.866  16.171 -1.1369  0.4969  1.7353
  983TIP3    H224441   0.425   4.743  16.232 -0.2908  0.5170  0.8976
  984TIP3   OH224442   1.376   1.063   0.237 -0.2436  0.3724 -0.4477
  984TIP3    H124443   1.461   1.085   0.275 -0.5884 -1.0894  1.2988
  984TIP3    H224444   1.354   1.139   0.182  0.6556  2.2930  1.6877
  985TIP3   OH224445   6.158   5.520   4.358  0.2348  0.1952  0.1244
  985TIP3    H124446   6.158   5.540   4.451 -1.2466 -0.1332  0.2259
  985TIP3    H224447   6.248   5.497   4.338  0.4544 -0.3767  1.6265
  986TIP3   OH224448   0.693   5.676   4.791  0.2524 -0.2661  0.0588
  986TIP3    H124449   0.633   5.610   4.826  1.4173 -0.6801  1.4056
  986TIP3    H224450   0.715   5.730   4.867 -0.9357  1.9303 -1.0762
  987TIP3   OH224451   3.985   4.795   2.774  0.2345 -0.5317  0.7105
  987TIP3    H124452   3.963   4.731   2.706  0.9737 -2.9230  2.5476
  987TIP3    H224453   3.904   4.842   2.790 -0.1487 -0.4341 -1.2469
  988TIP3   OH224454   5.965   1.780  11.954  0.1570  0.1610 -0.3548
  988TIP3    H124455   5.872   1.797  11.970  0.0064 -0.2492 -0.7638
  988TIP3    H224456   6.008   1.865  11.968 -0.0891  0.0676  1.1786
  989TIP3   OH224457   1.410   1.309   4.412  0.2590  0.1489  0.0988
  989TIP3    H124458   1.473   1.259   4.463  0.1356  0.8328  0.9428
  989TIP3    H224459   1.331   1.254   4.412  0.4406 -0.1145  0.1520
  990TIP3   OH224460   2.875   4.338  16.360  0.1268  0.1115  0.3229
  990TIP3    H124461   2.874   4.247  16.329  1.6086  0.5218 -1.1002
  990TIP3    H224462   2.864   4.390  16.280  0.8897  1.1819  0.8862
  991TIP3   OH224463   1.332   6.448  10.994  0.6366  0.1381 -0.1999
  991TIP3    H124464   1.294   6.390  10.928  1.4374  0.1442 -0.6773
  991TIP3    H224465   1.322   6.536  10.958  1.3934  0.1145 -0.4891
  992TIP3   OH224466   1.959   6.011   0.680  0.0583 -0.1661 -0.2919
  992TIP3    H124467   1.997   6.039   0.597  2.1698  0.5707  0.8455
  992TIP3    H224468   1.929   6.092   0.721  1.1367 -0.2078  0.6271
  993TIP3   OH224469   2.991   1.892  12.973 -0.9174  0.2605 -0.0843
  993TIP3    H124470   3.056   1.843  13.023  1.7910  1.4197 -2.2096
  993TIP3    H224471   2.908   1.873  13.017  0.8129 -1.1741  2.9110
  994TIP3   OH224472   6.656   1.739  14.115 -0.0393 -0.6206  0.4611
  994TIP3    H124473   6.741   1.706  14.145 -0.2217 -0.7768  0.8194
  994TIP3    H224474   6.631   1.803  14.182 -0.4063 -0.8996  0.5920
  995TIP3   OH224475   2.230   5.870   5.969 -0.0261 -0.1069  0.3041
  995TIP3    H124476   2.262   5.796   5.918 -1.3699 -1.8590  1.8441
  995TIP3    H224477   2.269   5.858   6.056 -1.1532  0.3278  0.8980
  996TIP3   OH224478   3.766   5.395   2.525 -0.2477 -0.2801  0.3630
  996TIP3    H124479   3.853   5.411   2.562  0.0988 -2.0863  0.4053
  996TIP3    H224480   3.716   5.472   2.550  1.8870  1.9516 -1.6017
  997TIP3   OH224481   6.557   3.307  10.227 -0.1741  0.2444 -0.1112
  997TIP3    H124482   6.633   3.315  10.284 -0.1326 -0.0854 -0.1199
  997TIP3    H224483   6.589   3.334  10.141  0.2379 -0.9582 -0.3602
  998TIP3   OH224484   6.129   2.840   4.784  0.1171 -0.1021  0.0315
  998TIP3    H124485   6.214   2.820   4.743  1.3789  5.1087 -0.5588
  998TIP3    H224486   6.151   2.889   4.863 -2.3500  0.7197  0.2944
  999TIP3   OH224487   5.235   2.672  11.503  0.0940 -0.1194 -0.4485
  999TIP3    H124488   5.258   2.750  11.452  3.3402 -0.0475  0.8861
  999TIP3    H224489   5.318   2.626  11.516 -0.7330 -0.8449  3.5614
 1000TIP3   OH224490   4.523   5.100   2.330  0.4787 -1.3430  0.0489
 1000TIP3    H124491   4.501   5.191   2.350  2.2307 -0.7556 -0.4636
 1000TIP3    H224492   4.464   5.077   2.258 -0.4252 -0.8386  0.6064
 1001TIP3   OH224493   5.760   0.100   0.741 -0.1398  0.2376 -0.3785
 1001TIP3    H124494   5.781   0.188   0.709 -0.5494  0.4350 -0.1151
 1001TIP3    H224495   5.762   0.109   0.836  0.6058 -0.2307 -0.3424
 1002TIP3   OH224496   5.217   4.706   0.751  0.6471  0.2719 -0.2021
 1002TIP3    H124497   5.239   4.675   0.838 -0.8703  1.7966  0.7908
 1002TIP3    H224498   5.189   4.628   0.704 -0.8671 -0.2493  1.4754
 1003TIP3   OH224499   2.824   2.580   3.849 -0.0295 -0.0039 -0.3073
 1003TIP3    H124500   2.780   2.495   3.856  0.2114 -0.0272  1.5597
 1003TIP3    H224501   2.902   2.562   3.797 -0.2860 -0.7857 -0.4503
 1004TIP3   OH224502   6.347   6.577  10.973  0.2103 -0.5405  0.8080
 1004TIP3    H124503   6.353   6.513  11.045  1.0754 -0.0435  1.1834
 1004TIP3    H224504   6.383   6.531  10.897  0.2053 -0.7228  0.9143
 1005TIP3   OH224505   5.570   5.520   0.899 -0.1468  0.2869  0.0555
 1005TIP3    H124506   5.536   5.556   0.816  1.9902 -0.4352 -1.2142
 1005TIP3    H224507   5.583   5.597   0.954 -1.2798  0.8262 -0.3906
 1006TIP3   OH224508   6.685   6.120  14.523  0.0826  0.0750  0.0620
 1006TIP3    H124509   6.640   6.085  14.446 -1.3874  1.2007  0.3559
 1006TIP3    H224510   6.714   6.042  14.571 -0.2015 -0.6654 -0.9291
 1007TIP3   OH224511   1.652   3.822  12.151 -0.1464 -0.8607 -0.6513
 1007TIP3    H124512   1.618   3.885  12.088  0.5863 -0.4462 -0.6465
 1007TIP3    H224513   1.733   3.791  12.112  0.1758 -0.8017 -0.0386
 1008TIP3   OH224514   0.811   3.228   1.628  0.1830 -0.5908 -0.0174
 1008TIP3    H124515   0.885   3.199   1.681  1.0814 -0.5884 -1.2224
 1008TIP3    H224516   0.839   3.313   1.592 -0.2263 -0.7930 -0.8278
 1009TIP3   OH224517   5.168   3.907  12.793  0.2065 -0.2235  0.0077
 1009TIP3    H124518   5.077   3.930  12.773  0.2073 -1.8072 -2.1234
 1009TIP3    H224519   5.219   3.981  12.761 -0.1816 -0.4468 -1.1473
 1010TIP3   OH224520   0.649   2.993   2.598  0.6274  0.1012 -0.6867
 1010TIP3    H124521   0.558   3.024   2.606  0.2893  0.0766 -3.5233
 1010TIP3    H224522   0.641   2.904   2.564  1.7089  0.3789 -1.7229
 1011TIP3   OH224523   2.042   1.042  14.037 -0.1747  0.3914 -0.0579
 1011TIP3    H124524   2.032   1.021  14.130 -2.2416  2.7659  0.3588
 1011TIP3    H224525   2.133   1.072  14.029  0.4068 -0.9995  0.8871
 1012TIP3   OH224526   0.478   5.395  11.399  0.1063  0.1219 -0.0764
 1012TIP3    H124527   0.423   5.328  11.358 -0.6579  1.4574 -1.2935
 1012TIP3    H224528   0.444   5.402  11.488 -0.0571 -0.8068 -0.0511
 1013TIP3   OH224529   0.576   0.324  16.612  0.5381  0.3160  0.4619
 1013TIP3    H124530   0.516   0.333  16.538 -1.9094 -0.0753  2.2720
 1013TIP3    H224531   0.538   0.254  16.666  1.8831  0.9751  2.3912
 1014TIP3   OH224532   4.269   6.632   3.981 -0.2240  0.1966  0.2310
 1014TIP3    H124533   4.357   6.596   3.972 -0.6575 -1.0972  0.8962
 1014TIP3    H224534   4.282   6.721   4.011  0.8535 -0.1093  0.7052
 1015TIP3   OH224535   2.187   1.166   6.248 -0.4382 -0.0194  0.5629
 1015TIP3    H124536   2.235   1.136   6.171  1.6026  2.8381  0.5533
 1015TIP3    H224537   2.100   1.188   6.214 -0.4664 -1.3724 -0.3185
 1016TIP3   OH224538   6.728   4.238   3.750  0.5503 -0.1551 -0.1868
 1016TIP3    H124539   6.721   4.147   3.721 -0.5488  0.3294 -1.5237
 1016TIP3    H224540   6.768   4.232   3.837 -1.8443 -2.1155  0.9034
 1017TIP3   OH224541   4.082   5.750   3.070  0.0007  0.0636  0.4968
 1017TIP3    H124542   4.068   5.773   2.978 -0.9688  1.2142  0.8926
 1017TIP3    H224543   4.053   5.828   3.118 -2.0175 -1.4439  1.8918
 1018TIP3   OH224544   4.520   3.089  10.897 -0.3564  0.0388 -0.8057
 1018TIP3    H124545   4.450   3.026  10.881 -0.0177 -0.5410 -0.0291
 1018TIP3    H224546   4.494   3.166  10.845 -1.7837 -0.0084 -0.2225
 1019TIP3   OH224547   0.582   4.522  12.680  0.2606 -0.5488 -0.5690
 1019TIP3    H124548   0.607   4.479  12.599 -0.3119 -1.7725 -0.1158
 1019TIP3    H224549   0.655   4.507  12.740 -0.2798 -1.6267 -0.1561
 1020TIP3   OH224550   6.065   1.278  11.950 -0.0591  0.1410 -0.1262
 1020TIP3    H124551   6.000   1.271  12.020  0.7391  0.6128  0.6902
 1020TIP3    H224552   6.139   1.323  11.991  0.2416  0.8633 -1.4232
 1021TIP3   OH224553   6.836   2.421  10.158  0.3794 -0.4082 -0.0873
 1021TIP3    H124554   6.768   2.440  10.094  2.3449  2.4905 -1.4879
 1021TIP3    H224555   6.908   2.383  10.107  1.4879  0.7323  0.5769
 1022TIP3   OH224556   6.494   0.969   2.453  0.0188 -0.0389 -0.2753
 1022TIP3    H124557   6.569   0.991   2.398 -0.8232  0.7556 -1.1357
 1022TIP3    H224558   6.419   0.970   2.394 -0.5176 -2.1718  0.2921
 1023TIP3   OH224559   1.791   2.355   0.468  0.1122 -0.3894  0.0131
 1023TIP3    H124560   1.747   2.407   0.536 -3.2122  0.2345 -2.3161
 1023TIP3    H224561   1.727   2.287   0.446  2.0477 -1.9835 -0.9332
 1024TIP3   OH224562   2.093   1.363   3.554  0.0569  0.1902  0.2679
 1024TIP3    H124563   2.095   1.449   3.512  1.2817  0.1847  0.2765
 1024TIP3    H224564   2.013   1.364   3.606 -0.0895  1.2194  0.0563
 1025TIP3   OH224565   4.205   5.781   6.383 -0.7010  0.0422 -0.0373
 1025TIP3    H124566   4.277   5.842   6.365  0.5977 -1.1797  0.7456
 1025TIP3    H224567   4.206   5.720   6.310 -1.9792  0.9007 -0.8057
 1026TIP3   OH224568   4.032   3.650  16.466  0.5026 -0.2497 -0.1626
 1026TIP3    H124569   4.076   3.596  16.400 -2.1543 -0.7589 -1.6570
 1026TIP3    H224570   3.969   3.702  16.416  0.1898  1.3170  1.7295
 1027TIP3   OH224571   5.040   4.362  10.837 -0.3316  0.5167  0.3042
 1027TIP3    H124572   5.103   4.433  10.850  0.0291  0.1003  0.8321
 1027TIP3    H224573   5.039   4.349  10.742 -0.3001  1.1303  0.2139
 1028TIP3   OH224574   0.955   2.992  15.384  0.6109  0.1843 -0.3448
 1028TIP3    H124575   0.994   3.061  15.438  0.9041 -1.3966  1.5726
 1028TIP3    H224576   0.891   2.950  15.441 -1.8572  0.8096 -2.4797
 1029TIP3   OH224577   5.957   1.180   6.633  0.7152 -0.2714  0.2490
 1029TIP3    H124578   5.977   1.175   6.539 -0.5269  0.1608 -0.0554
 1029TIP3    H224579   6.028   1.232   6.670  0.1122  1.3629 -0.8124
 1030TIP3   OH224580   1.530   1.632  13.378  0.3033 -0.5506 -0.3150
 1030TIP3    H124581   1.514   1.687  13.455 -0.3815 -1.1315 -0.0269
 1030TIP3    H224582   1.619   1.598  13.392  0.7831  0.5704 -0.5648
 1031TIP3   OH224583   2.561   1.656   0.714 -0.3062  0.1776 -0.2512
 1031TIP3    H124584   2.608   1.716   0.656 -0.7231 -0.5537 -1.3764
 1031TIP3    H224585   2.513   1.598   0.655 -4.0497  1.9222  0.7864
 1032TIP3   OH224586   5.781   0.710  14.689  0.3147 -0.3401  0.4130
 1032TIP3    H124587   5.837   0.661  14.749  1.8093  0.0465 -0.6144
 1032TIP3    H224588   5.692   0.681  14.711  1.0660 -3.0579  0.2844
 1033TIP3   OH224589   2.853   0.816   2.970 -0.7485 -0.0758  0.1725
 1033TIP3    H124590   2.869   0.775   2.885 -0.1862 -0.8503  0.6450
 1033TIP3    H224591   2.765   0.788   2.995 -1.4438  1.2003 -0.7318
 1034TIP3   OH224592   3.548   5.564   4.925  0.4011  0.3870 -0.1607
 1034TIP3    H124593   3.535   5.508   5.002  0.9126  0.4996  0.0092
 1034TIP3    H224594   3.605   5.635   4.956 -0.6671  1.3061 -0.2295
 1035TIP3   OH224595   0.412   3.829  10.177  0.0979 -0.2424  0.3501
 1035TIP3    H124596   0.449   3.756  10.127  1.9355  1.8433 -1.5489
 1035TIP3    H224597   0.323   3.838  10.143  0.9704  0.4635 -1.9173
 1036TIP3   OH224598   4.829   4.010  12.015 -0.3138 -0.1164  0.0664
 1036TIP3    H124599   4.804   3.964  12.095  0.2536 -1.0442 -0.2735
 1036TIP3    H224600   4.798   3.954  11.944  0.2942  0.0671 -0.3548
 1037TIP3   OH224601   1.683   0.220   3.749  0.0389 -0.5179 -0.3459
 1037TIP3    H124602   1.696   0.274   3.827 -0.4457 -2.3885  1.1233
 1037TIP3    H224603   1.771   0.211   3.712  0.3102  0.2615  0.0815
 1038TIP3   OH224604   4.320   5.056  16.836  0.0071  0.1065  0.8282
 1038TIP3    H124605   4.358   5.110  16.906 -0.8116  1.0143  0.5987
 1038TIP3    H224606   4.388   4.992  16.815  0.4011  0.0320  2.2147
 1039TIP3   OH224607   5.536   1.660  14.866  0.2691 -0.1628  0.1760
 1039TIP3    H124608   5.625   1.675  14.835  0.2938 -0.8087 -0.0924
 1039TIP3    H224609   5.503   1.747  14.887  0.4475  0.2415 -1.1314
 1040TIP3   OH224610   6.530   3.530  12.765  0.2005 -0.0135  0.0011
 1040TIP3    H124611   6.538   3.610  12.713 -0.0303  1.1098  1.6092
 1040TIP3    H224612   6.436   3.521  12.780  0.3707  1.9320  3.3793
 1041TIP3   OH224613   4.100   1.749  12.819  0.6181 -0.0266  0.3120
 1041TIP3    H124614   4.107   1.702  12.736 -0.9864 -1.3160  0.8523
 1041TIP3    H224615   4.158   1.824  12.809 -0.1868  0.3395 -2.3051
 1042TIP3   OH224616   6.088   3.340  11.525  0.6231 -0.5743  0.1296
 1042TIP3    H124617   6.142   3.405  11.571  1.5470 -1.6179  0.5875
 1042TIP3    H224618   6.046   3.290  11.596 -0.2530 -0.3462 -0.2171
 1043TIP3   OH224619   5.536   3.057   3.816 -0.1490  0.1082 -0.0667
 1043TIP3    H124620   5.579   2.991   3.761 -1.2877 -0.5067 -0.2348
 1043TIP3    H224621   5.489   3.113   3.753 -0.2460  0.3026  0.1775
 1044TIP3   OH224622   3.897   4.318  10.987  0.3432 -0.1152 -0.3150
 1044TIP3    H124623   3.963   4.364  11.037 -0.4915 -0.7653  1.4544
 1044TIP3    H224624   3.911   4.347  10.896  0.4753  2.8377  0.5442
 1045TIP3   OH224625   4.304   3.833   1.885 -0.0056  0.3606 -0.4036
 1045TIP3    H124626   4.211   3.856   1.894 -1.2785 -3.7749 -1.1825
 1045TIP3    H224627   4.311   3.793   1.798  1.9372 -1.6427  0.5849
 1046TIP3   OH224628   0.136   2.710   0.765 -0.3811 -0.1511  0.5474
 1046TIP3    H124629   0.177   2.785   0.808 -1.2629  1.2043 -0.8608
 1046TIP3    H224630   0.207   2.670   0.714  0.1508 -0.4379  1.4959
 1047TIP3   OH224631   4.424   0.069  15.449  0.4487  0.0008  0.2424
 1047TIP3    H124632   4.392  -0.017  15.424  1.0916  0.1527 -1.1645
 1047TIP3    H224633   4.473   0.100  15.373  0.1956  1.6334  0.7056
 1048TIP3   OH224634   4.881   5.071   1.761  0.8468  0.2185 -0.1972
 1048TIP3    H124635   4.897   5.069   1.855  0.6982 -0.6073 -0.1831
 1048TIP3    H224636   4.967   5.065   1.721  0.8354 -4.6900 -0.1332
 1049TIP3   OH224637   1.853   3.021   0.919  0.4976 -0.0293  0.1019
 1049TIP3    H124638   1.777   3.069   0.886  2.5863  3.7689  0.2277
 1049TIP3    H224639   1.824   2.987   1.004 -0.8136  2.3080  0.6921
 1050TIP3   OH224640   6.368   1.700   3.340 -0.5862 -0.0401  0.1447
 1050TIP3    H124641   6.320   1.710   3.258 -1.3063 -0.6110  0.4903
 1050TIP3    H224642   6.383   1.790   3.370 -1.5211  0.1431  0.0748
 1051TIP3   OH224643   3.265   5.572   1.313  0.5275 -0.2537  0.4015
 1051TIP3    H124644   3.259   5.491   1.263 -0.5077 -1.9290  3.0174
 1051TIP3    H224645   3.359   5.592   1.313  0.4386  0.9784 -3.6728
 1052TIP3   OH224646   0.249   1.143   5.780 -0.8618 -0.5417 -0.3817
 1052TIP3    H124647   0.343   1.122   5.779 -0.7783 -0.1809 -0.2214
 1052TIP3    H224648   0.213   1.087   5.849 -0.0531  2.2485  2.5639
 1053TIP3   OH224649   5.421   3.723   3.412 -0.7512 -0.7929  0.7289
 1053TIP3    H124650   5.390   3.632   3.404 -1.2572 -0.7201  1.7211
 1053TIP3    H224651   5.342   3.776   3.405 -0.4487 -0.4045  0.0809
 1054TIP3   OH224652   5.395   5.573   1.371 -0.1335  0.5614 -0.4935
 1054TIP3    H124653   5.431   5.493   1.334 -1.0266 -0.0339 -0.0968
 1054TIP3    H224654   5.366   5.624   1.295 -0.3135  0.1458 -0.7045
 1055TIP3   OH224655   4.308   0.622   2.346  0.4509 -0.0297  0.1210
 1055TIP3    H124656   4.310   0.684   2.418  0.1307 -0.9084  0.9158
 1055TIP3    H224657   4.271   0.670   2.273 -3.6509 -0.2799  1.7647
 1056TIP3   OH224658   3.169   3.081   6.404 -0.3808 -0.3605  0.3622
 1056TIP3    H124659   3.233   3.011   6.388  1.6929  1.6100 -0.4807
 1056TIP3    H224660   3.181   3.104   6.496  1.3656  1.0489 -0.1543
 1057TIP3   OH224661   4.595   3.002  15.445  0.4684  0.4990 -0.6141
 1057TIP3    H124662   4.536   3.076  15.433  0.0674  0.5716  1.5001
 1057TIP3    H224663   4.671   3.039  15.490  1.2115  0.0068 -1.4389
 1058TIP3   OH224664   0.003   5.376  11.373 -0.5076  0.0860  0.2101
 1058TIP3    H124665   0.079   5.352  11.426  0.2077  1.0264 -0.3585
 1058TIP3    H224666  -0.064   5.311  11.397  0.1902 -0.2581  1.3319
 1059TIP3   OH224667   6.789   3.967  14.605  0.4356 -0.1650 -0.2988
 1059TIP3    H124668   6.861   3.913  14.639  0.2284  0.1780  0.7254
 1059TIP3    H224669   6.823   4.057  14.610 -0.0081 -0.0138  0.0693
 1060TIP3   OH224670   5.488   5.834  15.856 -0.4371 -0.3276  0.4855
 1060TIP3    H124671   5.400   5.862  15.829 -1.5049 -1.9636  1.9570
 1060TIP3    H224672   5.489   5.850  15.951  0.5607 -1.0379  0.6069
 1061TIP3   OH224673   3.041   0.158  11.699  0.2262  0.5349  0.2925
 1061TIP3    H124674   3.106   0.117  11.641  0.7151  1.4849  0.1496
 1061TIP3    H224675   3.081   0.156  11.786  0.8897  1.9847  0.0460
 1062TIP3   OH224676   5.208   1.075   6.056 -0.0021  0.2563  0.4455
 1062TIP3    H124677   5.257   1.079   6.138 -2.2730 -0.9372  1.9643
 1062TIP3    H224678   5.137   1.138   6.067 -1.1769 -0.9438  0.0214
 1063TIP3   OH224679   0.530   1.494   2.630 -0.1544 -0.2888  0.0079
 1063TIP3    H124680   0.592   1.447   2.575  2.5539  1.5859  1.2316
 1063TIP3    H224681   0.538   1.452   2.716  0.0751  0.4769  0.3722
 1064TIP3   OH224682   6.525   3.899  10.858 -0.0449  0.3658  0.1306
 1064TIP3    H124683   6.544   3.861  10.772 -2.0865 -0.1487 -0.1391
 1064TIP3    H224684   6.440   3.942  10.847  0.5999  2.0473  1.3725
 1065TIP3   OH224685   6.848   2.126  13.618  0.3142  0.3287  0.2997
 1065TIP3    H124686   6.855   2.221  13.612 -1.6221  0.4233 -1.4458
 1065TIP3    H224687   6.910   2.093  13.553  0.4698  0.4203  0.4017
 1066TIP3   OH224688   4.655   1.662  15.450  0.1309  0.5807 -0.0778
 1066TIP3    H124689   4.603   1.730  15.493 -1.8809 -1.9836  1.8657
 1066TIP3    H224690   4.693   1.706  15.374 -2.8683  3.2948 -0.2394
 1067TIP3   OH224691   2.508   3.814  15.985 -0.1270 -0.5905  0.1410
 1067TIP3    H124692   2.479   3.747  16.047 -0.1483  0.6489  1.5291
 1067TIP3    H224693   2.602   3.823  16.000 -0.1044 -0.3685 -0.1157
 1068TIP3   OH224694   4.435   3.532   5.609 -0.3456  0.1467  0.0144
 1068TIP3    H124695   4.409   3.484   5.530  0.9174 -2.1047  0.8542
 1068TIP3    H224696   4.357   3.532   5.663 -0.1439 -1.9315  0.3875
 1069TIP3   OH224697   6.598   5.555   0.480 -0.4237 -0.0020 -0.0413
 1069TIP3    H124698   6.575   5.463   0.495  2.0830 -0.7696 -0.4528
 1069TIP3    H224699   6.545   5.581   0.405 -1.7103 -0.8603  0.5312
 1070TIP3   OH224700   2.177   0.747   2.051  0.3468  0.0253 -0.0819
 1070TIP3    H124701   2.231   0.672   2.027 -1.5141 -1.5152  0.3195
 1070TIP3    H224702   2.099   0.741   1.995 -0.1628  1.2687  0.4386
 1071TIP3   OH224703   3.409   3.102   6.174  0.3771  0.1711 -0.8466
 1071TIP3    H124704   3.431   3.028   6.231 -0.0500  0.3050 -0.5015
 1071TIP3    H224705   3.441   3.179   6.221 -1.8262  0.5004  0.2634
 1072TIP3   OH224706   0.751   1.737   4.822  0.0389 -0.1946 -0.8160
 1072TIP3    H124707   0.688   1.762   4.755  0.1996 -0.3952 -1.0447
 1072TIP3    H224708   0.763   1.643   4.810 -0.9130 -0.4797  0.3447
 1073TIP3   OH224709   2.321   3.629  14.342  0.2967  0.0751  0.0745
 1073TIP3    H124710   2.301   3.660  14.431  1.7331 -0.0494  0.4702
 1073TIP3    H224711   2.361   3.543  14.355 -1.1071 -0.7382 -0.8346
 1074TIP3   OH224712   3.234   1.434   3.573  0.6676  0.2531 -0.2830
 1074TIP3    H124713   3.154   1.445   3.625  0.6756 -1.3682  0.1147
 1074TIP3    H224714   3.205   1.444   3.482 -0.1009 -0.7916 -0.1698
 1075TIP3   OH224715   0.339   0.663  14.683 -0.0444 -0.6029 -0.1550
 1075TIP3    H124716   0.263   0.712  14.651  1.7871  1.5473 -1.4851
 1075TIP3    H224717   0.405   0.674  14.615  2.1634 -0.6472  1.8641
 1076TIP3   OH224718   5.412   5.970   5.726  0.7116 -0.1359  0.4923
 1076TIP3    H124719   5.486   5.961   5.786  0.9947 -1.3438 -0.0188
 1076TIP3    H224720   5.410   5.889   5.677  0.8111  1.0255 -1.5492
 1077TIP3   OH224721   2.840   3.569   2.879 -0.1398  0.5605 -0.3336
 1077TIP3    H124722   2.903   3.621   2.829 -0.6310 -0.4452 -2.0783
 1077TIP3    H224723   2.893   3.525   2.946  0.3607  2.8319  0.8763
 1078TIP3   OH224724   0.828   4.642   4.108  0.6340  0.5339 -0.1656
 1078TIP3    H124725   0.897   4.628   4.173  2.2351  0.3041 -1.8566
 1078TIP3    H224726   0.804   4.734   4.119  0.3987  0.3381  1.1630
 1079TIP3   OH224727   5.678   1.864  13.677 -0.2335 -0.2055 -0.0704
 1079TIP3    H124728   5.699   1.918  13.754 -0.9620  0.7468 -0.5097
 1079TIP3    H224729   5.661   1.777  13.712  1.5991 -0.3263  0.5957
 1080TIP3   OH224730   3.692   1.583   0.109 -0.9988  0.4550  0.0187
 1080TIP3    H124731   3.610   1.620   0.141 -1.0884 -0.0030  0.3311
 1080TIP3    H224732   3.742   1.565   0.189 -0.3742  1.2203 -0.1869
 1081TIP3   OH224733   0.352   1.165   0.438 -0.2267 -0.1680  1.0023
 1081TIP3    H124734   0.321   1.157   0.348 -0.6521 -0.6324  1.1813
 1081TIP3    H224735   0.379   1.076   0.462  1.5800  0.2664  0.7501
 1082TIP3   OH224736   4.921   2.442   3.644  0.3552 -0.3286 -0.2657
 1082TIP3    H124737   4.873   2.494   3.579  0.0069  1.4370  1.3188
 1082TIP3    H224738   4.864   2.368   3.662  0.2502 -0.5976 -1.6102
 1083TIP3   OH224739   3.853   1.211  11.766  0.5135 -0.5398 -0.1729
 1083TIP3    H124740   3.765   1.179  11.748 -0.0489  2.0473 -2.8088
 1083TIP3    H224741   3.911   1.149  11.722 -0.1571 -0.8664 -0.6085
 1084TIP3   OH224742   3.452   0.458   2.182  0.0048  0.0384 -0.2770
 1084TIP3    H124743   3.416   0.545   2.200  0.8603 -0.0409  2.1818
 1084TIP3    H224744   3.528   0.476   2.126  0.2705  0.9098  0.3318
 1085TIP3   OH224745   3.497   3.643   5.162 -0.4063 -0.4520 -0.4199
 1085TIP3    H124746   3.586   3.658   5.194 -1.2242  0.0975  1.7663
 1085TIP3    H224747   3.479   3.551   5.182  0.1940 -1.0685 -2.4082
 1086TIP3   OH224748   1.125   0.901  13.008 -0.4070 -0.5826  0.1462
 1086TIP3    H124749   1.123   0.996  13.002  1.6260 -0.6150 -3.2131
 1086TIP3    H224750   1.180   0.883  13.084  0.8943  0.9786 -0.3740
 1087TIP3   OH224751   3.210   1.075   4.724  0.5058 -0.5279  0.0149
 1087TIP3    H124752   3.229   1.115   4.640  1.8976 -0.4896  0.3189
 1087TIP3    H224753   3.139   1.127   4.761 -0.2381 -0.6609 -1.1976
 1088TIP3   OH224754   6.027   4.008   5.452 -0.2186 -0.1938  0.3921
 1088TIP3    H124755   6.035   4.096   5.417 -2.4222  0.3597  1.1301
 1088TIP3    H224756   5.957   4.013   5.517 -0.3561 -2.4580  0.5274
 1089TIP3   OH224757   4.742   1.291   3.704  0.4170 -0.6842  0.2172
 1089TIP3    H124758   4.815   1.300   3.765 -0.4961  1.0009  1.1346
 1089TIP3    H224759   4.783   1.280   3.618  1.7248 -1.1259  0.8794
 1090TIP3   OH224760   5.877   4.649  15.776 -0.2944  0.0962  0.2704
 1090TIP3    H124761   5.854   4.695  15.857  2.2441  1.7124  0.2132
 1090TIP3    H224762   5.793   4.636  15.731 -1.4285  2.4497  1.4964
 1091TIP3   OH224763   0.533   5.610   1.115  0.6474 -0.0672  0.8445
 1091TIP3    H124764   0.482   5.687   1.089  0.8466  0.6650  2.5269
 1091TIP3    H224765   0.481   5.569   1.185  0.7725 -1.2110  0.2933
 1092TIP3   OH224766   6.114   6.421  15.415 -0.4028 -0.2117 -0.0058
 1092TIP3    H124767   6.129   6.516  15.419  0.0994 -0.2918  0.1953
 1092TIP3    H224768   6.020   6.411  15.423 -0.3066  0.1672  2.2135
 1093TIP3   OH224769   2.658   0.005  16.062 -0.0559 -0.4171  0.2260
 1093TIP3    H124770   2.661  -0.002  15.967  1.1461 -0.8856  0.2748
 1093TIP3    H224771   2.567  -0.011  16.085 -0.4534  0.1869 -0.8757
 1094TIP3   OH224772   5.757   4.336  12.179 -0.6229 -0.2054 -0.6159
 1094TIP3    H124773   5.724   4.246  12.181  1.6188 -1.1212  2.0354
 1094TIP3    H224774   5.834   4.332  12.123 -0.6571  0.1168 -0.6877
 1095TIP3   OH224775   2.581   0.122  13.084 -0.0781  0.1615 -0.3200
 1095TIP3    H124776   2.525   0.199  13.078  1.6555  1.4033 -1.2730
 1095TIP3    H224777   2.651   0.138  13.022  1.4587 -1.2498  0.9619
 1096TIP3   OH224778   2.095   5.286  10.749  0.2187  0.4517  0.2525
 1096TIP3    H124779   2.067   5.253  10.835  0.5694  0.0941  0.2340
 1096TIP3    H224780   2.106   5.380  10.762  0.3446  0.3879  0.6236
 1097TIP3   OH224781   5.110   0.055  11.916 -0.0752 -0.0286  0.2494
 1097TIP3    H124782   5.132   0.108  11.992 -1.0281  0.4453  0.2218
 1097TIP3    H224783   5.044  -0.007  11.948  0.4733 -0.7079  0.1024
 1098TIP3   OH224784   1.072   3.738   2.886  0.2752 -0.2465 -0.6398
 1098TIP3    H124785   1.105   3.825   2.907  0.4390 -0.3145 -0.6169
 1098TIP3    H224786   1.052   3.699   2.971  0.1230 -0.2005 -0.6542
 1099TIP3   OH224787   4.304   2.587  16.400 -0.4392  0.3687 -0.4762
 1099TIP3    H124788   4.215   2.588  16.363 -0.7435 -0.7724  0.1938
 1099TIP3    H224789   4.359   2.555  16.329 -1.0540 -2.0297  0.0589
 1100TIP3   OH224790   4.727   1.594  16.961 -0.3157 -0.7984 -0.4739
 1100TIP3    H124791   4.676   1.674  16.952 -0.3502 -0.8658 -0.9082
 1100TIP3    H224792   4.748   1.589  17.054  2.5083  1.4660 -0.8407
 1101TIP3   OH224793   2.949   2.744  14.052 -0.1239  0.3274  0.0661
 1101TIP3    H124794   2.923   2.664  14.099 -2.9056  1.8352  1.3124
 1101TIP3    H224795   3.042   2.730  14.033 -0.2204 -2.7304  1.1709
 1102TIP3   OH224796   0.758   5.014  12.083  0.4085  0.3746  0.1560
 1102TIP3    H124797   0.852   5.032  12.081 -0.1092  3.8292  1.0563
 1102TIP3    H224798   0.741   4.988  12.173  0.7581 -2.8223 -0.5753
 1103TIP3   OH224799   6.618   0.282  10.943 -0.0998 -0.2794 -0.6385
 1103TIP3    H124800   6.697   0.268  10.890  0.3573  0.0096 -0.0549
 1103TIP3    H224801   6.547   0.290  10.879  0.3157 -0.7332 -1.1662
 1104TIP3   OH224802   4.546   4.428  11.275  0.3300  0.0725  0.5917
 1104TIP3    H124803   4.506   4.374  11.207 -0.2484  1.0108  0.1600
 1104TIP3    H224804   4.559   4.513  11.233 -0.0963  0.6868  1.6582
 1105TIP3   OH224805   4.795   6.696   4.128 -0.3097 -0.2243  0.0279
 1105TIP3    H124806   4.759   6.775   4.089 -0.4154  0.5732  1.6672
 1105TIP3    H224807   4.843   6.654   4.057 -1.5171  0.5197 -1.2625
 1106TIP3   OH224808   0.189   1.270  13.040  0.0148  0.1539 -0.3374
 1106TIP3    H124809   0.167   1.326  12.966  0.1065 -0.5974 -0.9519
 1106TIP3    H224810   0.150   1.185  13.018  0.5563 -0.2434  0.1894
 1107TIP3   OH224811   4.714   3.225  16.992  0.6256 -0.0345  0.1622
 1107TIP3    H124812   4.703   3.130  16.991 -1.1186  0.1277 -1.1054
 1107TIP3    H224813   4.774   3.242  16.919  1.2994 -0.1688  0.6717
 1108TIP3   OH224814   0.477   3.348   6.049 -0.4518  0.7971 -0.2601
 1108TIP3    H124815   0.433   3.433   6.055  2.5503  2.4778  0.2703
 1108TIP3    H224816   0.456   3.304   6.132 -1.3037  1.4154 -0.1402
 1109TIP3   OH224817   3.962   6.041   2.587  0.2498  0.4013 -0.5376
 1109TIP3    H124818   3.942   6.134   2.597 -1.2353  0.0399  0.1370
 1109TIP3    H224819   4.057   6.038   2.576  0.4061  1.9394  0.1295
 1110TIP3   OH224820   2.815   0.264   5.343 -0.0833  0.1212  0.0283
 1110TIP3    H124821   2.738   0.243   5.290  0.1931  0.8436 -0.6945
 1110TIP3    H224822   2.872   0.312   5.283  0.8759 -0.2949  0.5862
 1111TIP3   OH224823   3.557   4.776  17.075  0.6446 -0.4463 -0.1218
 1111TIP3    H124824   3.530   4.778  16.983 -1.4348 -0.3772  0.4313
 1111TIP3    H224825   3.636   4.722  17.076  0.8733 -0.2046 -1.9777
 1112TIP3   OH224826   0.958   6.073   4.119 -0.1378 -0.3302  0.3117
 1112TIP3    H124827   0.865   6.076   4.139 -0.2397 -1.0706 -0.0444
 1112TIP3    H224828   0.965   6.020   4.040  0.2751  2.3738 -1.6056
 1113TIP3   OH224829   1.803   6.071   0.001  0.3767 -0.1312  0.4024
 1113TIP3    H124830   1.850   6.040  -0.077 -1.1537  1.1385 -1.1196
 1113TIP3    H224831   1.846   6.153   0.024 -1.2535  1.2962 -1.3013
 1114TIP3   OH224832   6.287   5.118  12.887  0.3900  0.5534 -0.3152
 1114TIP3    H124833   6.199   5.145  12.861 -0.3064  0.1030  1.4828
 1114TIP3    H224834   6.275   5.030  12.924  1.7695  0.0541 -0.9714
 1115TIP3   OH224835   4.904   3.505   2.355 -0.6830 -0.0258  0.7874
 1115TIP3    H124836   4.845   3.550   2.296  0.6077 -0.1029 -0.6155
 1115TIP3    H224837   4.903   3.557   2.435 -1.6602  0.6755  0.3285
 1116TIP3   OH224838   6.364   3.016  11.024  0.4414  0.1285 -0.1081
 1116TIP3    H124839   6.420   3.083  10.985  2.0399 -1.2644 -0.2749
 1116TIP3    H224840   6.400   2.933  10.994  0.1740 -0.9306  2.2897
 1117TIP3   OH224841   2.927   6.357   5.256 -0.0652  0.3193  0.5292
 1117TIP3    H124842   2.980   6.353   5.176 -0.1324 -0.7453  0.5325
 1117TIP3    H224843   2.866   6.430   5.241  0.7327  0.9082  0.1195
 1118TIP3   OH224844   4.490   3.994  16.378  0.1916  0.6488 -0.0602
 1118TIP3    H124845   4.409   3.979  16.426 -0.0031  0.3169 -0.4807
 1118TIP3    H224846   4.540   3.912  16.387 -0.3764  0.1238 -1.4138
 1119TIP3   OH224847   0.019   1.634  10.387  0.0258  0.3942 -0.5491
 1119TIP3    H124848   0.015   1.590  10.302  0.8831 -0.1893 -0.3040
 1119TIP3    H224849   0.101   1.604  10.426 -0.5207  0.3718  0.6435
 1120TIP3   OH224850   4.560   0.868  15.888 -0.3277 -0.3034  0.9363
 1120TIP3    H124851   4.586   0.959  15.900  0.2137 -0.2943 -0.2170
 1120TIP3    H224852   4.580   0.848  15.796 -1.8553 -1.1286  0.7493
 1121TIP3   OH224853   0.781   6.520  13.768 -0.1619 -0.0968  0.2210
 1121TIP3    H124854   0.841   6.454  13.804 -0.7419 -1.1500 -0.6792
 1121TIP3    H224855   0.834   6.600  13.763  1.9290 -1.5006 -2.6183
 1122TIP3   OH224856   3.324   6.197   1.250  0.6370  0.1691 -0.1618
 1122TIP3    H124857   3.254   6.242   1.297  1.4627 -0.1416  1.3998
 1122TIP3    H224858   3.285   6.114   1.224  0.5906 -0.2755  1.2563
 1123TIP3   OH224859   6.411   2.170  12.915 -0.2907 -0.5657  0.3957
 1123TIP3    H124860   6.341   2.148  12.977  1.5017  0.6087  2.9942
 1123TIP3    H224861   6.492   2.148  12.962  1.1610  0.4719 -1.5149
 1124TIP3   OH224862   4.778   1.241  17.101  0.0621  0.2453 -0.1335
 1124TIP3    H124863   4.770   1.191  17.020 -1.2408  1.4909 -0.8147
 1124TIP3    H224864   4.854   1.298  17.086  2.8367 -2.7030  1.3944
 1125TIP3   OH224865   0.881   0.177   2.605  0.7632 -0.1018  0.4265
 1125TIP3    H124866   0.894   0.082   2.603 -0.0640 -0.2615 -2.3783
 1125TIP3    H224867   0.786   0.188   2.593  0.8650  1.0932  0.6125
 1126TIP3   OH224868   4.170   2.091  11.490  0.3679 -0.0169  0.3725
 1126TIP3    H124869   4.100   2.057  11.545 -0.1296 -0.5110 -0.5366
 1126TIP3    H224870   4.125   2.134  11.418  1.0015  1.5742  0.8843
 1127TIP3   OH224871   1.314   4.308  15.947  0.5234 -0.5702  0.4611
 1127TIP3    H124872   1.408   4.303  15.963  0.6372 -1.1360 -0.3692
 1127TIP3    H224873   1.300   4.396  15.912  0.8102 -0.6598  0.1247
 1128TIP3   OH224874   2.742   0.938  11.910 -0.2892  0.4679  0.2110
 1128TIP3    H124875   2.662   0.886  11.917  0.1343 -0.1356  0.6347
 1128TIP3    H224876   2.791   0.918  11.990  0.0591  1.2211  0.1948
 1129TIP3   OH224877   5.546   4.280   2.194  0.3448  0.7775 -0.1234
 1129TIP3    H124878   5.592   4.222   2.254  1.4532 -0.2565 -1.8871
 1129TIP3    H224879   5.456   4.281   2.227  0.8214 -0.0404  1.3171
 1130TIP3   OH224880   3.041   2.138  13.065 -0.0766 -0.2613 -0.0792
 1130TIP3    H124881   2.962   2.191  13.074  0.6072  0.4792  2.5082
 1130TIP3    H224882   3.008   2.050  13.048 -1.5186 -0.0109  1.1286
 1131TIP3   OH224883   3.548   4.857   4.216 -0.6116 -0.3721 -0.2918
 1131TIP3    H124884   3.587   4.905   4.142 -1.7049 -0.4642 -0.9508
 1131TIP3    H224885   3.623   4.831   4.269  0.1564  0.2786 -1.0131
 1132TIP3   OH224886   2.978   0.242   3.456  0.0209  0.0208 -0.1405
 1132TIP3    H124887   3.051   0.303   3.445 -0.9682  0.8693 -2.8923
 1132TIP3    H224888   2.911   0.294   3.501  1.0572 -0.8196  2.5768
 1133TIP3   OH224889   5.681   1.361   3.885 -0.0639 -0.5228 -0.1963
 1133TIP3    H124890   5.679   1.407   3.801  1.8806 -0.6657 -0.3729
 1133TIP3    H224891   5.632   1.417   3.944  1.3335  1.2936 -0.6647
 1134TIP3   OH224892   2.087   3.592  17.105 -0.1137 -0.0587 -0.1003
 1134TIP3    H124893   2.181   3.607  17.113  0.3522 -2.1092 -1.0558
 1134TIP3    H224894   2.058   3.574  17.195  0.1362  1.7457  0.3778
 1135TIP3   OH224895   0.717   2.065   3.367  0.0223 -0.3663 -0.3913
 1135TIP3    H124896   0.654   2.051   3.296 -0.1336  1.3160 -0.6281
 1135TIP3    H224897   0.732   1.978   3.404 -0.1760 -1.2300 -2.2397
 1136TIP3   OH224898   0.931   0.659  12.216  0.8144  0.0016  0.2117
 1136TIP3    H124899   0.990   0.729  12.242  0.3412  0.5948 -0.2657
 1136TIP3    H224900   0.926   0.602  12.292  1.9072 -0.0000  0.2933
 1137TIP3   OH224901   2.066   2.566  13.031  0.1026 -0.0204  0.6724
 1137TIP3    H124902   2.092   2.509  12.958 -0.1781  1.3166 -0.5062
 1137TIP3    H224903   1.978   2.536  13.054  0.2922 -0.6161  0.6506
 1138TIP3   OH224904   3.931   1.668  11.003  0.1939  0.3758 -0.1717
 1138TIP3    H124905   3.916   1.672  11.097  3.1067 -0.1841  0.4138
 1138TIP3    H224906   4.003   1.730  10.988 -0.5254  0.8079 -2.1272
 1139TIP3   OH224907   4.203   0.274  13.661 -0.0247  0.5378 -0.9949
 1139TIP3    H124908   4.193   0.190  13.705 -0.4732  0.5484 -1.0746
 1139TIP3    H224909   4.297   0.281  13.643  0.0434  0.1589 -0.7843
 1140TIP3   OH224910   4.530   6.101  13.364 -0.2499  0.1792 -0.2619
 1140TIP3    H124911   4.604   6.068  13.415 -0.0508  0.8794 -0.0959
 1140TIP3    H224912   4.457   6.043  13.389 -0.2418  0.7196  1.1034
 1141TIP3   OH224913   3.797   6.690  16.817 -0.5848 -0.2882 -0.1688
 1141TIP3    H124914   3.764   6.656  16.900  0.6355 -0.5830  0.2044
 1141TIP3    H224915   3.876   6.738  16.839 -0.1285 -0.5408 -1.1761
 1142TIP3   OH224916   3.363   5.848  16.150 -0.2253  0.3900 -0.0202
 1142TIP3    H124917   3.347   5.936  16.186  1.2539  0.5293  0.3412
 1142TIP3    H224918   3.275   5.815  16.129 -0.9549  1.2943  1.4095
 1143TIP3   OH224919   6.665   4.708   2.032  0.2520  0.0192 -0.1758
 1143TIP3    H124920   6.713   4.764   1.972  0.1766  1.7209  1.2527
 1143TIP3    H224921   6.579   4.750   2.039  0.2462 -0.1582  1.0483
 1144TIP3   OH224922   5.448   2.193   2.974  0.2069  0.4586  0.2213
 1144TIP3    H124923   5.523   2.159   2.925  0.1392  1.7571 -0.8146
 1144TIP3    H224924   5.483   2.210   3.062  0.7743 -0.2268  0.1344
 1145TIP3   OH224925   1.669   4.038   4.378  1.0396  0.2443 -0.6145
 1145TIP3    H124926   1.736   3.975   4.352  1.5451  0.6320 -0.2792
 1145TIP3    H224927   1.713   4.095   4.441  0.7254  1.2194 -1.2574
 1146TIP3   OH224928   6.326   5.768   3.308  0.0458  0.4304  0.4816
 1146TIP3    H124929   6.388   5.834   3.338  0.0536 -0.0107  1.4820
 1146TIP3    H224930   6.371   5.724   3.236  0.7802  0.3208  0.9942
 1147TIP3   OH224931   3.583   6.576   0.385 -0.0310  0.7223  0.4018
 1147TIP3    H124932   3.676   6.597   0.398  1.0659 -1.9571 -1.9682
 1147TIP3    H224933   3.572   6.490   0.425 -0.0499 -1.2448 -3.3420
 1148TIP3   OH224934   4.230   0.003   2.734  0.5065 -0.5277 -0.2624
 1148TIP3    H124935   4.242   0.090   2.695  0.0265 -0.6832 -0.7770
 1148TIP3    H224936   4.216   0.020   2.827  0.3646 -0.0425 -0.3701
 1149TIP3   OH224937   5.949   2.885  13.536  0.3750  0.4644  0.3401
 1149TIP3    H124938   5.889   2.810  13.539  1.4713 -0.4596 -0.0449
 1149TIP3    H224939   6.028   2.853  13.579  1.6217  0.6754 -1.6769
 1150TIP3   OH224940   6.424   4.918   1.657 -0.2505 -0.1028 -0.0930
 1150TIP3    H124941   6.439   5.009   1.632 -0.7782  0.2905  0.9600
 1150TIP3    H224942   6.472   4.867   1.592  1.3825  0.9696  0.2035
 1151TIP3   OH224943   3.932   3.619   2.261 -0.0707  0.3495 -0.3394
 1151TIP3    H124944   3.933   3.690   2.197 -3.2300  1.0678  0.2212
 1151TIP3    H224945   3.900   3.543   2.212 -1.0583  0.5157  0.0311
 1152TIP3   OH224946   2.137   1.752   0.663 -0.5302  0.4469  0.2278
 1152TIP3    H124947   2.147   1.834   0.615  0.3426  0.4449  0.3915
 1152TIP3    H224948   2.121   1.779   0.754 -1.0857  0.4399  0.1345
 1153TIP3   OH224949   5.721   2.855  14.156  0.4244  0.5022 -0.3055
 1153TIP3    H124950   5.814   2.850  14.178  0.5742  3.3684  0.0870
 1153TIP3    H224951   5.697   2.766  14.132  3.3882 -0.2273 -0.9052
 1154TIP3   OH224952   4.011   6.461  14.252 -0.4843  0.2182 -0.4737
 1154TIP3    H124953   4.058   6.433  14.173 -0.8249  0.5475 -0.7969
 1154TIP3    H224954   4.025   6.555  14.256  0.2038  0.0947  0.3092
 1155TIP3   OH224955   2.436   6.000   5.060  0.0693  0.5627  0.0102
 1155TIP3    H124956   2.447   6.017   4.966 -2.0759  1.2128 -0.1677
 1155TIP3    H224957   2.384   5.920   5.064 -3.3247  2.6090  0.4531
 1156TIP3   OH224958   1.968   4.504   0.620 -0.2862  0.2555  0.6795
 1156TIP3    H124959   2.026   4.573   0.587 -0.5887  0.3374  0.3111
 1156TIP3    H224960   1.939   4.457   0.542 -1.5828  0.8953  0.7411
 1157TIP3   OH224961   5.324   5.549   5.802  0.9981  0.1614 -0.0033
 1157TIP3    H124962   5.400   5.495   5.822  1.3066 -0.2129 -1.9801
 1157TIP3    H224963   5.311   5.539   5.708 -0.5635  1.4483  0.0207
 1158TIP3   OH224964   4.878   4.805  12.678 -0.1008 -0.0126 -0.3294
 1158TIP3    H124965   4.898   4.861  12.753 -0.7398  0.9004 -0.8162
 1158TIP3    H224966   4.814   4.855  12.628 -2.4480 -2.1339  0.3632
 1159TIP3   OH224967   3.869   4.901   1.595 -0.5107 -0.2839 -0.3182
 1159TIP3    H124968   3.803   4.835   1.572 -0.8967 -0.4890  1.2648
 1159TIP3    H224969   3.838   4.982   1.555 -1.4077 -0.5216 -0.1281
 1160TIP3   OH224970   4.515   3.793   5.657  0.4330 -0.7180 -0.6750
 1160TIP3    H124971   4.432   3.825   5.692  0.3358 -1.9437  0.3034
 1160TIP3    H224972   4.491   3.720   5.600  0.7465 -0.0699 -1.6550
 1161TIP3   OH224973   2.222   0.818   5.332 -0.2640  0.0238 -0.6900
 1161TIP3    H124974   2.235   0.772   5.415 -2.6854 -0.8309 -0.7048
 1161TIP3    H224975   2.305   0.807   5.285 -0.2728 -3.3158 -0.1662
 1162TIP3   OH224976   0.561   3.723   3.036 -0.4873  0.0551  0.1324
 1162TIP3    H124977   0.510   3.659   3.086 -0.7175  0.4414  0.3893
 1162TIP3    H224978   0.545   3.700   2.945  0.3114 -0.9543  0.2245
 1163TIP3   OH224979   2.614   6.270  13.718 -0.1504 -0.2182 -0.1082
 1163TIP3    H124980   2.600   6.308  13.631  0.7229  0.4224  0.0196
 1163TIP3    H224981   2.552   6.317  13.774  1.8472  2.1107  0.3214
 1164TIP3   OH224982   1.908   5.600   3.200  0.7057  0.1847 -0.0798
 1164TIP3    H124983   1.820   5.562   3.202  0.4753  0.5817 -1.4262
 1164TIP3    H224984   1.967   5.526   3.211  0.2289 -0.3878 -1.1516
 1165TIP3   OH224985   4.737   5.052  10.208 -0.0002 -0.0904 -0.0662
 1165TIP3    H124986   4.733   4.960  10.234 -1.5249 -0.6967 -2.1554
 1165TIP3    H224987   4.689   5.055  10.125 -1.4072  2.8652  0.7272
 1166TIP3   OH224988   5.072   3.312  16.086  1.0047 -0.2794  0.1579
 1166TIP3    H124989   5.045   3.309  15.994 -0.0160  0.7114  0.4070
 1166TIP3    H224990   5.047   3.226  16.121  2.9967 -1.3492 -0.8837
 1167TIP3   OH224991   4.127   1.591   0.976  0.9269 -0.2866  0.6809
 1167TIP3    H124992   4.038   1.557   0.964  0.9269 -0.5200  1.2728
 1167TIP3    H224993   4.165   1.591   0.889  0.0492  0.6422  0.2839
 1168TIP3   OH224994   2.259   0.058   1.645  0.2386  0.1747  0.1239
 1168TIP3    H124995   2.257   0.154   1.656 -2.1262  0.2537 -0.3121
 1168TIP3    H224996   2.255   0.024   1.734  1.5166  0.4409  0.3075
 1169TIP3   OH224997   4.047   2.509   2.980  0.2507  0.5019  0.3208
 1169TIP3    H124998   3.956   2.484   2.962  0.0665  0.7022  0.9586
 1169TIP3    H224999   4.063   2.584   2.922 -0.5441  1.5489  1.4070
 1170TIP3   OH225000   6.415   3.072   1.603 -0.4657  0.9193  0.3157
 1170TIP3    H125001   6.410   3.029   1.688 -0.6307  1.7315  0.7237
 1170TIP3    H225002   6.499   3.117   1.604 -0.0937  0.2695 -0.2847
 1171TIP3   OH225003   1.148   4.480  16.605  0.1469  0.3621  0.3799
 1171TIP3    H125004   1.111   4.483  16.693  0.0976 -0.1601  0.3795
 1171TIP3    H225005   1.092   4.418  16.558  1.1821 -0.6711  0.4594
 1172TIP3   OH225006   2.963   5.776   1.164 -0.1696  0.1236 -0.4069
 1172TIP3    H125007   2.896   5.712   1.188 -0.0512  0.0205 -0.3524
 1172TIP3    H225008   3.038   5.724   1.136 -0.0083  0.2338 -0.1881
 1173TIP3   OH225009   4.070   3.386  12.741 -0.5688  0.1207  0.3924
 1173TIP3    H125010   3.975   3.382  12.731 -0.6528 -0.1702  1.2035
 1173TIP3    H225011   4.089   3.480  12.748 -0.5371  0.3372 -1.8394
 1174TIP3   OH225012   6.393   4.116  16.778 -0.2241 -1.3306 -0.2106
 1174TIP3    H125013   6.351   4.180  16.720 -0.9251  0.5600  2.2463
 1174TIP3    H225014   6.487   4.130  16.764 -0.3398  0.7868  0.7399
 1175TIP3   OH225015   4.972   6.097   1.984 -0.2565 -0.4097 -0.2631
 1175TIP3    H125016   5.039   6.131   2.044  0.4765 -0.8635 -0.8111
 1175TIP3    H225017   4.984   6.148   1.904 -0.1263 -0.9422 -0.5875
 1176TIP3   OH225018   3.103   4.270   6.436  0.5495 -0.4549 -0.4453
 1176TIP3    H125019   3.011   4.244   6.441  1.0434 -2.2467  0.3032
 1176TIP3    H225020   3.102   4.365   6.441 -1.2652 -0.4529 -0.4524
 1177TIP3   OH225021   1.784   2.956  12.921 -1.3300 -0.5914  0.2123
 1177TIP3    H125022   1.722   2.969  12.994  0.9611 -0.2432  2.2364
 1177TIP3    H225023   1.861   2.916  12.962  0.3261  0.2254 -1.9042
 1178TIP3   OH225024   6.009   1.739  13.829  0.5250  0.3470  0.0801
 1178TIP3    H125025   6.036   1.764  13.917 -1.5573  0.2438  0.8073
 1178TIP3    H225026   5.983   1.821  13.788  0.0040  0.2067  0.1240
 1179TIP3   OH225027   5.596   4.603  13.962  0.2719 -0.1685 -0.2912
 1179TIP3    H125028   5.578   4.656  13.884  0.4045 -0.7900 -0.7486
 1179TIP3    H225029   5.686   4.625  13.986  0.0958  0.3272 -0.0675
 1180TIP3   OH225030   1.808   2.733  12.744  0.7548 -0.0568 -0.1732
 1180TIP3    H125031   1.783   2.679  12.819  1.9141 -0.5437 -0.1121
 1180TIP3    H225032   1.786   2.823  12.770  3.6279  0.1868  1.9732
 1181TIP3   OH225033   1.691   6.768   5.416  0.0939 -0.1029 -0.0499
 1181TIP3    H125034   1.662   6.834   5.479 -1.5087 -0.9509  0.1765
 1181TIP3    H225035   1.779   6.794   5.392  0.6157  0.4878  2.2329
 1182TIP3   OH225036   4.295   4.256   1.301  0.2212  0.5890 -0.4036
 1182TIP3    H125037   4.208   4.235   1.267 -0.7805  1.5241  1.3974
 1182TIP3    H225038   4.342   4.295   1.227 -1.0624  0.5330 -1.2736
 1183TIP3   OH225039   2.315   6.328   5.346 -0.0309 -0.4129 -0.5462
 1183TIP3    H125040   2.349   6.247   5.385  0.8643 -0.1127 -0.6928
 1183TIP3    H225041   2.346   6.326   5.256  3.7864  2.0953  0.4678
 1184TIP3   OH225042   0.048   6.322  12.205 -0.0238  0.3659 -0.2924
 1184TIP3    H125043   0.022   6.321  12.113  0.8843  0.5260 -0.5585
 1184TIP3    H225044   0.130   6.274  12.207 -0.0720  0.3088  0.4529
 1185TIP3   OH225045   5.329   0.395  13.266 -0.0536  0.0017  0.1769
 1185TIP3    H125046   5.416   0.366  13.293 -0.0866  0.2563  0.5787
 1185TIP3    H225047   5.317   0.478  13.312 -0.4651  0.0195  0.0412
 1186TIP3   OH225048   2.163   6.003  10.583 -0.3849 -0.1893  0.4832
 1186TIP3    H125049   2.139   5.912  10.603 -3.2010  0.0517 -1.1546
 1186TIP3    H225050   2.082   6.052  10.596  1.3109  2.3621  2.3466
 1187TIP3   OH225051   0.393   0.894   3.401  0.0111  0.4020 -0.1264
 1187TIP3    H125052   0.444   0.839   3.460 -1.6622 -1.9302 -0.7311
 1187TIP3    H225053   0.330   0.939   3.459 -0.3418 -0.3790  0.1175
 1188TIP3   OH225054   1.666   3.011  14.753 -0.3129  0.0435 -0.0833
 1188TIP3    H125055   1.653   2.946  14.684  0.1476  1.0659 -1.1707
 1188TIP3    H225056   1.585   3.062  14.755  0.6186  1.7560 -1.8247
 1189TIP3   OH225057   2.190   2.684  15.692 -0.3340 -0.1574  0.8173
 1189TIP3    H125058   2.157   2.716  15.608  1.2079  0.2064  0.3211
 1189TIP3    H225059   2.281   2.715  15.696  0.5072 -2.5297  1.3721
 1190TIP3   OH225060   6.335   6.214   5.193  0.1788  0.0932  0.2154
 1190TIP3    H125061   6.375   6.273   5.129 -1.2506  1.5543  0.6207
 1190TIP3    H225062   6.276   6.160   5.141  0.0089  0.3744  0.1122
 1191TIP3   OH225063   5.559   2.306   3.194  0.3028  0.5794  0.0602
 1191TIP3    H125064   5.558   2.384   3.139  0.3217  1.2503  0.9827
 1191TIP3    H225065   5.634   2.256   3.164 -1.5319 -0.7470 -2.7436
 1192TIP3   OH225066   2.245   2.604  16.439  0.5062 -0.0742  0.3216
 1192TIP3    H125067   2.213   2.695  16.435  0.4621 -0.1203 -0.5235
 1192TIP3    H225068   2.326   2.605  16.389  0.6726 -0.4348  0.5864
 1193TIP3   OH225069   0.940   4.005  16.319  0.0461  0.3833  0.2071
 1193TIP3    H125070   1.007   4.073  16.313 -0.5390  0.9854  0.3455
 1193TIP3    H225071   0.893   4.025  16.401  1.2332 -1.4658  1.4151
 1194TIP3   OH225072   2.319   6.221   6.307  0.5699  0.1430 -0.9666
 1194TIP3    H125073   2.310   6.252   6.397  1.1876 -1.3217 -0.3884
 1194TIP3    H225074   2.255   6.150   6.299  1.7471 -0.9131 -1.1399
 1195TIP3   OH225075   2.619   6.367   5.518 -0.4600  0.8567 -0.0374
 1195TIP3    H125076   2.651   6.304   5.453 -0.6077 -0.1176  0.8060
 1195TIP3    H225077   2.588   6.313   5.591 -2.4504  1.8020 -0.1046
 1196TIP3   OH225078   4.318   2.861   6.789  0.3031 -0.1361 -0.3910
 1196TIP3    H125079   4.234   2.904   6.768 -0.3567 -0.8563  0.6613
 1196TIP3    H225080   4.381   2.902   6.731 -0.3093  2.2145  0.4891
 1197TIP3   OH225081   1.920   6.749  15.141  0.2148 -0.2172  0.0443
 1197TIP3    H125082   1.916   6.783  15.051 -1.2814 -1.3695 -0.3842
 1197TIP3    H225083   1.866   6.669  15.138  1.6059 -1.2847  1.5440
 1198TIP3   OH225084   2.025   6.036  12.518 -0.5678 -0.7294  0.5301
 1198TIP3    H125085   2.057   6.089  12.446 -2.3418  0.8118  0.8010
 1198TIP3    H225086   2.086   5.963  12.523  0.7823  0.2112 -1.1757
 1199TIP3   OH225087   0.708   1.410   3.523 -0.5908  0.9736  0.2493
 1199TIP3    H125088   0.654   1.385   3.598 -1.4378  1.6150 -0.1274
 1199TIP3    H225089   0.798   1.406   3.555 -0.8159 -0.5248  0.7720
 1200TIP3   OH225090   0.348   5.916   6.435 -0.0546 -0.5009  0.4351
 1200TIP3    H125091   0.440   5.939   6.442 -0.6417  2.7507 -0.6579
 1200TIP3    H225092   0.345   5.848   6.368  1.5522 -0.6744  0.5168
 1201TIP3   OH225093   4.606   5.673   4.411  0.0521 -0.4269 -0.8047
 1201TIP3    H125094   4.691   5.704   4.445 -0.1689 -2.4622  1.9872
 1201TIP3    H225095   4.626   5.588   4.372 -0.8827 -1.9594  1.8065
 1202TIP3   OH225096   4.384   3.224  15.388 -0.2557  0.2068  0.7916
 1202TIP3    H125097   4.383   3.211  15.483 -1.1217  0.3126  0.8067
 1202TIP3    H225098   4.293   3.213  15.362 -0.1019  0.6829  0.0349
 1203TIP3   OH225099   1.322   1.822   1.337 -0.2042  0.0505  0.1017
 1203TIP3    H125100   1.400   1.769   1.319  0.2041  0.7272 -0.1493
 1203TIP3    H225101   1.252   1.776   1.291  0.1784 -0.1751 -0.2709
 1204TIP3   OH225102   5.857   0.246   1.871  0.0010  0.3634  0.5205
 1204TIP3    H125103   5.939   0.202   1.851  0.3313  1.0290  0.3751
 1204TIP3    H225104   5.790   0.178   1.863  0.3424  0.1635 -0.9511
 1205TIP3   OH225105   3.546   4.242  11.891 -0.3647 -0.0368 -0.0811
 1205TIP3    H125106   3.613   4.226  11.957 -0.6865 -0.8554  0.0556
 1205TIP3    H225107   3.577   4.196  11.813 -0.6061 -0.1445 -0.1148
 1206TIP3   OH225108   2.133   5.902   5.683  0.9601  0.1875 -0.5704
 1206TIP3    H125109   2.122   5.946   5.768  0.7667 -1.3378  0.2287
 1206TIP3    H225110   2.121   5.809   5.703 -0.0513 -0.1242 -2.4444
 1207TIP3   OH225111   5.291   4.586   1.001 -0.2024  0.8099  0.2710
 1207TIP3    H125112   5.301   4.604   1.095  1.7174  1.6257 -0.0392
 1207TIP3    H225113   5.328   4.499   0.989 -0.4290  0.7143  0.2599
 1208TIP3   OH225114   6.838   6.096  12.954 -0.7169  0.0827 -0.3070
 1208TIP3    H125115   6.791   6.065  12.876 -0.1631 -0.5453 -0.4028
 1208TIP3    H225116   6.924   6.123  12.921  0.3071 -2.1621  0.3491
 1209TIP3   OH225117   5.002   6.313  10.753 -0.1623 -0.1621 -0.3572
 1209TIP3    H125118   4.947   6.371  10.701  1.5640  3.0455  1.0358
 1209TIP3    H225119   5.071   6.284  10.693 -1.8358 -2.0967 -1.4402
 1210TIP3   OH225120   5.474   5.670   0.664  0.2453 -0.1431  0.2793
 1210TIP3    H125121   5.392   5.687   0.619  1.1472 -1.7488 -2.1991
 1210TIP3    H225122   5.540   5.720   0.616  0.9296 -0.0320  1.2976
 1211TIP3   OH225123   1.875   5.158   2.305 -0.0616  0.1710  0.2748
 1211TIP3    H125124   1.840   5.245   2.288 -0.5307  0.1242  0.9609
 1211TIP3    H225125   1.863   5.111   2.223  1.5138  1.1657 -0.5708
 1212TIP3   OH225126   5.787   1.448   2.871 -0.3242  0.0073 -0.0861
 1212TIP3    H125127   5.695   1.435   2.847  0.2717 -2.0735 -1.5107
 1212TIP3    H225128   5.793   1.416   2.961 -0.5967 -2.0266 -0.7460
 1213TIP3   OH225129   0.299   3.327  11.833  0.2544 -0.3506  0.1414
 1213TIP3    H125130   0.263   3.329  11.744  0.5700 -0.6730  0.0052
 1213TIP3    H225131   0.341   3.412  11.845  0.0158 -0.2213  0.0650
 1214TIP3   OH225132   0.715   5.703   3.677 -0.0838  0.3929 -0.0781
 1214TIP3    H125133   0.761   5.644   3.737 -0.9433 -1.3433 -1.0766
 1214TIP3    H225134   0.780   5.722   3.609  1.0022  2.6238  1.4612
 1215TIP3   OH225135   4.943   2.784  12.884  0.3859 -0.7696 -0.1217
 1215TIP3    H125136   4.895   2.829  12.815 -1.1622 -0.2443  1.2288
 1215TIP3    H225137   4.980   2.855  12.937 -2.1290 -0.9077  2.0603
 1216TIP3   OH225138   3.357   2.227  10.514 -0.0653 -0.8037  0.0878
 1216TIP3    H125139   3.412   2.185  10.580  0.3746  0.1883  0.3749
 1216TIP3    H225140   3.409   2.302  10.484 -0.8613 -0.4166 -0.3429
 1217TIP3   OH225141   5.827   6.262   2.172  0.3313 -0.7849  0.7954
 1217TIP3    H125142   5.834   6.286   2.080  1.5398 -3.2702  0.1612
 1217TIP3    H225143   5.737   6.282   2.196 -0.4485 -1.4675 -1.3603
 1218TIP3   OH225144   2.442   5.228  10.326 -0.1731  0.0397  0.2103
 1218TIP3    H125145   2.384   5.290  10.283 -0.2652 -0.9088 -1.1046
 1218TIP3    H225146   2.521   5.226  10.271 -0.1834 -1.0024  0.2066
 1219TIP3   OH225147   2.963   0.583  15.174  0.3227  0.3591  0.3563
 1219TIP3    H125148   2.994   0.654  15.118 -2.1878  0.3851 -1.1444
 1219TIP3    H225149   2.869   0.597  15.181 -0.7802 -3.9241 -1.9019
 1220TIP3   OH225150   2.132   2.992   4.818 -0.4517 -0.2194 -0.5216
 1220TIP3    H125151   2.186   3.040   4.881  0.3128 -0.7427 -0.7540
 1220TIP3    H225152   2.066   2.949   4.872 -2.4032  2.5932 -0.4756
 1221TIP3   OH225153   0.446   5.472   4.186  0.0199 -0.2157  0.1755
 1221TIP3    H125154   0.533   5.432   4.180 -0.2410 -0.6034 -1.3376
 1221TIP3    H225155   0.431   5.511   4.100 -1.3501 -0.2360  0.3860
 1222TIP3   OH225156   2.690   4.583  12.734  0.2638 -0.0853 -0.2247
 1222TIP3    H125157   2.772   4.549  12.768 -0.5398 -3.1013 -0.9729
 1222TIP3    H225158   2.687   4.552  12.643 -3.2579 -3.6089  0.7595
 1223TIP3   OH225159   4.994   5.928  13.295  0.2740 -0.0252  1.0466
 1223TIP3    H125160   5.087   5.919  13.312  0.0332 -1.1316  1.9138
 1223TIP3    H225161   4.958   5.968  13.374  0.0114  0.5185  0.6694
 1224TIP3   OH225162   2.022   1.754   1.797 -0.4291 -0.1066  0.7102
 1224TIP3    H125163   2.113   1.725   1.793 -0.3603  0.0451  1.1724
 1224TIP3    H225164   1.980   1.712   1.722 -0.2522 -1.1412  1.1681
 1225TIP3   OH225165   0.462   0.991   4.402 -0.1393  0.5819  0.0037
 1225TIP3    H125166   0.419   0.981   4.488  0.5649  2.2511  0.5833
 1225TIP3    H225167   0.389   0.997   4.340 -0.6614 -0.9238  0.4167
 1226TIP3   OH225168   4.636   5.422  14.893 -0.4207  0.5193  0.3311
 1226TIP3    H125169   4.585   5.346  14.923  0.3787 -0.4071 -0.5791
 1226TIP3    H225170   4.591   5.497  14.930 -0.6540 -0.4476  2.1234
 1227TIP3   OH225171   1.578   0.042   1.648 -0.0011  0.6100 -0.3278
 1227TIP3    H125172   1.644  -0.010   1.693  1.4807  1.4470 -1.4484
 1227TIP3    H225173   1.562  -0.004   1.566  0.1803  1.0843 -0.6388
 1228TIP3   OH225174   0.308   0.636   0.499 -0.2253 -0.1666 -0.2949
 1228TIP3    H125175   0.295   0.541   0.505  0.7956 -0.3926 -1.3113
 1228TIP3    H225176   0.364   0.648   0.423  2.0001  1.0423  1.4087
 1229TIP3   OH225177   4.575   3.319  15.724 -0.3683  0.0397  0.1504
 1229TIP3    H125178   4.588   3.374  15.802 -4.5253  2.6556 -0.7222
 1229TIP3    H225179   4.628   3.361  15.656 -0.2525  0.4484  0.4890
 1230TIP3   OH225180   2.683   1.105  15.514  0.7148  0.1904 -0.0696
 1230TIP3    H125181   2.732   1.120  15.433  1.0979 -0.4581  0.0342
 1230TIP3    H225182   2.741   1.139  15.583  1.3018 -1.1130  0.1075
 1231TIP3   OH225183   2.284   3.481   5.525  0.3445  0.7829  1.1498
 1231TIP3    H125184   2.376   3.484   5.497 -0.0053  0.3063 -0.1306
 1231TIP3    H225185   2.239   3.543   5.468 -0.5823 -1.0297 -0.1717
 1232TIP3   OH225186   1.140   0.131  15.434  0.4286  0.1341  0.0104
 1232TIP3    H125187   1.234   0.137  15.420  0.6868  1.8224  1.8799
 1232TIP3    H225188   1.131   0.107  15.526 -0.9597  0.0067 -0.1372
 1233TIP3   OH225189   1.994   2.624   4.604  0.3401  0.1439  0.1472
 1233TIP3    H125190   2.082   2.661   4.593 -0.3228  1.6824 -0.2173
 1233TIP3    H225191   1.975   2.634   4.698  0.8062 -0.8317  0.3592
 1234TIP3   OH225192   6.712   3.733   2.558  0.0511 -0.4579  0.2127
 1234TIP3    H125193   6.766   3.789   2.503  0.3804 -0.0750  0.9122
 1234TIP3    H225194   6.671   3.671   2.497 -0.6682  0.8042 -0.6304
 1235TIP3   OH225195   6.302   6.064  11.365 -0.8716 -0.1366 -0.3555
 1235TIP3    H125196   6.262   5.990  11.319  1.7621 -1.6740 -0.3646
 1235TIP3    H225197   6.372   6.025  11.417  2.4166  2.5343 -2.3784
 1236TIP3   OH225198   2.697   0.878  14.405  0.2099 -0.4587 -0.4043
 1236TIP3    H125199   2.742   0.880  14.490  0.5391 -1.5057 -0.5324
 1236TIP3    H225200   2.607   0.855  14.426  0.2702 -0.6272 -0.3274
 1237TIP3   OH225201   2.724   5.620  11.965 -0.1573 -0.3877  0.1893
 1237TIP3    H125202   2.703   5.546  11.908 -2.3780  0.2740  0.0720
 1237TIP3    H225203   2.693   5.592  12.052  1.1617 -0.5039  0.6386
 1238TIP3   OH225204   0.211   6.724  11.641 -0.6107  0.0070 -0.0088
 1238TIP3    H125205   0.119   6.704  11.659 -0.8432 -0.5761 -1.7008
 1238TIP3    H225206   0.259   6.656  11.688 -1.0582  0.0781  0.5637
 1239TIP3   OH225207   3.835   1.832  16.895 -0.1137 -0.2241 -0.0395
 1239TIP3    H125208   3.754   1.862  16.854 -0.5090 -2.0844 -0.7268
 1239TIP3    H225209   3.809   1.808  16.984 -0.3708 -0.8900 -0.2827
 1240TIP3   OH225210   2.607   5.325  11.417 -0.0632  0.2276 -0.1611
 1240TIP3    H125211   2.568   5.341  11.503 -0.8640  0.9591 -0.6402
 1240TIP3    H225212   2.581   5.401  11.364  2.1868  0.8715 -0.4628
 1241TIP3   OH225213   1.413   0.493   2.074 -0.1488 -0.0054  0.1006
 1241TIP3    H125214   1.365   0.522   2.151  1.1064  1.9109  0.2488
 1241TIP3    H225215   1.504   0.514   2.093  0.4773 -1.5294 -1.0299
 1242TIP3   OH225216   1.458   1.190  12.918 -0.5179 -0.0282  0.0319
 1242TIP3    H125217   1.376   1.189  12.869 -0.2273 -2.3867 -0.5230
 1242TIP3    H225218   1.522   1.147  12.861  0.6150 -0.0516  1.2439
 1243TIP3   OH225219   2.430   3.454  13.910 -0.2076  0.0762 -0.3495
 1243TIP3    H125220   2.456   3.534  13.955 -1.3323  0.8997 -1.1369
 1243TIP3    H225221   2.452   3.469  13.818 -1.1496 -0.1855 -0.6294
 1244TIP3   OH225222   4.550   1.772   0.685 -0.2565  0.1645 -0.7657
 1244TIP3    H125223   4.578   1.717   0.612 -0.4500  0.6104 -1.1733
 1244TIP3    H225224   4.591   1.857   0.669 -1.0796  0.5501 -0.8758
 1245TIP3   OH225225   3.305   3.681  16.376 -0.2421 -0.4610  0.0374
 1245TIP3    H125226   3.356   3.617  16.426 -0.2799 -1.2956 -0.9673
 1245TIP3    H225227   3.346   3.765  16.397  0.5341 -0.9353  0.4892
 1246TIP3   OH225228   0.654   0.521   0.411  0.3576 -0.0992  0.1987
 1246TIP3    H125229   0.705   0.574   0.473  0.9479  0.0810 -0.4332
 1246TIP3    H225230   0.601   0.585   0.363 -0.1977 -0.2523  0.5938
 1247TIP3   OH225231   1.534   0.933   4.133 -0.0552 -0.1364  0.1758
 1247TIP3    H125232   1.625   0.911   4.114 -0.2876  0.2239 -1.4668
 1247TIP3    H225233   1.511   0.877   4.207  0.8142 -1.9004 -0.8320
 1248TIP3   OH225234   0.139   6.140   4.453 -0.3948  0.2198 -0.0599
 1248TIP3    H125235   0.196   6.064   4.457  0.9265  1.2183  0.8416
 1248TIP3    H225236   0.165   6.186   4.372  1.0781  1.3734  1.0076
 1249TIP3   OH225237   0.801   5.442  11.517 -0.1811 -0.0169  0.4773
 1249TIP3    H125238   0.859   5.507  11.556 -0.8627  1.4593 -0.8754
 1249TIP3    H225239   0.757   5.401  11.592 -0.3743  1.6862  1.3489
 1250TIP3   OH225240   5.321   5.408   5.085 -0.1851 -0.2977 -0.7140
 1250TIP3    H125241   5.278   5.326   5.110  1.9137 -1.2925 -0.1387
 1250TIP3    H225242   5.301   5.419   4.993 -0.9950 -1.1472 -0.6498
 1251TIP3   OH225243   2.864   6.550   2.562  0.1556 -0.5616  0.5895
 1251TIP3    H125244   2.820   6.632   2.583 -0.6946 -1.2535  1.5436
 1251TIP3    H225245   2.856   6.543   2.466  0.5324  0.6172  0.4531
 1252TIP3   OH225246   4.050   6.202  14.783  0.3940  0.0022  0.7522
 1252TIP3    H125247   4.121   6.148  14.747 -1.5712 -1.9237 -0.5013
 1252TIP3    H225248   4.035   6.269  14.716  0.5801  0.0097  0.7154
 1253TIP3   OH225249   3.881   2.765   3.433  0.1615 -0.3623  0.1236
 1253TIP3    H125250   3.956   2.763   3.492 -0.4695  1.7942  1.0933
 1253TIP3    H225251   3.827   2.838   3.465 -0.2730  0.8620 -3.0424
 1254TIP3   OH225252   0.845   2.587  10.458  0.2909  0.4762  0.1232
 1254TIP3    H125253   0.805   2.505  10.430 -1.7436  1.2843  0.4855
 1254TIP3    H225254   0.780   2.627  10.516  0.7460  2.8499 -0.8650
 1255TIP3   OH225255   6.368   5.559   5.558  0.2454  0.4175 -0.4476
 1255TIP3    H125256   6.278   5.526   5.555  0.6765 -0.7639 -2.4060
 1255TIP3    H225257   6.419   5.484   5.589  0.8697  0.1695 -2.0062
 1256TIP3   OH225258   4.676   6.116   6.007 -0.4259 -0.2034  0.2154
 1256TIP3    H125259   4.700   6.206   5.987 -1.4001 -0.0772 -0.4864
 1256TIP3    H225260   4.688   6.108   6.102  0.9223  0.2592  0.0957
 1257TIP3   OH225261   0.055   2.700   2.355  0.3809 -0.5413  0.4782
 1257TIP3    H125262  -0.032   2.725   2.324  0.6847 -1.4616 -1.2167
 1257TIP3    H225263   0.039   2.636   2.423 -0.2753 -0.4683  0.3993
 1258TIP3   OH225264   1.945   1.522  13.737 -0.6007 -0.0666 -0.2840
 1258TIP3    H125265   1.911   1.609  13.717  0.6399  0.5309  0.1117
 1258TIP3    H225266   1.879   1.483  13.795 -0.1566  1.4561  1.3307
 1259TIP3   OH225267   4.894   0.810  16.600  0.2165 -0.3615 -0.6214
 1259TIP3    H125268   4.804   0.832  16.577  0.1978  0.0141 -0.2169
 1259TIP3    H225269   4.892   0.799  16.695  0.8866  1.2027 -0.3877
 1260TIP3   OH225270   2.758   3.670  11.692  0.0259 -0.1187 -0.0885
 1260TIP3    H125271   2.790   3.714  11.613 -0.9274 -0.1159 -0.4768
 1260TIP3    H225272   2.736   3.581  11.663 -0.5976 -0.0318  0.1049
 1261TIP3   OH225273   2.224   4.816  11.851  0.3681 -0.1280  0.7940
 1261TIP3    H125274   2.309   4.818  11.807  0.0643  1.7468  0.2341
 1261TIP3    H225275   2.242   4.774  11.935  1.7513 -0.1327  0.5208
 1262TIP3   OH225276   3.396   3.316   1.290  0.4941  0.0225  0.4123
 1262TIP3    H125277   3.315   3.333   1.243  0.4726 -1.9772 -0.3713
 1262TIP3    H225278   3.461   3.373   1.248 -0.1874  0.5797  0.1010
 1263TIP3   OH225279   1.367   0.300   0.227  0.1991  0.4029 -0.0552
 1263TIP3    H125280   1.336   0.323   0.139  1.6267  1.2140 -0.3792
 1263TIP3    H225281   1.341   0.375   0.282  0.0449  0.2809  0.0383
 1264TIP3   OH225282   1.143   4.596  11.323 -0.5524  0.8328 -0.3880
 1264TIP3    H125283   1.174   4.670  11.271 -0.5555  0.4072 -1.0216
 1264TIP3    H225284   1.221   4.541  11.335 -0.5471  0.9411  0.0843
 1265TIP3   OH225285   3.672   1.774   5.225 -0.6909 -0.7893  0.5117
 1265TIP3    H125286   3.717   1.709   5.279  1.0898 -0.5525 -0.6035
 1265TIP3    H225287   3.659   1.849   5.283  0.6201 -0.7732  0.8173
 1266TIP3   OH225288   6.135   0.255   4.381  0.3790  0.0695  0.1974
 1266TIP3    H125289   6.128   0.255   4.476  1.8445  1.5303  0.3586
 1266TIP3    H225290   6.089   0.176   4.353  0.5994 -0.8135  2.1669
 1267TIP3   OH225291   6.016   6.693   1.425 -0.3484  0.1438  0.5230
 1267TIP3    H125292   6.043   6.636   1.498 -1.2817 -0.4683  0.4133
 1267TIP3    H225293   5.931   6.727   1.451  0.9292  2.9294  1.3554
 1268TIP3   OH225294   0.710   3.878   6.063  0.1747  0.2077  0.6163
 1268TIP3    H125295   0.747   3.958   6.102  2.3722 -1.3637  1.9861
 1268TIP3    H225296   0.646   3.848   6.127  0.1078  0.3103  0.5985
 1269TIP3   OH225297   5.240   6.759   4.210  0.3694 -0.7661 -0.0924
 1269TIP3    H125298   5.268   6.680   4.164  0.5092 -0.9169  0.2498
 1269TIP3    H225299   5.277   6.831   4.159  3.3473 -0.9701  1.5435
 1270TIP3   OH225300   4.963   6.665   6.462 -0.0347  0.1098  0.1306
 1270TIP3    H125301   4.940   6.656   6.555 -0.1356  2.1858  0.3563
 1270TIP3    H225302   4.896   6.613   6.416  0.0873 -1.0418  1.1903
 1271TIP3   OH225303   0.776   1.526  13.157 -0.0165  0.4363  0.5418
 1271TIP3    H125304   0.786   1.462  13.228 -1.5528 -1.9215 -1.2121
 1271TIP3    H225305   0.716   1.591  13.192  0.2837  0.0313  1.8548
 1272TIP3   OH225306   3.632   6.442  15.536 -0.1995 -0.1608 -0.2058
 1272TIP3    H125307   3.629   6.395  15.453  0.4914  1.2202 -1.0527
 1272TIP3    H225308   3.725   6.445  15.558 -0.3061  0.1560  0.2180
 1273TIP3   OH225309   2.450   3.260   2.254  0.6611  0.0295  0.2839
 1273TIP3    H125310   2.466   3.348   2.288  0.9988 -0.7185  2.1714
 1273TIP3    H225311   2.366   3.267   2.209  1.1343  1.5227 -0.4516
 1274TIP3   OH225312   5.479   5.058   0.852 -0.0969 -0.3418 -0.8200
 1274TIP3    H125313   5.449   5.146   0.830  0.7859 -0.1379 -1.2432
 1274TIP3    H225314   5.572   5.068   0.871 -0.0642 -1.1277 -0.5127
 1275TIP3   OH225315   5.961   4.108  12.882  0.1265 -0.6334  0.7988
 1275TIP3    H125316   5.945   4.014  12.892  0.1739 -0.7622 -0.2244
 1275TIP3    H225317   5.886   4.150  12.924 -0.4082 -1.1549  0.3920
 1276TIP3   OH225318   1.117   3.948  11.800  0.2873  0.4470  0.5272
 1276TIP3    H125319   1.049   3.882  11.784  0.2355  0.4227  0.8507
 1276TIP3    H225320   1.199   3.898  11.797  0.2359  0.3365  0.9540
 1277TIP3   OH225321   2.070   2.876  16.871 -0.0784 -0.1391 -0.5118
 1277TIP3    H125322   2.015   2.801  16.891  0.4502 -0.5216 -0.4534
 1277TIP3    H225323   2.034   2.912  16.790 -2.0948  1.2760  0.9008
 1278TIP3   OH225324   3.652   4.560  16.567  0.2320 -0.0836  0.1657
 1278TIP3    H125325   3.643   4.479  16.616 -0.3029  0.5916  1.2216
 1278TIP3    H225326   3.718   4.541  16.500 -0.5296 -1.6479 -0.1907
 1279TIP3   OH225327   3.232   2.710   5.307 -0.8499  0.0066  0.4676
 1279TIP3    H125328   3.251   2.677   5.219 -0.4230  0.3902  0.4111
 1279TIP3    H225329   3.166   2.650   5.342  0.5520 -1.4591  0.7130
 1280TIP3   OH225330   1.179   2.200  13.863  0.0646 -0.2285  0.3906
 1280TIP3    H125331   1.226   2.212  13.781  0.5568  1.0916  0.8427
 1280TIP3    H225332   1.126   2.121  13.849  1.5619 -1.1213 -0.5146
 1281TIP3   OH225333   4.499   3.680  13.991  0.3370 -0.2555  0.1732
 1281TIP3    H125334   4.544   3.598  13.970 -0.7572 -0.3845 -1.9762
 1281TIP3    H225335   4.501   3.685  14.086  0.4357 -2.7777  0.3753
 1282TIP3   OH225336   5.678   2.904   3.613 -0.2978  0.5814 -0.4471
 1282TIP3    H125337   5.769   2.887   3.638 -0.7608 -0.2357  0.8256
 1282TIP3    H225338   5.659   2.839   3.545 -0.2438  0.0084  0.0746
 1283TIP3   OH225339   6.111   2.108   5.834  0.1735 -0.4710  0.2241
 1283TIP3    H125340   6.039   2.046   5.825 -0.9237  0.6532  0.8619
 1283TIP3    H225341   6.179   2.059   5.881 -0.4487 -1.3472  0.2434
 1284TIP3   OH225342   0.459   3.094  10.206  0.3720  0.5066 -0.0591
 1284TIP3    H125343   0.373   3.129  10.185 -0.4962 -1.0515  0.7522
 1284TIP3    H225344   0.511   3.109  10.127 -0.2260  2.6220 -0.1193
 1285TIP3   OH225345   2.664   0.175  17.004  0.2566 -0.1317  0.6951
 1285TIP3    H125346   2.580   0.174  16.958  0.7411  1.5613 -0.3052
 1285TIP3    H225347   2.692   0.083  17.003 -1.1895 -0.6037  0.3433
 1286TIP3   OH225348   2.239   0.490   1.171  0.1656  0.1647 -0.4525
 1286TIP3    H125349   2.219   0.516   1.261  3.3176  2.3717 -0.1983
 1286TIP3    H225350   2.168   0.526   1.118 -0.9339  0.1932  1.0080
 1287TIP3   OH225351   5.200   2.866   1.179  0.2796 -0.5586  0.0052
 1287TIP3    H125352   5.128   2.825   1.226  0.1796 -0.6154 -0.1984
 1287TIP3    H225353   5.275   2.809   1.195 -0.1265 -1.4747 -1.2546
 1288TIP3   OH225354   4.966   5.013   1.347 -0.3732  0.0310 -0.0365
 1288TIP3    H125355   4.961   4.919   1.329 -2.1208 -0.3468  1.9860
 1288TIP3    H225356   5.028   5.020   1.419 -0.7943  0.3377  0.2992
 1289TIP3   OH225357   2.894   1.704  14.154  0.1761  0.0068  0.7204
 1289TIP3    H125358   2.873   1.777  14.213  0.6454 -1.1081  2.3209
 1289TIP3    H225359   2.989   1.704  14.148  0.0986  1.1566 -1.4748
 1290TIP3   OH225360   2.748   4.233  14.859 -0.2402 -0.2541 -0.1310
 1290TIP3    H125361   2.696   4.312  14.844  0.1311  0.2282  0.9607
 1290TIP3    H225362   2.718   4.200  14.944 -1.5655 -2.2678 -1.3163
 1291TIP3   OH225363   0.444   0.004   5.631 -0.0475  0.2034  0.4643
 1291TIP3    H125364   0.483   0.023   5.545  0.9953 -3.1913  0.0519
 1291TIP3    H225365   0.512   0.032   5.694 -0.1333  1.1860  0.1407
 1292TIP3   OH225366   4.129   1.230  15.331 -0.4293 -0.2869  0.2519
 1292TIP3    H125367   4.170   1.147  15.358  0.2719  0.3732  1.3052
 1292TIP3    H225368   4.055   1.241  15.391  0.4847  0.6541  1.2458
 1293TIP3   OH225369   3.386   1.204   0.103  0.0370 -0.1082  0.1631
 1293TIP3    H125370   3.317   1.184   0.167  0.4880 -0.0914  0.6556
 1293TIP3    H225371   3.338   1.237   0.027 -0.6098 -1.4540 -0.0451
 1294TIP3   OH225372   1.157   2.472  13.742 -0.2439  0.1553 -0.1172
 1294TIP3    H125373   1.161   2.514  13.656 -0.5879  0.2932 -0.0670
 1294TIP3    H225374   1.126   2.383  13.724  1.4566 -0.4237 -0.3390
 1295TIP3   OH225375   5.054   0.129  15.745 -0.1369 -0.4613 -0.1905
 1295TIP3    H125376   5.146   0.103  15.734 -0.2998 -1.7424  1.0689
 1295TIP3    H225377   5.036   0.113  15.838 -1.4563  0.3789 -0.2823
 1296TIP3   OH225378   3.886   2.613   0.928  0.4483 -0.1892  0.1119
 1296TIP3    H125379   3.939   2.693   0.924 -0.1935  0.2105 -0.5221
 1296TIP3    H225380   3.947   2.544   0.902  0.6753  0.2654 -0.6194
 1297TIP3   OH225381   4.435   3.794  15.901 -0.3473 -0.8772  0.1030
 1297TIP3    H125382   4.502   3.862  15.902  0.4136 -1.5921  1.5176
 1297TIP3    H225383   4.370   3.823  15.966  0.9148 -2.3108  2.1213
 1298TIP3   OH225384   0.584   4.872   4.017 -0.1321 -0.3223  0.8693
 1298TIP3    H125385   0.591   4.801   3.953  1.4664 -0.5830  1.2680
 1298TIP3    H225386   0.648   4.937   3.987  0.6712 -0.4674  2.1871
 1299TIP3   OH225387   5.784   6.119  11.650  0.1297  0.0736  0.2231
 1299TIP3    H125388   5.705   6.171  11.666 -0.0950  0.5871 -2.1100
 1299TIP3    H225389   5.854   6.168  11.693 -0.1651  2.1163 -1.4522
 1300TIP3   OH225390   6.692   1.812   0.445  0.2252 -0.0269 -0.7275
 1300TIP3    H125391   6.751   1.765   0.386  0.7296 -0.7023  0.2862
 1300TIP3    H225392   6.740   1.818   0.527 -0.4478  0.9443 -0.3896
 1301TIP3   OH225393   1.226   3.547   2.700 -0.1876  0.0845 -0.8046
 1301TIP3    H125394   1.132   3.561   2.701 -0.0315  1.2273 -0.7955
 1301TIP3    H225395   1.242   3.481   2.767 -0.9291  0.2646 -0.4436
 1302TIP3   OH225396   2.231   4.745  11.148  0.1189  0.3096 -0.5996
 1302TIP3    H125397   2.282   4.796  11.085  1.2786  1.0804  0.8879
 1302TIP3    H225398   2.155   4.800  11.166 -0.6394 -0.2855 -1.9146
 1303TIP3   OH225399   4.158   2.384  12.705  0.4002 -0.0556 -0.3633
 1303TIP3    H125400   4.168   2.367  12.799  3.7759  1.8294 -0.2420
 1303TIP3    H225401   4.158   2.479  12.698 -1.2209 -0.1249 -2.2527
 1304TIP3   OH225402   6.377   3.138   0.011  0.3038 -0.3428 -0.3245
 1304TIP3    H125403   6.289   3.175   0.011  1.1612  1.9045  0.6978
 1304TIP3    H225404   6.395   3.119   0.103  0.3690 -2.1846 -0.6942
 1305TIP3   OH225405   3.600   6.847   0.468  0.0433 -0.4026  0.4186
 1305TIP3    H125406   3.628   6.831   0.558  1.2536 -1.4405 -0.1121
 1305TIP3    H225407   3.575   6.761   0.435  2.2833 -0.5378 -1.0872
 1306TIP3   OH225408   2.932   4.740   4.322 -0.3429 -0.2546 -0.2128
 1306TIP3    H125409   2.892   4.824   4.302  1.1736  0.7716  0.9064
 1306TIP3    H225410   2.872   4.699   4.385 -0.4431  0.5760  0.2434
 1307TIP3   OH225411   3.285   1.846   0.769  0.4576  0.0098  0.3603
 1307TIP3    H125412   3.296   1.905   0.694  1.8914  0.9194  1.2399
 1307TIP3    H225413   3.262   1.904   0.842  2.1432 -0.4342  1.3024
 1308TIP3   OH225414   3.595   1.401  14.067 -0.5959  0.1215  0.0385
 1308TIP3    H125415   3.685   1.424  14.089 -0.7647  0.8899 -0.0539
 1308TIP3    H225416   3.553   1.485  14.047 -1.4344 -0.1944  0.4485
 1309TIP3   OH225417   0.477   5.901  12.431 -0.2236 -0.4364 -0.2115
 1309TIP3    H125418   0.538   5.855  12.488 -0.2979  0.9350  1.0508
 1309TIP3    H225419   0.401   5.844  12.426 -0.1943 -0.6201  1.0547
 1310TIP3   OH225420   1.350   6.651   3.911 -0.1971 -0.1319 -0.6545
 1310TIP3    H125421   1.293   6.585   3.873 -0.8782  0.1254 -0.0917
 1310TIP3    H225422   1.325   6.655   4.003 -0.7021  1.4243 -0.8182
 1311TIP3   OH225423   3.638   1.995   3.698  0.2126 -0.0804 -0.1870
 1311TIP3    H125424   3.653   1.943   3.777  0.2916  0.2418  0.0122
 1311TIP3    H225425   3.572   1.946   3.649 -0.2075 -0.0339  0.3175
 1312TIP3   OH225426   3.341   0.214  15.861  0.1000  0.1833  0.1784
 1312TIP3    H125427   3.262   0.250  15.822  0.6150  1.0962 -0.0557
 1312TIP3    H225428   3.384   0.289  15.901  1.8005  0.0729 -1.3325
 1313TIP3   OH225429   2.070   5.143   2.699 -0.2811 -0.0726 -0.1577
 1313TIP3    H125430   2.069   5.123   2.606 -0.5076 -0.6692 -0.0316
 1313TIP3    H225431   2.158   5.119   2.728  0.4763  1.9499 -0.5885
 1314TIP3   OH225432   6.058   0.080  14.233  0.2358 -0.1289  0.1551
 1314TIP3    H125433   5.978   0.029  14.250  0.3257 -0.0668  0.7631
 1314TIP3    H225434   6.106   0.077  14.315  1.1076 -0.5888 -0.3640
 1315TIP3   OH225435   5.635   5.497   3.999 -0.4010 -0.0150 -0.3681
 1315TIP3    H125436   5.676   5.582   3.988 -0.2160 -0.2203 -1.3140
 1315TIP3    H225437   5.705   5.434   3.984 -0.5514 -0.3392  0.2504
 1316TIP3   OH225438   4.235   3.842   5.704 -0.8164  0.5735  0.0086
 1316TIP3    H125439   4.198   3.755   5.715 -1.8933  1.0426  0.2009
 1316TIP3    H225440   4.178   3.884   5.639 -0.6015  1.2941  0.2789
 1317TIP3   OH225441   3.863   2.724   4.748 -0.0814  0.2956  0.0752
 1317TIP3    H125442   3.770   2.731   4.726 -0.0877 -1.3916 -0.6477
 1317TIP3    H225443   3.868   2.647   4.804  0.8256  0.6276  0.4546
 1318TIP3   OH225444   5.605   3.735   0.386 -0.0811  1.0290 -0.3920
 1318TIP3    H125445   5.599   3.641   0.366 -4.1409  1.0881 -0.2540
 1318TIP3    H225446   5.574   3.742   0.476 -3.7127  2.6940 -1.5941
 1319TIP3   OH225447   4.819   3.530   1.146  0.3732  0.3146 -0.6129
 1319TIP3    H125448   4.788   3.598   1.086  0.4019  0.5773 -0.3324
 1319TIP3    H225449   4.864   3.577   1.216  2.7407 -0.1137 -1.7324
 1320TIP3   OH225450   2.445   1.963   5.934 -0.2292  0.0832  0.3569
 1320TIP3    H125451   2.387   1.934   6.004  0.7651 -1.0441  0.7509
 1320TIP3    H225452   2.514   2.013   5.978  2.5769 -3.7753  0.8971
 1321TIP3   OH225453   4.027   2.122   0.550  0.3796 -0.2112  0.0133
 1321TIP3    H125454   4.031   2.044   0.605  0.5419 -1.4075 -1.6283
 1321TIP3    H225455   4.091   2.181   0.589  0.7194 -1.1322  0.9194
 1322TIP3   OH225456   5.084   4.954   5.044 -0.6270  0.4144  0.0158
 1322TIP3    H125457   5.126   4.981   5.126  0.0205  0.5651 -0.3630
 1322TIP3    H225458   5.148   4.973   4.976 -0.4433 -1.3534 -0.3562
 1323TIP3   OH225459   1.454   5.757   4.512 -0.0012 -0.1571  0.8444
 1323TIP3    H125460   1.360   5.742   4.510 -0.0947  0.4245  0.3644
 1323TIP3    H225461   1.466   5.825   4.579 -0.1003  0.8174 -0.0999
 1324TIP3   OH225462   2.130   1.952   6.034 -0.7389 -0.5832  0.6273
 1324TIP3    H125463   2.189   1.927   6.105 -0.1094 -0.0096  0.3120
 1324TIP3    H225464   2.043   1.925   6.065 -0.4811 -0.2986  1.6393
 1325TIP3   OH225465   3.912   3.882   2.452  0.6607  0.4801  0.5555
 1325TIP3    H125466   3.985   3.921   2.403  0.0945 -0.0300 -0.7349
 1325TIP3    H225467   3.908   3.933   2.533  2.8711  0.0833  0.9681
 1326TIP3   OH225468   0.401   5.081  14.612  0.4093  0.2359  0.2142
 1326TIP3    H125469   0.386   5.013  14.547  1.6130 -0.6492  0.8110
 1326TIP3    H225470   0.345   5.057  14.686  1.6654 -0.8142  0.8792
 1327TIP3   OH225471   5.605   0.766  12.126  0.1346  0.2313  0.2556
 1327TIP3    H125472   5.683   0.820  12.140  0.7985 -0.4481 -0.7316
 1327TIP3    H225473   5.586   0.728  12.211  1.6619 -0.6263  0.2367
 1328TIP3   OH225474   1.016   0.638  16.183 -0.3110  0.4287  0.3234
 1328TIP3    H125475   1.041   0.687  16.105  0.0853  1.8297  1.2930
 1328TIP3    H225476   1.048   0.691  16.256 -0.5289 -0.9221  1.4418
 1329TIP3   OH225477   5.453   5.936  11.613  0.0767  0.4282  0.0054
 1329TIP3    H125478   5.475   5.931  11.706 -0.6629 -0.9030  0.1324
 1329TIP3    H225479   5.358   5.924  11.610  0.2260 -0.7289 -0.9737
 1330TIP3   OH225480   6.645   6.036  16.018 -0.9155 -0.6111 -0.0609
 1330TIP3    H125481   6.609   6.095  15.952 -1.2366 -2.1193 -1.2836
 1330TIP3    H225482   6.569   6.005  16.067 -0.9911 -1.5610 -0.7552
 1331TIP3   OH225483   4.439   5.695   5.843 -0.0324 -0.1492 -0.1670
 1331TIP3    H125484   4.423   5.609   5.881 -0.2910 -0.1579 -0.2906
 1331TIP3    H225485   4.394   5.693   5.759 -0.2322  0.1856 -0.0726
 1332TIP3   OH225486   6.011   4.384  15.168 -0.8296 -0.7081 -0.3935
 1332TIP3    H125487   5.967   4.409  15.087 -2.3602  0.2153  0.6762
 1332TIP3    H225488   6.093   4.343  15.139 -0.6041  0.9881 -2.3607
 1333TIP3   OH225489   0.922   6.751  14.761 -0.0726  0.1454  0.2115
 1333TIP3    H125490   0.830   6.742  14.735  0.6491 -3.1530 -1.9595
 1333TIP3    H225491   0.935   6.682  14.826  1.1482 -0.5114 -0.6832
 1334TIP3   OH225492   3.841   6.359   3.983  0.2224  0.2635  0.5395
 1334TIP3    H125493   3.930   6.326   3.990  0.0447 -0.6131 -0.9951
 1334TIP3    H225494   3.789   6.301   4.039  0.2176 -0.8672 -0.6112
 1335TIP3   OH225495   3.291   2.497   0.923 -0.3469  0.3385 -0.1557
 1335TIP3    H125496   3.318   2.557   0.852 -0.6403  0.7842  0.1034
 1335TIP3    H225497   3.298   2.550   1.002  1.7810 -0.6789  0.4291
 1336TIP3   OH225498   3.378   3.686  11.721 -0.6195 -0.5321  0.2600
 1336TIP3    H125499   3.454   3.629  11.731 -1.4492 -1.6911  0.1987
 1336TIP3    H225500   3.408   3.773  11.749  1.1740 -0.5950 -1.3077
 1337TIP3   OH225501   6.190   5.981   5.655  0.2839 -0.7223  0.3472
 1337TIP3    H125502   6.207   6.041   5.583 -0.2642 -0.5499  0.3561
 1337TIP3    H225503   6.134   5.913   5.616 -0.3373 -0.4223  0.6922
 1338TIP3   OH225504   0.904   5.556  14.774  0.0494  0.1929 -0.0239
 1338TIP3    H125505   0.896   5.605  14.856  0.5440  0.8302 -0.3481
 1338TIP3    H225506   0.993   5.519  14.777  0.9582  2.1012 -1.2650
 1339TIP3   OH225507   3.183   6.153   3.499  0.5073 -0.0861  0.1948
 1339TIP3    H125508   3.175   6.243   3.531  1.2392  0.4220 -0.9782
 1339TIP3    H225509   3.137   6.154   3.415  2.7940 -0.0718 -1.1327
 1340TIP3   OH225510   0.513   5.141  10.849 -0.1169  0.1483  0.3242
 1340TIP3    H125511   0.457   5.143  10.772  0.1796 -0.5385  0.0860
 1340TIP3    H225512   0.529   5.048  10.865  0.2624  0.3051  0.8939
 1341TIP3   OH225513   5.590   3.657   5.615  0.2838 -0.2027 -0.5259
 1341TIP3    H125514   5.519   3.695   5.563  2.2789  1.6384 -2.0499
 1341TIP3    H225515   5.598   3.715   5.691  0.1107 -0.4950 -0.2775
 1342TIP3   OH225516   0.060   3.686   3.679  0.6398  0.8174 -0.1191
 1342TIP3    H125517   0.032   3.612   3.626 -0.1778  1.3887 -0.5076
 1342TIP3    H225518   0.043   3.658   3.769  0.0068  0.6594 -0.2824
 1343TIP3   OH225519   0.744   4.982  13.363 -0.3095 -0.2321  0.5420
 1343TIP3    H125520   0.672   4.987  13.426 -0.6906 -1.4452  0.2184
 1343TIP3    H225521   0.704   4.949  13.283  0.5230 -0.4427  0.2012
 1344TIP3   OH225522   4.575   4.418  15.074 -0.4969 -0.3039 -0.2598
 1344TIP3    H125523   4.542   4.504  15.101  0.2736 -0.4977  1.4089
 1344TIP3    H225524   4.497   4.370  15.046 -1.2612  0.2199  0.8815
 1345TIP3   OH225525   6.765   5.201  11.018 -0.3204 -0.0266 -0.6176
 1345TIP3    H125526   6.781   5.124  11.073 -0.4890  1.8790  2.2513
 1345TIP3    H225527   6.680   5.234  11.046 -0.1770  1.3407 -1.6745
 1346TIP3   OH225528   4.990   1.727  14.245 -0.5099 -0.1641 -0.1564
 1346TIP3    H125529   4.910   1.731  14.296 -0.6518  0.1381 -0.3982
 1346TIP3    H225530   5.007   1.818  14.221  1.0938  0.1051  1.7314
 1347TIP3   OH225531   1.982   2.274  16.809  0.0365 -0.2216 -0.2902
 1347TIP3    H125532   2.033   2.304  16.884 -0.0118  1.7710 -0.9915
 1347TIP3    H225533   1.897   2.248  16.846  0.1077  0.4725  0.3711
 1348TIP3   OH225534   3.852   1.637   4.764  0.0031  0.1429  0.0765
 1348TIP3    H125535   3.797   1.689   4.705  1.6807  1.8771 -0.1005
 1348TIP3    H225536   3.893   1.702   4.821  0.6319 -1.2296  1.2549
 1349TIP3   OH225537   5.126   3.364   3.837  0.7134  0.0360  0.3252
 1349TIP3    H125538   5.058   3.304   3.866 -1.0107  2.4166  1.4969
 1349TIP3    H225539   5.092   3.403   3.757 -0.1625  2.3945  1.7370
 1350TIP3   OH225540   2.124   1.960   0.852 -0.1020 -0.0817  0.0054
 1350TIP3    H125541   2.056   2.025   0.836 -0.3266 -0.2397  0.3086
 1350TIP3    H225542   2.149   1.973   0.944  0.5774  0.2606 -0.2212
 1351TIP3   OH225543   0.186   6.093  10.580  0.3379 -0.1593 -0.1057
 1351TIP3    H125544   0.131   6.169  10.602  1.3476  0.8759 -1.0270
 1351TIP3    H225545   0.152   6.064  10.495 -0.7101 -1.4162  0.7049
 1352TIP3   OH225546   2.047   1.372   1.308  0.0963 -0.6983 -0.4849
 1352TIP3    H125547   2.067   1.284   1.274  0.7913 -0.2630 -1.2425
 1352TIP3    H225548   2.037   1.359   1.403 -1.7460 -1.9121 -0.7863
 1353TIP3   OH225549   3.056   1.697   1.270 -0.0859  0.9857 -0.4162
 1353TIP3    H125550   3.122   1.633   1.243 -0.6098 -0.3131  1.1942
 1353TIP3    H225551   2.995   1.702   1.197 -1.1206 -1.8988  0.0950
 1354TIP3   OH225552   1.936   1.236   2.241  0.2460 -0.1166  0.5500
 1354TIP3    H125553   1.956   1.157   2.292 -0.2832  0.2309  1.3079
 1354TIP3    H225554   2.021   1.270   2.216  0.4822 -1.5872 -0.8313
 1355TIP3   OH225555   1.108   1.441  16.055  0.1100  0.4138  0.0385
 1355TIP3    H125556   1.189   1.437  16.004  0.6617  2.3666  0.6707
 1355TIP3    H225557   1.134   1.413  16.143  0.2911  1.7164  0.4175
 1356TIP3   OH225558   3.998   0.846  16.959 -0.0879 -0.1050 -0.2320
 1356TIP3    H125559   3.991   0.878  17.048 -1.6830 -1.3587  0.1424
 1356TIP3    H225560   3.908   0.845  16.926  0.2979 -0.9765 -1.3515
 1357TIP3   OH225561   1.458   3.484  11.832 -0.5746  0.0924 -0.3831
 1357TIP3    H125562   1.486   3.574  11.851 -1.6263  0.2244  0.6507
 1357TIP3    H225563   1.466   3.476  11.737 -0.7442  1.3708 -0.5228
 1358TIP3   OH225564   0.790   3.935  13.527  0.1293  0.9965  0.4053
 1358TIP3    H125565   0.791   4.025  13.558  0.2870  1.2943 -0.4379
 1358TIP3    H225566   0.765   3.941  13.435 -2.3430 -0.0335  0.9226
 1359TIP3   OH225567   3.465   6.580   0.839 -0.3181  0.1360 -0.2037
 1359TIP3    H125568   3.410   6.524   0.785  0.9162 -0.7162 -0.6187
 1359TIP3    H225569   3.486   6.527   0.916 -1.3557  1.0334  0.7333
 1360TIP3   OH225570   1.864   2.456   5.256 -0.1783  0.2093  0.3120
 1360TIP3    H125571   1.881   2.453   5.162  0.4290  0.6712  0.3963
 1360TIP3    H225572   1.945   2.492   5.293 -0.6132  0.5388  0.9514
 1361TIP3   OH225573   3.438   0.020  12.964  0.4002  0.6038 -0.4891
 1361TIP3    H125574   3.383   0.005  13.040  0.9878 -0.4138 -0.2540
 1361TIP3    H225575   3.406  -0.042  12.898 -0.9050  2.2829 -1.5409
 1362TIP3   OH225576   3.253   3.923   2.782  0.4010 -0.1987  0.2292
 1362TIP3    H125577   3.260   3.985   2.709 -0.1179  0.1690  0.4892
 1362TIP3    H225578   3.341   3.886   2.790  1.1943  1.7482  1.1580
 1363TIP3   OH225579   4.206   4.722  12.978 -0.4849  0.6523  0.3389
 1363TIP3    H125580   4.189   4.744  12.886 -0.2155  0.8187  0.3273
 1363TIP3    H225581   4.175   4.632  12.987  0.2025  0.3615 -0.1164
 1364TIP3   OH225582   1.514   0.902   2.786 -0.1726 -0.3550 -0.7025
 1364TIP3    H125583   1.464   0.963   2.731  0.0206 -1.0829 -1.7075
 1364TIP3    H225584   1.605   0.924   2.769 -0.0736  1.1928  1.3837
 1365TIP3   OH225585   3.648   5.358   3.715  0.2266  0.2131 -0.2717
 1365TIP3    H125586   3.666   5.444   3.676 -0.0368  0.8233  0.9046
 1365TIP3    H225587   3.556   5.340   3.694  0.0400  0.6127  0.1813
 1366TIP3   OH225588   6.165   0.397   1.503 -0.1152  0.5795  0.3625
 1366TIP3    H125589   6.249   0.421   1.463  1.3699 -1.6400  1.9156
 1366TIP3    H225590   6.115   0.359   1.431  0.7352  0.7419 -0.3404
 1367TIP3   OH225591   4.980   5.848   0.512 -0.1951  0.0817 -0.1853
 1367TIP3    H125592   4.997   5.846   0.606  1.1932  0.0838 -0.4105
 1367TIP3    H225593   4.984   5.756   0.485 -1.4878 -0.0090 -0.1109
 1368TIP3   OH225594   4.380   0.025   5.534  0.5410  0.5638 -0.5281
 1368TIP3    H125595   4.322  -0.035   5.581 -2.7233  2.2577 -2.0932
 1368TIP3    H225596   4.398  -0.020   5.451 -0.0138  0.7472 -0.7547
 1369TIP3   OH225597   5.909   6.150  15.475  0.3017 -0.4967  0.4054
 1369TIP3    H125598   5.961   6.123  15.399 -0.2467 -0.2969 -0.0454
 1369TIP3    H225599   5.898   6.070  15.526  0.6455 -0.6394  0.2560
 1370TIP3   OH225600   5.423   2.186   1.687  0.2992 -0.1710  0.3353
 1370TIP3    H125601   5.415   2.222   1.775 -3.1656  0.0539  0.0433
 1370TIP3    H225602   5.350   2.124   1.680  0.2354  0.1209 -2.5006
 1371TIP3   OH225603   0.312   6.350  15.996 -0.2779 -0.0160  0.2460
 1371TIP3    H125604   0.293   6.296  16.073  1.4873  1.7994  2.0985
 1371TIP3    H225605   0.248   6.421  16.000 -0.3193 -0.0354 -0.0765
 1372TIP3   OH225606   5.113   0.588  16.707  0.0573  0.3557 -0.1296
 1372TIP3    H125607   5.068   0.569  16.789 -1.0976  0.0917 -0.7893
 1372TIP3    H225608   5.136   0.680  16.713  0.0050  0.3291  0.5051
 1373TIP3   OH225609   6.197   0.773  15.203  0.3787  0.2948 -0.0424
 1373TIP3    H125610   6.193   0.680  15.179  1.0191 -0.1779  1.5440
 1373TIP3    H225611   6.167   0.819  15.124 -1.5575 -1.3002 -0.3377
 1374TIP3   OH225612   1.784   2.316  15.534 -0.3999 -0.2591 -0.1216
 1374TIP3    H125613   1.750   2.304  15.445 -0.0583 -1.6984 -0.0926
 1374TIP3    H225614   1.785   2.227  15.571  0.4181  0.1804  0.9663
 1375TIP3   OH225615   3.853   2.960   5.000 -0.5109 -0.6649  0.2565
 1375TIP3    H125616   3.807   2.899   4.942  0.0564  0.0290 -0.9545
 1375TIP3    H225617   3.866   3.039   4.947  2.3184 -0.9096  0.4148
 1376TIP3   OH225618   5.742   2.780   4.765 -0.1548  0.0924  0.0929
 1376TIP3    H125619   5.785   2.780   4.680 -0.8688  0.6519 -0.2854
 1376TIP3    H225620   5.775   2.702   4.810 -2.6521 -2.4906 -2.1892
 1377TIP3   OH225621   4.841   3.157   5.164 -0.6599  0.3666  0.2714
 1377TIP3    H125622   4.766   3.204   5.128 -1.9083 -2.1712 -0.7742
 1377TIP3    H225623   4.802   3.095   5.226  0.7378 -0.0918  0.7202
 1378TIP3   OH225624   5.763   2.438   0.360 -0.0017  0.3264 -0.3817
 1378TIP3    H125625   5.776   2.441   0.455 -2.6715  2.3339  0.0315
 1378TIP3    H225626   5.724   2.352   0.343 -0.7868  0.4778  0.5744
 1379TIP3   OH225627   5.796   0.984  13.106  0.6572 -0.1238  0.3768
 1379TIP3    H125628   5.877   1.036  13.114  0.7636 -0.1028 -0.6731
 1379TIP3    H225629   5.736   1.042  13.059 -0.3155  0.2167  1.9683
 1380TIP3   OH225630   3.045   5.281  16.218  0.3048 -0.6037  0.5416
 1380TIP3    H125631   3.129   5.315  16.190 -1.1868 -0.0119 -4.0929
 1380TIP3    H225632   3.009   5.348  16.276  0.7467  2.0036 -2.0125
 1381TIP3   OH225633   3.154   4.179   3.608 -0.2340 -0.1159 -0.4334
 1381TIP3    H125634   3.231   4.194   3.553  1.0861 -1.0093  1.0822
 1381TIP3    H225635   3.159   4.087   3.632 -1.5899 -0.0995  0.0062
 1382TIP3   OH225636   4.835   6.242  14.114 -0.0045  0.0470 -0.0564
 1382TIP3    H125637   4.810   6.265  14.204  0.9688 -1.4859  0.6504
 1382TIP3    H225638   4.928   6.263  14.109  0.0572 -0.3363 -0.5537
 1383TIP3   OH225639   6.167   1.015  11.202  0.6901  0.8218 -0.3187
 1383TIP3    H125640   6.247   1.063  11.224  0.4213  0.9265  0.4758
 1383TIP3    H225641   6.108   1.032  11.276  0.3053 -0.1011 -0.4042
 1384TIP3   OH225642   1.724   2.179  15.300  0.0927  0.3287 -0.0836
 1384TIP3    H125643   1.644   2.151  15.256 -0.5823  0.7741  0.8256
 1384TIP3    H225644   1.787   2.192  15.229  0.2828 -2.8021 -0.6438
 1385TIP3   OH225645   0.822   2.723   3.136 -0.0838 -0.0368  0.0453
 1385TIP3    H125646   0.873   2.642   3.133  1.1605  0.7156  0.1812
 1385TIP3    H225647   0.887   2.792   3.124 -0.8854  1.0274  1.5847
 1386TIP3   OH225648   4.212   6.441  13.158 -0.1972 -0.0779  0.8686
 1386TIP3    H125649   4.298   6.409  13.183 -0.7514 -0.8526  1.9011
 1386TIP3    H225650   4.225   6.534  13.137  0.6413  0.1830  2.4191
 1387TIP3   OH225651   3.034   5.732  14.791 -0.2942  0.5834 -0.1597
 1387TIP3    H125652   2.947   5.700  14.815 -0.3404  1.9006  1.6141
 1387TIP3    H225653   3.032   5.737  14.695 -1.1094 -2.1722 -0.3768
 1388TIP3   OH225654   0.296   6.417   0.846  0.4069 -0.7479 -0.2841
 1388TIP3    H125655   0.259   6.412   0.934  0.4991 -2.3818 -0.2916
 1388TIP3    H225656   0.220   6.415   0.788  0.3306  0.6343 -0.2666
 1389TIP3   OH225657   4.292   5.211   2.585 -0.0052 -0.3808 -0.0157
 1389TIP3    H125658   4.253   5.175   2.506 -0.0700  0.6624 -0.4838
 1389TIP3    H225659   4.335   5.292   2.556 -3.1849  2.1042  1.4988
 1390TIP3   OH225660   4.502   6.222   4.030 -0.1862 -0.0383 -0.6324
 1390TIP3    H125661   4.557   6.144   4.027 -0.3644 -0.2525  0.7000
 1390TIP3    H225662   4.469   6.224   4.120 -1.6148  0.5873 -1.1339
 1391TIP3   OH225663   0.535   5.006   2.206  0.5534  0.2900  0.1755
 1391TIP3    H125664   0.615   5.058   2.211  0.6548  0.0337  2.7547
 1391TIP3    H225665   0.471   5.064   2.166  1.8407  0.7209 -1.3544
 1392TIP3   OH225666   4.070   2.803  10.372 -0.7009  0.1729 -0.5449
 1392TIP3    H125667   4.126   2.795  10.296 -1.0751  0.3978 -0.8460
 1392TIP3    H225668   4.100   2.734  10.432 -0.8937 -0.4966 -1.2070
 1393TIP3   OH225669   2.897   4.211  16.884  0.3328  0.1795  0.0840
 1393TIP3    H125670   2.848   4.251  16.955 -1.5662 -0.8247 -0.5952
 1393TIP3    H225671   2.976   4.177  16.925 -1.8260 -2.6760  2.3533
 1394TIP3   OH225672   5.814   4.127  14.687 -0.1223  0.6657 -0.4276
 1394TIP3    H125673   5.814   4.166  14.775  1.2851 -0.2994  0.0530
 1394TIP3    H225674   5.881   4.058  14.692 -2.2481 -1.6183 -1.2927
 1395TIP3   OH225675   5.238   1.802   3.747 -0.3692  0.5546  1.0711
 1395TIP3    H125676   5.189   1.728   3.711  0.7488 -0.7209  2.0737
 1395TIP3    H225677   5.171   1.857   3.788 -1.2036  0.0263  0.4388
 1396TIP3   OH225678   4.434   3.171   5.154  0.0357  0.1380 -0.4737
 1396TIP3    H125679   4.376   3.192   5.080  0.0691  0.4646 -0.4106
 1396TIP3    H225680   4.521   3.194   5.123  0.3847 -1.9712 -1.1940
 1397TIP3   OH225681   3.836   3.883  11.659  0.7129 -0.1043 -0.0978
 1397TIP3    H125682   3.858   3.834  11.738  1.4127  2.0142  1.1061
 1397TIP3    H225683   3.919   3.920  11.630 -0.0795  2.2266  0.4092
 1398TIP3   OH225684   5.738   2.525  15.465  0.0653 -0.0877  0.3473
 1398TIP3    H125685   5.779   2.440  15.478  0.7544  0.0768 -0.6128
 1398TIP3    H225686   5.793   2.568  15.400 -0.9955  0.6017 -0.1177
 1399TIP3   OH225687   1.887   1.624   1.524 -0.1323 -0.2158  0.0348
 1399TIP3    H125688   1.927   1.542   1.551  0.9680  0.4978  0.6368
 1399TIP3    H225689   1.947   1.661   1.459 -1.7077 -0.9008 -1.9069
 1400TIP3   OH225690   2.825   0.136   4.500 -0.0105 -0.4604  0.3583
 1400TIP3    H125691   2.907   0.179   4.524  0.6601 -1.3657 -0.2275
 1400TIP3    H225692   2.774   0.134   4.582  0.1329  0.9554  0.5143
 1401TIP3   OH225693   4.077   3.086  14.240 -0.4664  0.5581  0.0142
 1401TIP3    H125694   4.045   3.110  14.327  1.7107  0.4820  0.8866
 1401TIP3    H225695   4.101   2.993  14.248 -3.1302 -0.3971 -1.6103
 1402TIP3   OH225696   2.428   1.384   0.630  0.7578 -0.1699 -0.2700
 1402TIP3    H125697   2.456   1.313   0.573 -1.1242 -0.4666 -0.8967
 1402TIP3    H225698   2.363   1.432   0.578 -1.3685 -0.7206  1.7106
 1403TIP3   OH225699   3.364   2.380  16.906  0.6585 -0.7170 -0.1840
 1403TIP3    H125700   3.275   2.359  16.878  0.8439 -1.5732 -0.1778
 1403TIP3    H225701   3.353   2.435  16.983  0.1307 -0.9410 -0.0963
 1404TIP3   OH225702   5.625   6.307   1.157 -0.2223  0.4923  0.8908
 1404TIP3    H125703   5.614   6.219   1.193 -0.0234  0.0710 -0.0366
 1404TIP3    H225704   5.713   6.333   1.182  0.8215 -0.7463 -1.1852
 1405TIP3   OH225705   0.965   5.426  16.990 -0.3284 -0.6708  0.3969
 1405TIP3    H125706   0.971   5.364  16.917 -1.4427  1.5228 -1.6767
 1405TIP3    H225707   1.042   5.483  16.978  0.1818 -1.0497  1.7360
 1406TIP3   OH225708   0.802   3.029  16.862  0.2692  0.1619  0.1010
 1406TIP3    H125709   0.781   2.936  16.862 -0.0609  0.1862 -2.4399
 1406TIP3    H225710   0.897   3.032  16.855  0.1491 -0.1381 -3.8618
 1407TIP3   OH225711   4.536   2.160   0.352 -0.4209 -0.0348 -0.0179
 1407TIP3    H125712   4.590   2.205   0.417 -0.1631 -0.5219  0.1070
 1407TIP3    H225713   4.596   2.137   0.282 -0.0414 -2.2497  0.9582
 1408TIP3   OH225714   1.452   4.704   2.013 -0.0003  0.2526  0.1531
 1408TIP3    H125715   1.399   4.648   2.069 -0.1094  0.3269  0.1237
 1408TIP3    H225716   1.539   4.702   2.053  0.3505 -1.0588 -0.6296
 1409TIP3   OH225717   5.109   2.290  14.959 -0.1306 -0.3748  0.2836
 1409TIP3    H125718   5.125   2.218  15.021 -0.5893  0.6808  1.6671
 1409TIP3    H225719   5.135   2.369  15.007 -1.1868  0.5369 -0.6150
 1410TIP3   OH225720   0.946   4.302   5.087  0.4850 -0.3353 -0.0820
 1410TIP3    H125721   0.918   4.377   5.141 -0.1539 -0.6458  0.0351
 1410TIP3    H225722   0.868   4.247   5.082  1.3906 -1.7838  1.1432
 1411TIP3   OH225723   2.835   4.811  11.674  0.0910 -0.2912 -0.1982
 1411TIP3    H125724   2.907   4.814  11.611  0.7357  3.4797  0.4343
 1411TIP3    H225725   2.879   4.811  11.759 -0.6839 -0.2286  0.2109
 1412TIP3   OH225726   5.433   1.430  14.963  0.6276  0.1100 -0.5217
 1412TIP3    H125727   5.490   1.487  14.911 -1.9000  1.7266 -1.7103
 1412TIP3    H225728   5.357   1.414  14.907 -0.9564 -0.3796  1.6340
 1413TIP3   OH225729   3.067   5.402  10.817  0.1045  0.3750 -0.3253
 1413TIP3    H125730   3.149   5.404  10.865  0.9673  0.0682 -1.7496
 1413TIP3    H225731   3.061   5.313  10.782 -1.8874 -0.3021  1.4679
 1414TIP3   OH225732   5.822   2.390  13.791  0.3022  0.2361  0.1327
 1414TIP3    H125733   5.793   2.328  13.857  0.7166  0.1027  0.1931
 1414TIP3    H225734   5.892   2.344  13.744 -0.8002 -0.1352 -1.2065
 1415TIP3   OH225735   5.964   3.561  15.846  0.1390 -0.1356  0.0009
 1415TIP3    H125736   5.872   3.588  15.847 -0.3594 -1.7414 -0.0244
 1415TIP3    H225737   6.011   3.640  15.819 -1.3002  0.5278 -0.7161
 1416TIP3   OH225738   4.723   4.064   2.109  0.4044  0.4770 -0.2455
 1416TIP3    H125739   4.700   4.122   2.182 -0.9425  1.5038 -1.4293
 1416TIP3    H225740   4.641   4.053   2.060 -0.2525 -4.9238  1.4929
 1417TIP3   OH225741   3.543   3.377  16.872  0.1369 -0.6320 -0.0667
 1417TIP3    H125742   3.500   3.351  16.954  1.0190 -0.1087  0.5956
 1417TIP3    H225743   3.609   3.309  16.857  1.0539  0.0820  0.5515
 1418TIP3   OH225744   4.947   0.659   1.679 -0.1815 -0.1993  0.1003
 1418TIP3    H125745   4.993   0.647   1.597  1.5710  0.6642  0.9167
 1418TIP3    H225746   4.855   0.672   1.654  0.5210  1.4675 -1.8208
 1419TIP3   OH225747   5.777   1.661  16.530 -0.0981  0.0930 -0.0803
 1419TIP3    H125748   5.777   1.720  16.455  1.9174  1.2421  0.7425
 1419TIP3    H225749   5.741   1.579  16.497 -1.9364  1.4123 -1.5456
 1420TIP3   OH225750   1.714   0.830  16.803 -0.3718  0.0006 -0.8520
 1420TIP3    H125751   1.649   0.804  16.868  0.6104 -1.3386 -0.3535
 1420TIP3    H225752   1.728   0.924  16.819  1.0756 -0.5838  2.0621
 1421TIP3   OH225753   0.287   3.981  10.518 -0.2188  0.1369  0.4309
 1421TIP3    H125754   0.282   4.062  10.467 -2.6278 -0.3244 -0.2253
 1421TIP3    H225755   0.364   3.936  10.485  0.3912  1.5491 -0.1448
 1422TIP3   OH225756   3.927   5.670   0.192  0.5872  0.0985 -0.0523
 1422TIP3    H125757   3.932   5.750   0.244 -1.3426  1.8353 -2.2958
 1422TIP3    H225758   3.890   5.698   0.108  2.5799 -2.6687 -2.0589
 1423TIP3   OH225759   4.433   5.531  13.899  0.2487 -0.0620 -0.5369
 1423TIP3    H125760   4.523   5.511  13.926  0.7044  0.6047 -1.4871
 1423TIP3    H225761   4.381   5.458  13.933  1.0346 -0.1177  0.6087
 1424TIP3   OH225762   6.475   3.035   4.498  0.2316  0.3707  0.2685
 1424TIP3    H125763   6.561   3.071   4.476  0.4644 -0.8507 -0.9514
 1424TIP3    H225764   6.450   2.984   4.421 -1.8381  1.1147  0.3790
 1425TIP3   OH225765   1.621   3.176  10.986  0.5170  0.4434  0.1384
 1425TIP3    H125766   1.668   3.097  10.962 -0.2842  0.2659 -0.8936
 1425TIP3    H225767   1.554   3.186  10.919 -1.3943  0.3064  1.9389
 1426TIP3   OH225768   1.212   0.796  10.449  0.0246 -0.1817  0.2743
 1426TIP3    H125769   1.303   0.792  10.476  0.9793  1.5948 -2.2165
 1426TIP3    H225770   1.189   0.706  10.427  1.9428 -0.3996 -1.1048
 1427TIP3   OH225771   3.173   1.721   3.620 -0.4017  0.1529  0.1788
 1427TIP3    H125772   3.232   1.695   3.550 -0.5603  1.2360 -0.3793
 1427TIP3    H225773   3.091   1.676   3.601  0.0467 -0.8881  0.6282
 1428TIP3   OH225774   1.239   3.459   1.373  0.4073  0.4095  0.3274
 1428TIP3    H125775   1.293   3.387   1.407  1.4943  1.2023  0.3327
 1428TIP3    H225776   1.159   3.416   1.343  0.7905 -0.7316  0.8564
 1429TIP3   OH225777   2.592   5.679   3.535  0.3215 -0.0230  0.4362
 1429TIP3    H125778   2.595   5.770   3.565 -1.6804 -0.0708  0.9008
 1429TIP3    H225779   2.530   5.679   3.462  1.0539 -0.8637 -0.2199
 1430TIP3   OH225780   4.699   5.713  12.936 -0.0737 -0.1492 -0.1515
 1430TIP3    H125781   4.730   5.764  13.011  0.3060  0.2667 -0.5912
 1430TIP3    H225782   4.610   5.686  12.961  0.0723 -0.0816  0.4777
 1431TIP3   OH225783   1.606   5.544  13.295  0.1947  0.4322  0.5453
 1431TIP3    H125784   1.616   5.514  13.204  1.3169 -0.1721  0.8555
 1431TIP3    H225785   1.581   5.636  13.287 -0.5443  0.1666 -0.3851
 1432TIP3   OH225786   3.572   4.942  15.965  0.3728  0.0231  0.1175
 1432TIP3    H125787   3.500   5.000  15.988  0.7103  0.2229  0.6847
 1432TIP3    H225788   3.603   4.908  16.049  0.5628 -0.5174 -0.1648
 1433TIP3   OH225789   2.960   0.302   0.976 -0.5567 -0.1640 -0.1478
 1433TIP3    H125790   2.989   0.214   0.952  1.8195  0.3617  0.4718
 1433TIP3    H225791   2.903   0.290   1.052 -2.0125 -1.2766 -1.3629
 1434TIP3   OH225792   6.689   0.294   3.358  0.2056 -0.2919 -0.0407
 1434TIP3    H125793   6.715   0.329   3.443  1.0098  2.3453 -1.2520
 1434TIP3    H225794   6.753   0.331   3.297 -1.3695 -0.6915 -2.0196
 1435TIP3   OH225795   5.481   0.834   5.823  0.3639  0.8476 -0.3600
 1435TIP3    H125796   5.389   0.831   5.799  0.0909  1.5742  0.5255
 1435TIP3    H225797   5.524   0.876   5.749 -0.0148  0.5153 -0.7724
 1436TIP3   OH225798   4.882   3.194  12.642  0.4925 -0.1370 -0.1212
 1436TIP3    H125799   4.970   3.218  12.613  0.5597  1.0400  0.9818
 1436TIP3    H225800   4.870   3.242  12.724 -1.0140 -0.6348 -0.0270
 1437TIP3   OH225801   1.428   0.998  16.723  0.4473 -0.8573 -0.1505
 1437TIP3    H125802   1.342   0.998  16.681  0.2690 -0.2993  0.1946
 1437TIP3    H225803   1.423   1.070  16.786  1.0037 -1.1311  0.2105
 1438TIP3   OH225804   4.948   1.851   4.765  0.3846 -0.2074 -0.7644
 1438TIP3    H125805   4.998   1.772   4.745  0.8031  0.2003 -1.3413
 1438TIP3    H225806   4.863   1.837   4.722  0.3116 -0.5049 -0.5334
 1439TIP3   OH225807   1.467   0.542   5.371 -0.1660 -0.3920 -0.0339
 1439TIP3    H125808   1.492   0.547   5.464  3.6077  1.3816 -0.9199
 1439TIP3    H225809   1.528   0.479   5.333  0.8618  1.5537 -1.8506
 1440TIP3   OH225810   4.438   5.188   6.146  0.8340 -0.2227 -0.5865
 1440TIP3    H125811   4.461   5.272   6.186 -0.5818  0.5374 -1.2804
 1440TIP3    H225812   4.435   5.126   6.220  1.9473  0.2910 -0.0775
 1441TIP3   OH225813   0.758   4.562  15.184  0.0396 -0.2246  0.4021
 1441TIP3    H125814   0.812   4.566  15.263  0.3569 -0.9312  0.2310
 1441TIP3    H225815   0.670   4.545  15.215 -0.1342  1.1795  0.7020
 1442TIP3   OH225816   6.465   1.587  11.201 -0.0367 -0.2407 -0.1937
 1442TIP3    H125817   6.396   1.522  11.182 -1.2783  1.1625 -0.7122
 1442TIP3    H225818   6.480   1.630  11.117  2.2045 -1.1244 -0.3155
 1443TIP3   OH225819   4.582   2.083  16.428 -0.0318 -0.4680 -0.4921
 1443TIP3    H125820   4.559   2.116  16.342 -0.5020  1.0022  0.1670
 1443TIP3    H225821   4.626   2.156  16.471 -0.4479 -0.9252  0.7569
 1444TIP3   OH225822   6.065   6.512  11.280 -0.0635 -0.1444 -0.3350
 1444TIP3    H125823   6.013   6.519  11.200 -2.8485  2.4931  1.4779
 1444TIP3    H225824   6.020   6.446  11.332 -0.1233  0.3267  0.2271
 1445TIP3   OH225825   5.831   5.201   0.223  0.5283 -0.2726  0.4956
 1445TIP3    H125826   5.908   5.151   0.195  1.3214  0.5070  1.2400
 1445TIP3    H225827   5.865   5.264   0.286 -0.5355  0.8837 -0.0472
 1446TIP3   OH225828   2.064   5.813   4.888 -0.4436 -0.7375 -0.3236
 1446TIP3    H125829   2.126   5.854   4.948  0.3382 -0.2015 -1.4624
 1446TIP3    H225830   1.995   5.779   4.945 -1.4853  2.7051  0.7108
 1447TIP3   OH225831   3.898   3.556  16.679  0.0467  0.4494  0.1837
 1447TIP3    H125832   3.958   3.578  16.608  0.7856 -0.2035  0.5863
 1447TIP3    H225833   3.936   3.477  16.719 -0.6014  0.5372  1.0028
 1448TIP3   OH225834   2.975   0.743  11.762 -0.1895  0.3815  0.2703
 1448TIP3    H125835   2.889   0.701  11.764  0.4598 -1.1609 -1.4520
 1448TIP3    H225836   2.962   0.823  11.712 -0.6154  0.1366 -0.0136
 1449TIP3   OH225837   1.247   4.175  13.744  0.0213 -0.0705  0.9275
 1449TIP3    H125838   1.307   4.177  13.819  1.9829  1.1503 -0.5804
 1449TIP3    H225839   1.304   4.169  13.667 -1.8493  0.2532 -0.5700
 1450TIP3   OH225840   2.116   6.510  12.506 -0.0714 -0.1321  0.9290
 1450TIP3    H125841   2.160   6.550  12.582  2.4463  1.0758 -0.9891
 1450TIP3    H225842   2.151   6.558  12.431 -3.0280 -0.7503 -1.0089
 1451TIP3   OH225843   5.630   2.884  11.578  0.0806  0.6211  0.0030
 1451TIP3    H125844   5.605   2.976  11.578 -2.0818  0.0992 -1.0614
 1451TIP3    H225845   5.559   2.839  11.622 -1.3412 -1.0100 -3.5702
 1452TIP3   OH225846   6.268   3.580  15.681 -0.1985 -0.4563 -0.1432
 1452TIP3    H125847   6.211   3.513  15.645 -2.1668  1.5767 -1.0732
 1452TIP3    H225848   6.209   3.643  15.723  1.6741 -0.1721  2.3523
 1453TIP3   OH225849   5.360   6.799  12.514 -0.1151  0.0579 -0.3950
 1453TIP3    H125850   5.388   6.726  12.569  0.5536 -0.3857 -1.2900
 1453TIP3    H225851   5.270   6.816  12.540 -1.9302 -3.9725 -3.0299
 1454TIP3   OH225852   6.781   5.463   2.588 -0.0263  0.2380 -0.5122
 1454TIP3    H125853   6.766   5.379   2.546  0.0790 -0.3690  0.6270
 1454TIP3    H225854   6.876   5.466   2.602 -0.2087 -0.2148  0.9546
 1455TIP3   OH225855   2.604   4.076   2.298  0.1786 -0.3553  0.2801
 1455TIP3    H125856   2.657   4.080   2.378  0.2764  0.3421  0.1843
 1455TIP3    H225857   2.513   4.080   2.329  0.2321  0.6175  0.3159
 1456TIP3   OH225858   3.602   2.241  15.519 -0.3815  0.1489 -0.3490
 1456TIP3    H125859   3.680   2.273  15.564 -0.2664 -0.9493  0.2816
 1456TIP3    H225860   3.600   2.147  15.539 -0.8585 -0.1918 -1.8724
 1457TIP3   OH225861   0.518   2.649   3.432 -0.1489  0.1344  0.0457
 1457TIP3    H125862   0.474   2.573   3.469 -0.3302  0.6354  0.8889
 1457TIP3    H225863   0.449   2.698   3.386 -0.3011  0.4559  0.6077
 1458TIP3   OH225864   4.996   3.836  12.397  0.0882 -0.5833 -0.5163
 1458TIP3    H125865   5.086   3.858  12.376 -0.1891  1.1943  0.0161
 1458TIP3    H225866   5.002   3.770  12.466  0.9746 -0.5765 -0.5823
 1459TIP3   OH225867   4.370   2.631  11.761 -0.3644 -0.0068 -0.2493
 1459TIP3    H125868   4.386   2.600  11.850 -0.6381  1.6715  0.4230
 1459TIP3    H225869   4.290   2.585  11.734  0.4350 -1.5116 -0.1600
 1460TIP3   OH225870   2.246   3.698   4.299 -0.1910  0.3358 -0.1913
 1460TIP3    H125871   2.303   3.742   4.362  0.0488  0.9121 -0.7879
 1460TIP3    H225872   2.161   3.693   4.342  0.0992  0.2483  0.3768
 1461TIP3   OH225873   2.755   2.027   3.740 -0.2944  0.6499  0.2746
 1461TIP3    H125874   2.843   1.993   3.722 -1.2221 -1.4406 -0.7180
 1461TIP3    H225875   2.762   2.121   3.723  1.2385  0.2310 -1.9902
 1462TIP3   OH225876   3.926   3.264   0.301 -0.3525  0.0374  0.3530
 1462TIP3    H125877   3.887   3.244   0.386  0.2380  0.6915  0.7925
 1462TIP3    H225878   3.971   3.348   0.315 -2.0397  1.2824 -1.1846
 1463TIP3   OH225879   3.974   5.146   4.765  0.1235  0.5935  0.0030
 1463TIP3    H125880   3.991   5.144   4.671 -0.7405  0.5874 -0.1581
 1463TIP3    H225881   4.031   5.216   4.798  1.0478  0.0380 -0.3902
 1464TIP3   OH225882   4.042   0.389   2.807  0.0346 -0.4123 -0.6747
 1464TIP3    H125883   4.049   0.333   2.884  0.0300 -2.5379 -2.1505
 1464TIP3    H225884   4.133   0.407   2.782  0.0766 -1.3344 -1.2476
 1465TIP3   OH225885   3.918   6.652  16.526 -0.3215 -0.4476  0.4067
 1465TIP3    H125886   3.925   6.565  16.486  0.3628 -0.4480  0.5058
 1465TIP3    H225887   3.878   6.636  16.611  0.1577 -0.7238  0.5872
 1466TIP3   OH225888   5.906   1.780  17.007  0.2909 -0.5188  0.3515
 1466TIP3    H125889   5.915   1.747  16.917  2.7131  1.1326 -0.1095
 1466TIP3    H225890   5.977   1.842  17.017  0.9431 -1.5921  3.9038
 1467TIP3   OH225891   0.957   1.756   1.907  0.7998 -0.1826 -0.7639
 1467TIP3    H125892   1.043   1.718   1.888  1.4148  1.3327 -1.1454
 1467TIP3    H225893   0.976   1.847   1.929 -0.4494 -0.4232  1.6853
 1468TIP3   OH225894   0.331   0.291  15.393  0.1692 -0.7161  0.0695
 1468TIP3    H125895   0.365   0.344  15.465 -0.2550 -1.7306  1.0424
 1468TIP3    H225896   0.339   0.347  15.316  0.6237  0.3941  0.9038
 1469TIP3   OH225897   1.135   3.101   3.513  0.0941 -0.2243  0.2083
 1469TIP3    H125898   1.177   3.147   3.440  0.9391 -0.9935  0.1900
 1469TIP3    H225899   1.189   3.023   3.527 -0.6571 -0.6315  0.9751
 1470TIP3   OH225900   5.423   2.803  11.762  0.0351  0.3409  0.4667
 1470TIP3    H125901   5.338   2.843  11.743 -0.3950 -0.3795  0.8584
 1470TIP3    H225902   5.454   2.850  11.840  0.5600  1.4241 -0.3622
 1471TIP3   OH225903   3.476   3.579  12.299 -0.2452 -0.2910  0.7452
 1471TIP3    H125904   3.478   3.656  12.243  2.5595 -0.9645 -0.1953
 1471TIP3    H225905   3.456   3.506  12.240 -0.3136 -0.6377  1.1851
 1472TIP3   OH225906   1.404   4.761  11.695  0.2863 -0.0611  0.0423
 1472TIP3    H125907   1.384   4.853  11.676  0.3075  0.3796  1.8944
 1472TIP3    H225908   1.331   4.712  11.657  0.7512  0.5978 -1.8049
 1473TIP3   OH225909   4.423   1.609   3.891  0.5600  0.0711  0.2645
 1473TIP3    H125910   4.502   1.581   3.936  1.0917  0.7713 -0.2268
 1473TIP3    H225911   4.422   1.558   3.809  1.3169  1.1527 -0.4418
 1474TIP3   OH225912   5.294   2.214   0.448  0.1512  0.5920 -0.6166
 1474TIP3    H125913   5.255   2.144   0.500  0.5277  0.2763 -0.7495
 1474TIP3    H225914   5.314   2.172   0.364 -1.6677  1.4094 -1.5143
 1475TIP3   OH225915   3.644   5.833  16.790  0.3434 -0.1810  0.3106
 1475TIP3    H125916   3.574   5.888  16.825  2.1351  1.7976  1.0021
 1475TIP3    H225917   3.624   5.825  16.697 -1.3018 -0.5254  0.6505
 1476TIP3   OH225918   4.650   2.526  16.263 -0.1825 -0.2513  0.3696
 1476TIP3    H125919   4.693   2.500  16.182 -0.3856 -1.2230  0.5616
 1476TIP3    H225920   4.666   2.620  16.269  3.4468 -0.7795  1.3226
 1477TIP3   OH225921   0.249   3.039  12.397 -0.1487  0.3610 -0.2109
 1477TIP3    H125922   0.189   2.981  12.351  0.4809  0.0183 -0.6179
 1477TIP3    H225923   0.194   3.085  12.461 -0.6083 -0.9238  0.3520
 1478TIP3   OH225924   2.243   4.723   3.252 -0.1337 -0.0293  0.0942
 1478TIP3    H125925   2.285   4.776   3.320 -2.0086  1.2869  0.3014
 1478TIP3    H225926   2.284   4.637   3.259  2.1836  1.0382  0.5353
 1479TIP3   OH225927   4.435   2.156   4.838 -0.2041 -0.2301  0.5153
 1479TIP3    H125928   4.344   2.151   4.869 -0.4832 -1.2724 -0.4057
 1479TIP3    H225929   4.456   2.249   4.841 -1.7522  0.1877 -0.4876
 1480TIP3   OH225930   1.529   2.975  15.300  0.5153  0.2632  0.1262
 1480TIP3    H125931   1.547   3.041  15.233  0.1880  1.5007  1.2117
 1480TIP3    H225932   1.599   2.988  15.365  0.2004 -0.1653  0.5582
 1481TIP3   OH225933   2.235   5.837   2.108  0.1450 -0.4759 -0.3051
 1481TIP3    H125934   2.209   5.930   2.108 -1.3422 -0.8568 -1.1804
 1481TIP3    H225935   2.290   5.828   2.030 -2.4788 -0.9792 -2.2252
 1482TIP3   OH225936   6.516   4.482   5.266  0.2513  0.5428 -0.6818
 1482TIP3    H125937   6.444   4.441   5.218  1.5341 -0.0608 -2.1952
 1482TIP3    H225938   6.593   4.465   5.212  1.7953 -0.0821  1.5743
 1483TIP3   OH225939   3.340   6.074  13.081 -0.5535  0.5820  0.7980
 1483TIP3    H125940   3.337   6.028  13.165 -1.6656  0.6499  0.8203
 1483TIP3    H225941   3.421   6.045  13.039 -1.0648 -1.1582  0.9447
 1484TIP3   OH225942   4.237   3.167  13.811  0.6823  0.3900  0.8546
 1484TIP3    H125943   4.145   3.141  13.802  0.9052  0.1188 -0.9587
 1484TIP3    H225944   4.264   3.129  13.895 -1.5152  2.6597  2.7491
 1485TIP3   OH225945   0.376   4.359   1.756  0.3213  0.1558  0.0128
 1485TIP3    H125946   0.314   4.373   1.685 -0.9523 -0.4629  0.9638
 1485TIP3    H225947   0.390   4.446   1.794  1.9347  0.7076 -1.6670
 1486TIP3   OH225948   3.677   5.247  13.930 -0.1717 -0.1204  0.0508
 1486TIP3    H125949   3.593   5.202  13.922 -0.6961  0.9457 -0.6335
 1486TIP3    H225950   3.656   5.340  13.920  1.1061  0.1589 -0.2577
 1487TIP3   OH225951   6.490   2.332   4.146  0.5447 -0.4406  0.3748
 1487TIP3    H125952   6.511   2.246   4.182 -0.7092 -0.8514  0.1868
 1487TIP3    H225953   6.491   2.391   4.221 -1.8182 -1.2396  1.1308
 1488TIP3   OH225954   4.760   5.003  13.125  0.0898 -0.3171 -0.1613
 1488TIP3    H125955   4.700   4.979  13.195 -2.0707  0.6475 -1.5585
 1488TIP3    H225956   4.826   5.057  13.167  0.4034 -1.9284  1.5593
 1489TIP3   OH225957   4.379   2.171  10.744 -0.6183  0.8237  0.2038
 1489TIP3    H125958   4.418   2.239  10.799 -0.1698 -0.1604  1.1292
 1489TIP3    H225959   4.331   2.115  10.805 -0.4498 -0.0595 -0.4592
 1490TIP3   OH225960   5.319   0.069  11.131  0.2144 -0.2407 -0.0038
 1490TIP3    H125961   5.269   0.032  11.058 -0.2348  0.6594 -0.1563
 1490TIP3    H225962   5.338   0.159  11.105  1.8991 -0.5399  0.0721
 1491TIP3   OH225963   6.084   4.517   3.068 -0.1245 -0.1761 -0.2091
 1491TIP3    H125964   6.127   4.566   3.139  0.6660 -0.5655 -0.4067
 1491TIP3    H225965   5.995   4.503   3.100 -0.2018  0.8859  0.0989
 1492TIP3   OH225966   5.946   1.730   4.014  0.2638 -0.3839  0.5489
 1492TIP3    H125967   5.964   1.659   4.076  0.7641 -1.4585 -0.7802
 1492TIP3    H225968   6.013   1.721   3.947 -0.9612  0.0030 -0.7806
 1493TIP3   OH225969   6.278   2.449  15.655 -0.1279  0.2833 -0.1459
 1493TIP3    H125970   6.189   2.417  15.674  0.4653  0.2536  3.1391
 1493TIP3    H225971   6.311   2.389  15.588 -2.7951  0.7701 -2.0829
 1494TIP3   OH225972   3.642   3.557  13.347 -0.4343 -0.4030  0.4002
 1494TIP3    H125973   3.570   3.578  13.287  1.1930 -1.3059 -1.9844
 1494TIP3    H225974   3.604   3.570  13.434 -3.0815  0.4129 -0.7644
 1495TIP3   OH225975   6.747   5.245  13.107  0.2200  0.6357 -0.3556
 1495TIP3    H125976   6.733   5.304  13.033  1.3191  0.1472 -0.9589
 1495TIP3    H225977   6.661   5.205  13.122 -0.0045  0.7229 -1.3671
 1496TIP3   OH225978   0.512   2.546   5.891 -0.5078  0.0734 -0.2827
 1496TIP3    H125979   0.546   2.625   5.935 -1.7966  0.7080 -0.3883
 1496TIP3    H225980   0.541   2.474   5.947 -1.4893  0.8036  1.2485
 1497TIP3   OH225981   1.239   2.928   5.502 -0.1481 -0.3045  0.5910
 1497TIP3    H125982   1.175   2.859   5.520  1.8594 -2.7303 -0.7925
 1497TIP3    H225983   1.266   2.911   5.411  2.4931  0.4930  1.1464
 1498TIP3   OH225984   0.062   4.521   0.360  0.3105  0.3377 -0.5776
 1498TIP3    H125985   0.013   4.487   0.285  0.8725  0.5717 -1.0623
 1498TIP3    H225986   0.152   4.491   0.344  0.0310 -1.7462  1.2660
 1499TIP3   OH225987   6.240   1.176  11.748  0.1208 -0.1555  0.2134
 1499TIP3    H125988   6.307   1.132  11.800 -1.0802 -2.5408 -0.1514
 1499TIP3    H225989   6.180   1.213  11.813  0.9800  0.7648  0.5142
 1500TIP3   OH225990   4.917   4.933   4.331  0.2046  0.0695 -1.4550
 1500TIP3    H125991   4.825   4.958   4.319 -0.0412 -0.8062 -1.5298
 1500TIP3    H225992   4.930   4.934   4.426 -0.6221 -2.1397 -1.2388
 1501TIP3   OH225993   1.244   3.599  10.316 -0.4940 -0.1127 -0.1337
 1501TIP3    H125994   1.329   3.632  10.345 -0.6152 -2.1308  3.0237
 1501TIP3    H225995   1.180   3.658  10.357 -0.6740  0.1403 -0.7583
 1502TIP3   OH225996   2.991   3.645  12.273  0.1648  0.0585 -0.0631
 1502TIP3    H125997   2.992   3.566  12.219 -0.1442 -0.7283  1.0445
 1502TIP3    H225998   2.971   3.716  12.212  0.6203 -0.6925 -1.1058
 1503TIP3   OH225999   5.933   4.440  14.890  0.3593  0.1671  0.7496
 1503TIP3    H126000   5.865   4.498  14.855 -1.3686 -1.5624  1.0850
 1503TIP3    H226001   6.006   4.450  14.829 -0.3663  1.6584  0.0505
 1504TIP3   OH226002   0.053   5.536   5.050  0.5221  0.4750 -0.4043
 1504TIP3    H126003   0.001   5.478   5.105  0.5206 -0.4138 -1.3165
 1504TIP3    H226004   0.013   5.622   5.061  0.4722  0.3186  0.9013
 1505TIP3   OH226005   0.142   6.125   5.165 -0.4918 -0.0747 -0.0589
 1505TIP3    H126006   0.052   6.098   5.146 -0.2821 -0.8437  0.0050
 1505TIP3    H226007   0.164   6.078   5.246 -0.4659  1.0984  0.6402
 1506TIP3   OH226008   0.054   5.209   1.486  0.3524  0.0465 -0.5891
 1506TIP3    H126009   0.036   5.272   1.416 -1.1973 -0.7209 -0.8997
 1506TIP3    H226010   0.117   5.255   1.542  0.6789  1.1544 -1.7929
 1507TIP3   OH226011   6.124   4.345  14.281  0.0545  0.1371  0.4067
 1507TIP3    H126012   6.105   4.393  14.362 -2.5100 -1.5540  0.9316
 1507TIP3    H226013   6.044   4.352  14.230  1.0090 -0.3527 -1.2226
 1508TIP3   OH226014   0.100   4.714  14.200  0.5834  0.3382  0.4966
 1508TIP3    H126015   0.187   4.681  14.179  0.7583  1.8598 -1.4097
 1508TIP3    H226016   0.078   4.774  14.128 -2.1635 -0.2029  0.7559
 1509TIP3   OH226017   1.312   2.208  12.281  0.4374  0.3599  0.1576
 1509TIP3    H126018   1.236   2.174  12.329 -1.2175  0.5609 -2.1175
 1509TIP3    H226019   1.340   2.285  12.331  0.8953 -1.2163  2.4953
 1510TIP3   OH226020   6.414   5.429   4.350  0.0970  0.1719  0.7788
 1510TIP3    H126021   6.460   5.391   4.275  0.6954  1.3135  0.5366
 1510TIP3    H226022   6.480   5.429   4.420  0.0371  0.5639  0.8359
 1511TIP3   OH226023   4.126   5.942  11.337  0.0710  0.2827 -0.0458
 1511TIP3    H126024   4.079   5.930  11.255  0.5811  0.9984 -0.4520
 1511TIP3    H226025   4.083   6.017  11.379  0.5581  0.6533 -0.2067
 1512TIP3   OH226026   4.074   6.210   3.641 -0.2751  0.3700  0.2162
 1512TIP3    H126027   4.132   6.155   3.588 -0.5679  0.0604  0.2142
 1512TIP3    H226028   4.115   6.297   3.640 -1.7734  1.1625 -2.9811
 1513TIP3   OH226029   6.400   4.903  12.458 -0.5349  0.0163 -0.2318
 1513TIP3    H126030   6.380   4.973  12.520  1.0242  0.3120 -0.0243
 1513TIP3    H226031   6.469   4.852  12.501  0.4939  0.1620 -1.6666
 1514TIP3   OH226032   5.091   0.794   0.205  0.6153  0.8783  0.0259
 1514TIP3    H126033   5.177   0.773   0.242  0.2624  0.5619  0.6945
 1514TIP3    H226034   5.033   0.725   0.237 -0.0576  1.5309  0.2637
 1515TIP3   OH226035   0.253   4.295  16.669 -0.5409  0.0454 -0.2326
 1515TIP3    H126036   0.164   4.271  16.696 -0.1518  0.0604  1.1456
 1515TIP3    H226037   0.272   4.374  16.720  0.8898 -0.9332  0.8007
 1516TIP3   OH226038   6.619   1.294  11.257  0.2110 -0.7515  0.3977
 1516TIP3    H126039   6.652   1.375  11.218 -0.5564 -1.2373 -1.3270
 1516TIP3    H226040   6.663   1.289  11.343  0.1123  1.5837  0.6411
 1517TIP3   OH226041   4.803   0.812  15.115  0.1761 -0.1424  0.7974
 1517TIP3    H126042   4.720   0.816  15.069 -0.1694 -0.3832  1.3936
 1517TIP3    H226043   4.799   0.884  15.179 -0.2512 -1.1226  1.9190
 1518TIP3   OH226044   6.792   0.234  14.924 -0.7881 -0.3777  0.5924
 1518TIP3    H126045   6.866   0.257  14.868 -2.4120  2.0815 -0.7340
 1518TIP3    H226046   6.832   0.204  15.006  1.6510  0.4750 -0.1973
 1519TIP3   OH226047   2.136   1.743   0.095 -0.4072 -0.1578 -0.1405
 1519TIP3    H126048   2.206   1.718   0.035  0.5099  3.2974 -0.7246
 1519TIP3    H226049   2.176   1.741   0.182 -0.3304 -0.6142 -0.1880
 1520TIP3   OH226050   2.621   4.178  11.197 -0.1659 -0.4901 -0.4488
 1520TIP3    H126051   2.704   4.172  11.245  0.0737 -1.7738 -0.9811
 1520TIP3    H226052   2.554   4.182  11.265  0.2088 -1.6334  0.0013
 1521TIP3   OH226053   3.455   5.930  13.387 -0.0875 -0.6289 -0.7429
 1521TIP3    H126054   3.483   5.869  13.455  1.9336  0.2026 -0.7602
 1521TIP3    H226055   3.452   5.879  13.307  1.4030 -0.7595 -0.7245
 1522TIP3   OH226056   4.116   2.199  12.484  1.2295 -0.4561 -0.8393
 1522TIP3    H126057   4.093   2.245  12.564  0.1991 -0.4545 -1.1243
 1522TIP3    H226058   4.199   2.154  12.505  0.9041 -0.5718  0.2667
 1523TIP3   OH226059   4.762   2.823  16.571 -0.0925  0.0000  0.4443
 1523TIP3    H126060   4.797   2.904  16.607 -0.0139  0.2200 -0.1198
 1523TIP3    H226061   4.677   2.812  16.614  0.5256 -0.3930  1.6210
 1524TIP3   OH226062   1.032   4.037  15.529 -0.1535  0.5271  0.3185
 1524TIP3    H126063   0.969   4.108  15.535  0.5923  1.4611 -2.0673
 1524TIP3    H226064   1.096   4.055  15.598 -1.3663  0.6838  1.4259
 1525TIP3   OH226065   5.035   3.124  14.285 -0.4256 -0.4708 -0.5697
 1525TIP3    H126066   5.055   3.122  14.191 -1.2619  0.5158 -0.7930
 1525TIP3    H226067   5.066   3.039  14.318  1.3115 -0.2144 -1.4165
 1526TIP3   OH226068   5.342   5.218   4.168 -0.5259 -0.0536  0.1746
 1526TIP3    H126069   5.328   5.289   4.231 -0.0137  0.5869 -0.4058
 1526TIP3    H226070   5.270   5.157   4.183 -1.0998  0.6999  0.5481
 1527TIP3   OH226071   3.185   3.501  14.369 -0.0362 -0.1318 -0.2621
 1527TIP3    H126072   3.244   3.527  14.298  0.6194 -0.3174  0.2150
 1527TIP3    H226073   3.116   3.568  14.368 -0.4414 -0.5290 -1.5419
 1528TIP3   OH226074   3.846   3.814  13.414 -0.1440 -0.1632  0.0721
 1528TIP3    H126075   3.916   3.876  13.394 -1.0774  0.5920 -0.9717
 1528TIP3    H226076   3.876   3.730  13.379  1.1499 -0.3587  1.5376
 1529TIP3   OH226077   4.108   3.757  13.964 -0.1534 -0.3727 -0.2410
 1529TIP3    H126078   4.090   3.779  14.055  2.3111 -0.1687  0.2679
 1529TIP3    H226079   4.088   3.838  13.916 -1.3858 -0.4588  0.0959
 1530TIP3   OH226080   2.542   4.395  11.032 -0.0051 -0.2163 -0.7196
 1530TIP3    H126081   2.536   4.338  11.109  1.7708  3.0329  2.0903
 1530TIP3    H226082   2.635   4.402  11.014 -0.1924  1.4301 -1.2330
 1531TIP3   OH226083   0.281   2.306  15.479  0.3278 -0.6912 -0.5137
 1531TIP3    H126084   0.206   2.310  15.420  0.7360 -0.8391 -1.0503
 1531TIP3    H226085   0.262   2.371  15.546 -0.5227 -1.0931 -0.3517
 1532TIP3   OH226086   6.577   4.533   4.027  0.5042  0.8687  0.0173
 1532TIP3    H126087   6.574   4.621   3.991 -2.2487  0.5113 -0.8065
 1532TIP3    H226088   6.551   4.476   3.955 -2.1691 -0.1472  1.6219
 1533TIP3   OH226089   4.466   3.272  15.000  0.0033  0.4626 -0.2585
 1533TIP3    H126090   4.546   3.282  14.948 -0.6151  1.2796 -1.0845
 1533TIP3    H226091   4.480   3.327  15.076 -0.2992  1.6809 -1.0606
 1534TIP3   OH226092   2.048   6.276  16.798 -0.6508 -0.1958  0.0784
 1534TIP3    H126093   1.959   6.257  16.830 -1.2996 -0.9685 -2.0200
 1534TIP3    H226094   2.101   6.204  16.832 -0.4641  0.9630  2.4763
 1535TIP3   OH226095   0.366   2.371  12.701  0.3328 -0.3253  0.0128
 1535TIP3    H126096   0.426   2.444  12.690  0.0617 -0.1734 -0.4834
 1535TIP3    H226097   0.289   2.395  12.649  0.6466 -1.4156 -1.0024
 1536TIP3   OH226098   1.412   3.764  15.946  0.5802 -0.1367 -0.3614
 1536TIP3    H126099   1.402   3.701  16.017 -3.0189 -1.8340 -2.1296
 1536TIP3    H226100   1.462   3.718  15.879  0.8064  0.1291 -0.3810
 1537TIP3   OH226101   1.470   3.541   5.466  0.1372 -0.0425  0.2328
 1537TIP3    H126102   1.476   3.614   5.527  2.3414 -0.9714  1.2462
 1537TIP3    H226103   1.447   3.466   5.522  3.4891 -1.1748  0.2756
 1538TIP3   OH226104   5.236   6.444  16.805  0.0725  0.8693  0.1944
 1538TIP3    H126105   5.164   6.404  16.854  1.1185  1.4657  2.3238
 1538TIP3    H226106   5.219   6.538  16.811  0.6218  0.9747  0.0664
 1539TIP3   OH226107   2.819   2.635  12.199 -0.1040  0.2317  0.3984
 1539TIP3    H126108   2.874   2.655  12.124 -1.0191 -0.9084 -0.6069
 1539TIP3    H226109   2.730   2.638  12.166 -0.4796 -1.3850  1.1437
 1540TIP3   OH226110   2.615   6.044  15.055 -0.2144  0.0845  0.3616
 1540TIP3    H126111   2.657   5.959  15.070  0.3063  0.4659  1.0954
 1540TIP3    H226112   2.666   6.106  15.108 -0.9710  0.7542  0.3192
 1541TIP3   OH226113   3.975   0.946  11.545  0.0896 -0.0291  0.6560
 1541TIP3    H126114   3.991   1.040  11.534 -1.9298  0.2279 -0.6283
 1541TIP3    H226115   3.948   0.937  11.637 -2.4450  1.1702  0.1198
 1542TIP3   OH226116   6.839   3.076   0.999  0.1150  0.0370  0.1533
 1542TIP3    H126117   6.825   3.164   1.035 -4.3141 -0.3194 -0.1402
 1542TIP3    H226118   6.812   3.017   1.070  3.7404 -1.2945  0.6309
 1543TIP3   OH226119   0.163   3.295   2.167  0.1556  0.1197  0.0831
 1543TIP3    H126120   0.115   3.357   2.112  0.9104  1.0865  0.4944
 1543TIP3    H226121   0.238   3.269   2.114  1.3328  1.6793  0.9167
 1544TIP3   OH226122   3.733   4.102   0.851  0.0684 -1.0402 -0.1142
 1544TIP3    H126123   3.694   4.105   0.764 -0.2628 -1.4010  0.0204
 1544TIP3    H226124   3.698   4.022   0.891 -2.1482  0.5937  1.4702
 1545TIP3   OH226125   6.616   0.119  11.167  0.2155  0.4185 -0.1570
 1545TIP3    H126126   6.547   0.054  11.156  0.5572  0.1244 -0.5832
 1545TIP3    H226127   6.610   0.174  11.089  1.0372 -0.1575 -0.6387
 1546TIP3   OH226128   2.571   3.031   2.384 -0.2009 -0.2588 -0.3131
 1546TIP3    H126129   2.479   3.016   2.406 -0.4787  0.4159 -0.9494
 1546TIP3    H226130   2.583   3.125   2.397  0.2967 -0.2844 -0.5697
 1547TIP3   OH226131   6.203   0.515  16.035 -0.1412 -0.0408  0.3545
 1547TIP3    H126132   6.292   0.550  16.031 -0.3315  0.3225 -1.6538
 1547TIP3    H226133   6.186   0.483  15.947 -1.6797 -0.9607  0.9512
 1548TIP3   OH226134   6.074   3.458  16.066  0.7587 -0.4114 -0.3560
 1548TIP3    H126135   6.030   3.497  15.990  0.8229 -1.1590 -0.7869
 1548TIP3    H226136   6.002   3.431  16.123  0.6258 -1.6737 -1.0820
 1549TIP3   OH226137   1.146   5.858  11.491  0.2722  0.1503 -0.4163
 1549TIP3    H126138   1.146   5.817  11.404  1.5330  1.3259 -1.0266
 1549TIP3    H226139   1.238   5.861  11.516 -0.1468 -1.1140  1.4861
 1550TIP3   OH226140   3.330   6.008  12.732 -0.7295  0.1659  0.2051
 1550TIP3    H126141   3.268   6.038  12.798 -1.4515  0.6789 -0.6677
 1550TIP3    H226142   3.275   5.973  12.662  0.0368 -0.9938  0.1525
 1551TIP3   OH226143   1.471   5.325   5.850 -0.0065  0.2622 -0.5154
 1551TIP3    H126144   1.401   5.345   5.912 -0.7989 -1.3136 -0.8738
 1551TIP3    H226145   1.448   5.374   5.771  0.3805  1.3204 -0.0045
 1552TIP3   OH226146   0.979   1.173  15.425  0.3388  0.3111 -0.1615
 1552TIP3    H126147   0.899   1.223  15.441 -0.6952 -1.1020 -0.6930
 1552TIP3    H226148   0.993   1.179  15.330 -1.1407 -2.2381 -0.6266
 1553TIP3   OH226149   0.632   6.786  12.809 -0.0192  0.8482  0.4878
 1553TIP3    H126150   0.645   6.817  12.899 -1.1681 -1.5611  1.5473
 1553TIP3    H226151   0.576   6.709  12.817 -0.1571  0.5539 -2.3149
 1554TIP3   OH226152   0.363   2.055  14.418  0.3882 -0.0319 -0.0844
 1554TIP3    H126153   0.365   2.060  14.514 -1.5221 -1.1742  0.0699
 1554TIP3    H226154   0.359   2.146  14.390  0.4446  0.3144  0.9626
 1555TIP3   OH226155   6.353   0.630   2.169 -0.5462 -0.0018 -0.2139
 1555TIP3    H126156   6.345   0.589   2.255  0.7101 -0.3125 -0.2240
 1555TIP3    H226157   6.446   0.654   2.162 -0.7067  0.3859 -1.3155
 1556TIP3   OH226158   3.235   2.820   4.337 -0.0973  0.2941  0.4697
 1556TIP3    H126159   3.325   2.808   4.368 -0.6437 -0.9670  1.6539
 1556TIP3    H226160   3.212   2.909   4.363  0.1140 -0.0857  2.0656
 1557TIP3   OH226161   3.463   2.851  15.084 -0.0645  0.0742  0.1799
 1557TIP3    H126162   3.546   2.803  15.090 -0.1927 -0.2656 -0.6212
 1557TIP3    H226163   3.477   2.915  15.014 -0.6284 -0.2972 -0.2789
 1558TIP3   OH226164   3.007   1.809   3.257 -0.5541 -0.1941  0.6137
 1558TIP3    H126165   2.916   1.792   3.280 -0.9185  1.3906  0.4565
 1558TIP3    H226166   3.026   1.895   3.294  0.2905  0.3453 -0.9641
 1559TIP3   OH226167   3.675   3.048   5.359 -0.3763 -0.1041  0.5672
 1559TIP3    H126168   3.697   2.955   5.370  0.7012 -0.2736 -2.2297
 1559TIP3    H226169   3.594   3.048   5.308 -0.7766  0.5267  1.1852
 1560TIP3   OH226170   4.217   1.839   3.607 -0.2911 -0.2514 -0.5813
 1560TIP3    H126171   4.181   1.793   3.683 -0.6036 -0.6564 -0.9667
 1560TIP3    H226172   4.168   1.921   3.604 -0.0486 -0.0845 -0.1567
 1561TIP3   OH226173   6.579   2.217  13.611 -0.0372  0.4155  0.8016
 1561TIP3    H126174   6.663   2.182  13.583 -0.4811  0.4551 -0.6953
 1561TIP3    H226175   6.514   2.168  13.559 -0.8768  1.0194  1.2518
 1562TIP3   OH226176   3.469   6.473   4.766  0.0563  0.0305  0.4119
 1562TIP3    H126177   3.471   6.533   4.691 -1.9301  1.5009  1.4548
 1562TIP3    H226178   3.554   6.428   4.763 -0.6248 -1.4522 -3.8272
 1563TIP3   OH226179   6.664   3.020  10.771  0.0288  0.0320 -0.3052
 1563TIP3    H126180   6.736   2.993  10.714  1.6911 -0.0265  1.6864
 1563TIP3    H226181   6.595   2.956  10.755 -0.1092  0.7541 -3.1144
 1564TIP3   OH226182   1.143   1.088  17.061  0.3553  0.3087 -0.0868
 1564TIP3    H126183   1.142   0.997  17.033  2.6641  0.0941  0.3210
 1564TIP3    H226184   1.150   1.138  16.979  1.1374 -0.0188 -0.2352
 1565TIP3   OH226185   2.564   6.515   6.637 -0.4539 -0.3076  0.0886
 1565TIP3    H126186   2.648   6.557   6.623 -0.2381 -0.3861  1.0897
 1565TIP3    H226187   2.510   6.582   6.679 -0.9682 -0.1914 -0.7254
 1566TIP3   OH226188   3.072   1.097  13.321  0.3644 -0.1527 -0.3203
 1566TIP3    H126189   3.008   1.077  13.389  1.4058 -0.4226  0.6133
 1566TIP3    H226190   3.153   1.055  13.351  1.5616  1.9777 -0.3653
 1567TIP3   OH226191   6.169   6.753   3.345 -0.2948 -0.2059  0.2528
 1567TIP3    H126192   6.169   6.821   3.413 -0.2911 -1.8548  2.0045
 1567TIP3    H226193   6.078   6.727   3.337 -0.2267 -0.3572 -0.0400
 1568TIP3   OH226194   6.144   5.490   2.801  0.3370  0.0941  0.5846
 1568TIP3    H126195   6.091   5.414   2.778 -1.9063  0.3635  4.0478
 1568TIP3    H226196   6.202   5.458   2.871 -1.0217  1.5618  2.4801
 1569TIP3   OH226197   3.272   6.482   0.681 -0.4134 -0.5715  0.0411
 1569TIP3    H126198   3.265   6.472   0.586 -1.1221 -1.0029  0.1366
 1569TIP3    H226199   3.220   6.410   0.717  0.7554 -1.0738  0.7676
 1570TIP3   OH226200   1.163   0.290  15.671  0.7378 -0.3121 -1.0238
 1570TIP3    H126201   1.098   0.321  15.607 -0.4356  3.4062  1.6025
 1570TIP3    H226202   1.115   0.227  15.725 -0.0652  0.7717 -0.4385
 1571TIP3   OH226203   4.917   1.429   1.280  0.4347 -0.2026 -0.1928
 1571TIP3    H126204   4.855   1.478   1.227  0.8535 -1.1783 -1.6574
 1571TIP3    H226205   5.003   1.457   1.248  0.7214  0.0008  0.7376
 1572TIP3   OH226206   1.126   1.307  12.396  0.1702 -0.0498 -0.4977
 1572TIP3    H126207   1.169   1.230  12.359 -0.3731 -0.1211 -0.9830
 1572TIP3    H226208   1.110   1.364  12.321 -2.9890 -1.1538 -0.8276
 1573TIP3   OH226209   2.646   3.767   1.945  0.0796  0.2134  0.2428
 1573TIP3    H126210   2.598   3.841   1.983 -0.7733  0.3701 -1.0760
 1573TIP3    H226211   2.667   3.796   1.856 -0.3079 -1.1393 -0.3074
 1574TIP3   OH226212   3.824   3.945  13.744 -0.4129 -0.0630  0.5302
 1574TIP3    H126213   3.803   4.013  13.679  0.5234 -0.6477 -0.4100
 1574TIP3    H226214   3.801   3.863  13.701  4.1135 -0.8536 -0.8927
 1575TIP3   OH226215   2.484   2.870  15.780  0.1661 -0.1321  0.3336
 1575TIP3    H126216   2.560   2.927  15.768 -0.2804  0.6344  1.0355
 1575TIP3    H226217   2.425   2.921  15.835 -0.4952 -1.0592  0.4964
 1576TIP3   OH226218   4.992   5.968  12.649  0.0220 -0.1302 -0.1567
 1576TIP3    H126219   4.992   5.998  12.740 -2.3305  0.6169 -0.3346
 1576TIP3    H226220   4.934   5.892  12.649 -1.4718  0.9350 -1.2728
 1577TIP3   OH226221   1.694   5.445   4.191 -0.2744  0.0192  0.4143
 1577TIP3    H126222   1.623   5.381   4.190 -0.1329 -0.1811  1.5689
 1577TIP3    H226223   1.660   5.518   4.244 -0.1874  0.6097 -0.3281
 1578TIP3   OH226224   2.486   0.944  11.096  0.3197 -0.2905 -0.0875
 1578TIP3    H126225   2.442   0.859  11.085  0.5268 -0.7795  2.4103
 1578TIP3    H226226   2.571   0.932  11.054  0.9293 -1.8616  1.4663
 1579TIP3   OH226227   5.731   4.199  11.871 -0.1322  0.7034 -0.3978
 1579TIP3    H126228   5.772   4.119  11.838  2.2106  0.6328  2.3655
 1579TIP3    H226229   5.775   4.270  11.824 -0.3030  0.4697 -0.9177
 1580TIP3   OH226230   4.606   5.263  14.237  0.0574 -0.0840  0.0670
 1580TIP3    H126231   4.561   5.345  14.220 -0.8022  0.0461  2.6111
 1580TIP3    H226232   4.593   5.211  14.157  0.4659  2.1243 -1.5128
 1581TIP3   OH226233   5.596   4.694  16.788  0.5446  0.0092 -0.4379
 1581TIP3    H126234   5.675   4.710  16.736  1.1112 -2.8333 -0.6501
 1581TIP3    H226235   5.542   4.639  16.731  0.3542 -1.6114  1.2332
 1582TIP3   OH226236   2.618   3.735   2.888 -0.6200 -0.3306 -0.5543
 1582TIP3    H126237   2.699   3.685   2.872  1.1320  2.3075 -0.5387
 1582TIP3    H226238   2.640   3.793   2.961 -3.0653 -0.5272  0.4415
 1583TIP3   OH226239   4.620   5.037  14.056  0.2938 -0.2875 -0.8126
 1583TIP3    H126240   4.615   4.948  14.020 -1.0783 -0.0961 -1.1228
 1583TIP3    H226241   4.612   5.094  13.979  0.9306  0.1227 -0.5871
 1584TIP3   OH226242   4.581   1.680   1.284 -0.2424  0.6561 -0.4912
 1584TIP3    H126243   4.533   1.725   1.354  1.5553  0.5784  0.8651
 1584TIP3    H226244   4.556   1.588   1.293  1.5097  0.2969  1.4787
 1585TIP3   OH226245   3.646   4.558   3.331  0.3308  0.0813 -0.2103
 1585TIP3    H126246   3.662   4.585   3.241  0.5413 -1.5617 -0.6865
 1585TIP3    H226247   3.552   4.543   3.336  0.1222  1.3450  0.2147
 1586TIP3   OH226248   2.941   6.517   1.857 -0.1271  0.0319  0.5512
 1586TIP3    H126249   2.861   6.559   1.890 -0.6689 -0.4847 -0.0549
 1586TIP3    H226250   2.912   6.473   1.776  0.0969 -2.6493  1.8353
 1587TIP3   OH226251   1.438   4.962  16.324 -0.8465  0.1959  0.0268
 1587TIP3    H126252   1.412   4.947  16.415 -1.2669 -2.6653 -0.4716
 1587TIP3    H226253   1.531   4.940  16.323 -0.3676  2.0263  0.0648
 1588TIP3   OH226254   0.684   5.297  11.717  0.3808 -0.2753 -0.3152
 1588TIP3    H126255   0.620   5.356  11.758  1.3964  0.9521 -0.4233
 1588TIP3    H226256   0.644   5.211  11.724 -0.2223  0.0961  1.8298
 1589TIP3   OH226257   5.567   4.890   2.086 -0.1209 -0.1985  0.3711
 1589TIP3    H126258   5.518   4.930   2.159  0.9304  0.0764  0.9476
 1589TIP3    H226259   5.503   4.831   2.044 -1.2692  0.9788  0.4008
 1590TIP3   OH226260   3.821   0.042   2.608  0.0487  0.3327  0.4748
 1590TIP3    H126261   3.791   0.118   2.558  0.1811  0.7380  1.0043
 1590TIP3    H226262   3.836  -0.025   2.542 -1.2673  0.3651  0.1046
 1591TIP3   OH226263   3.995   2.811  14.215  0.2044 -0.6845  0.2742
 1591TIP3    H126264   3.919   2.838  14.267  0.7594  0.4628  0.5095
 1591TIP3    H226265   4.056   2.774  14.279  1.2600  1.5343  0.6302
 1592TIP3   OH226266   5.340   0.734  13.300 -0.1681 -0.8191 -0.0292
 1592TIP3    H126267   5.418   0.790  13.292  0.9004 -2.1799  0.4997
 1592TIP3    H226268   5.334   0.714  13.393 -0.8170 -1.1981 -0.1451
 1593TIP3   OH226269   2.094   4.209   4.609  0.2570  0.2147 -0.4620
 1593TIP3    H126270   2.066   4.216   4.518  1.3114 -0.7829 -0.8971
 1593TIP3    H226271   2.029   4.152   4.650  0.1800  0.0632 -0.7880
 1594TIP3   OH226272   0.223   0.148  15.007 -0.4162 -0.6464  0.7435
 1594TIP3    H126273   0.274   0.227  15.027 -2.6691  0.2008  3.7985
 1594TIP3    H226274   0.289   0.081  14.994  1.5515  1.1427  0.8538
 1595TIP3   OH226275   4.789   3.994   5.549 -0.2903 -0.0139  0.3366
 1595TIP3    H126276   4.736   4.061   5.592  1.2571  1.7988 -0.4200
 1595TIP3    H226277   4.733   3.961   5.479 -0.4451  1.9665 -0.5525
 1596TIP3   OH226278   3.978   0.467  13.772 -0.4192  0.2600 -0.0910
 1596TIP3    H126279   4.057   0.477  13.719 -1.5715 -1.2820 -2.2623
 1596TIP3    H226280   3.959   0.556  13.803  0.6886  1.1371 -1.7586
 1597TIP3   OH226281   4.070   6.208   1.519  0.6248  0.1532  0.3819
 1597TIP3    H126282   4.005   6.174   1.458  1.9487 -1.1114 -0.3844
 1597TIP3    H226283   4.085   6.298   1.491 -1.9516  1.0730  1.6120
 1598TIP3   OH226284   4.909   6.174   0.335  0.3435 -0.2644 -0.6616
 1598TIP3    H126285   4.987   6.151   0.385 -1.4652  0.0001  2.5027
 1598TIP3    H226286   4.876   6.089   0.303  0.2524 -0.7405  0.6508
 1599TIP3   OH226287   4.268   3.193  14.529  0.2057 -0.1277 -0.6183
 1599TIP3    H126288   4.293   3.192  14.437 -1.7045 -1.1699 -1.1741
 1599TIP3    H226289   4.287   3.283  14.558  1.2974  0.0716 -1.8630
 1600TIP3   OH226290   4.078   6.625  15.226 -0.3699  0.2549 -0.1296
 1600TIP3    H126291   4.009   6.564  15.199 -1.6461  0.8003  1.7090
 1600TIP3    H226292   4.032   6.707  15.242  0.7812  0.7552  0.7372
 1601TIP3   OH226293   1.684   6.332   2.345  0.1007  0.4991 -0.4088
 1601TIP3    H126294   1.663   6.345   2.438 -0.4133  0.2917 -0.4940
 1601TIP3    H226295   1.713   6.419   2.316  0.7186  0.4564  0.0573
 1602TIP3   OH226296   1.711   4.517  16.141  0.1893 -0.2850  0.1387
 1602TIP3    H126297   1.733   4.451  16.075  2.0632 -1.3458  1.7222
 1602TIP3    H226298   1.620   4.541  16.121  0.2032 -1.6466 -1.8808
 1603TIP3   OH226299   4.771   4.759  16.756  0.6791 -0.1463 -0.6894
 1603TIP3    H126300   4.796   4.679  16.803  2.0659  0.2612 -0.6802
 1603TIP3    H226301   4.736   4.728  16.672 -1.1094 -0.8424  0.2620
 1604TIP3   OH226302   1.777   3.405  16.761 -0.2657  0.1441  0.6981
 1604TIP3    H126303   1.837   3.388  16.834  1.4206  0.0137 -0.6562
 1604TIP3    H226304   1.817   3.477  16.712 -0.4085 -0.9164 -1.0775
 1605TIP3   OH226305   5.847   5.652   2.328  0.2058 -0.3029  0.1817
 1605TIP3    H126306   5.907   5.594   2.375  1.6508  0.4670 -0.6466
 1605TIP3    H226307   5.902   5.698   2.265 -0.9132  1.8095  0.6328
 1606TIP3   OH226308   1.000   2.058  16.640 -0.1487  0.4818  0.5646
 1606TIP3    H126309   1.047   2.049  16.722 -0.1979  1.5987  0.7239
 1606TIP3    H226310   0.950   1.976  16.632 -1.9711  1.2767  2.7962
 1607TIP3   OH226311   6.654   1.918  16.951 -0.0694 -0.3456  0.4900
 1607TIP3    H126312   6.605   1.842  16.919 -0.4551  1.0900 -2.6150
 1607TIP3    H226313   6.728   1.927  16.890 -0.8089  2.5499 -0.1230
 1608TIP3   OH226314   1.517   3.389   2.156 -0.2165 -0.3286  0.2184
 1608TIP3    H126315   1.453   3.318   2.154  0.0368 -0.5520 -0.7050
 1608TIP3    H226316   1.559   3.382   2.242 -2.3287  0.6700  1.4084
 1609TIP3   OH226317   1.387   2.337  12.623  0.1298 -0.6078  0.5818
 1609TIP3    H126318   1.339   2.262  12.659 -1.3638 -0.2257 -0.4786
 1609TIP3    H226319   1.391   2.399  12.695 -2.1098 -0.1659  0.3903
 1610TIP3   OH226320   1.727   0.556  16.249 -0.4110  0.1963  0.3758
 1610TIP3    H126321   1.631   0.554  16.242 -0.4099 -1.8271  0.2557
 1610TIP3    H226322   1.757   0.534  16.161  0.1808  0.7912  0.4221
 1611TIP3   OH226323   6.626   5.523  16.290 -0.4197 -0.0469  0.4000
 1611TIP3    H126324   6.679   5.599  16.315  0.2612  0.3309 -1.8885
 1611TIP3    H226325   6.671   5.488  16.213 -3.7902  0.7339 -2.1479
 1612TIP3   OH226326   4.943   3.669   5.944  0.4155  0.1015 -1.0857
 1612TIP3    H126327   4.879   3.716   5.890 -0.8388 -0.2214  0.0394
 1612TIP3    H226328   5.007   3.735   5.969 -1.2840  1.2594  0.4332
 1613TIP3   OH226329   6.212   3.558   5.223 -0.4012  0.1067  0.0679
 1613TIP3    H126330   6.230   3.474   5.266 -1.5616 -0.3685 -0.3222
 1613TIP3    H226331   6.130   3.588   5.263  0.5801  1.6420  1.0301
 1614TIP3   OH226332   0.646   6.261   3.041  0.5896  0.0242 -1.0856
 1614TIP3    H126333   0.733   6.228   3.019  1.2611  0.6099  0.5228
 1614TIP3    H226334   0.662   6.331   3.105 -1.1276 -1.0575  0.6433
 1615TIP3   OH226335   5.388   0.239   0.890 -0.0006  0.6886  0.2863
 1615TIP3    H126336   5.320   0.177   0.864  1.5792 -1.6534  1.3455
 1615TIP3    H226337   5.435   0.258   0.809  1.2024 -1.8217  0.2970
 1616TIP3   OH226338   1.165   1.580   0.267  0.5379  0.1301  0.1992
 1616TIP3    H126339   1.128   1.492   0.275 -0.2838  0.2620 -1.6374
 1616TIP3    H226340   1.097   1.638   0.301  1.0320  0.0978  1.2974
 1617TIP3   OH226341   1.990   4.976   3.220  0.4591 -0.1029  0.2811
 1617TIP3    H126342   1.900   5.003   3.237 -0.5260 -2.0479 -1.3310
 1617TIP3    H226343   2.009   5.006   3.131  1.7963  1.1291  0.9397
 1618TIP3   OH226344   3.175   3.994  14.065  0.2906  0.8793  0.3304
 1618TIP3    H126345   3.224   4.075  14.078  0.2737  0.5844  2.7381
 1618TIP3    H226346   3.106   3.997  14.132 -0.5289 -0.5247 -0.4026
 1619TIP3   OH226347   0.548   2.579  17.105  0.2329  0.7364  0.6717
 1619TIP3    H126348   0.607   2.639  17.151 -0.4242  0.6539  1.6394
 1619TIP3    H226349   0.513   2.631  17.033  1.8494  0.6441 -0.2429
 1620TIP3   OH226350   2.169   3.397  11.529  0.0531  0.1239  0.4141
 1620TIP3    H126351   2.204   3.312  11.500  1.2227  0.5081  0.6534
 1620TIP3    H226352   2.074   3.388  11.520  0.2540 -0.4692 -1.6106
 1621TIP3   OH226353   3.530   0.919   5.483 -0.3506  0.1142 -0.3735
 1621TIP3    H126354   3.487   0.986   5.535  1.4068  0.4830  0.7093
 1621TIP3    H226355   3.537   0.956   5.395  0.1000  1.1338  0.0825
 1622TIP3   OH226356   4.152   3.224  13.241  0.0974  0.1561  0.1761
 1622TIP3    H126357   4.164   3.302  13.297 -0.7023 -0.9151  1.9388
 1622TIP3    H226358   4.087   3.171  13.288 -0.6648 -0.8061 -1.8350
 1623TIP3   OH226359   6.341   6.229   2.290  0.2727  0.0225  0.4547
 1623TIP3    H126360   6.411   6.234   2.355  0.9402  0.9054 -0.3187
 1623TIP3    H226361   6.261   6.240   2.341  0.7536  0.1625  1.1971
 1624TIP3   OH226362   4.114   5.282  16.904 -0.6057 -0.5370 -0.2144
 1624TIP3    H126363   4.036   5.243  16.943  0.0115 -1.5060  0.0654
 1624TIP3    H226364   4.159   5.210  16.862 -0.8061  0.3449 -2.0158
 1625TIP3   OH226365   4.337   5.849  16.321 -0.5564 -0.2161 -0.2358
 1625TIP3    H126366   4.284   5.888  16.251 -1.1996  1.4712  1.1058
 1625TIP3    H226367   4.273   5.814  16.383  0.0180 -2.9358 -1.0788
 1626TIP3   OH226368   5.314   5.255   1.186  0.2486  0.6570 -0.2035
 1626TIP3    H126369   5.409   5.268   1.196  0.5489 -1.3009  0.0238
 1626TIP3    H226370   5.283   5.335   1.145  1.7078  2.0810  1.2896
 1627TIP3   OH226371   4.895   1.467  16.787  1.2786  0.5079 -0.3461
 1627TIP3    H126372   4.932   1.517  16.714  0.4211 -0.5230 -1.5210
 1627TIP3    H226373   4.851   1.533  16.841 -0.0966  1.0304 -2.0297
 1628TIP3   OH226374   4.477   0.708  14.762 -0.3921  0.1038  0.3681
 1628TIP3    H126375   4.547   0.654  14.725 -0.7804  0.0595 -0.3298
 1628TIP3    H226376   4.397   0.670  14.726 -0.9739 -1.1323  2.7170
 1629TIP3   OH226377   1.435   6.630  15.042  0.4150  0.2198 -0.5575
 1629TIP3    H126378   1.494   6.596  15.109 -0.7192 -0.6082  0.0444
 1629TIP3    H226379   1.385   6.699  15.086 -0.2166 -0.2142 -0.5784
 1630TIP3   OH226380   5.691   0.867  15.982  0.0963  0.5021  0.1211
 1630TIP3    H126381   5.655   0.892  15.896  0.5285 -0.0148 -0.2190
 1630TIP3    H226382   5.648   0.784  16.002 -0.1907  0.7450  0.5293
 1631TIP3   OH226383   1.298   1.908  16.529  0.2604  0.4272 -0.1074
 1631TIP3    H126384   1.256   1.984  16.489  0.9809  0.9592  0.1253
 1631TIP3    H226385   1.388   1.909  16.495  0.3890 -0.0905  0.2006
 1632TIP3   OH226386   1.290   3.655   2.135  0.5303  0.1134 -0.1355
 1632TIP3    H126387   1.329   3.600   2.203  0.0738 -0.2556 -0.1711
 1632TIP3    H226388   1.199   3.627   2.129  0.1932  1.1070  0.0854
 1633TIP3   OH226389   4.480   5.504   4.955 -0.1129 -0.2078  0.2044
 1633TIP3    H126390   4.454   5.426   5.005 -1.3525  1.2133  1.9314
 1633TIP3    H226391   4.545   5.472   4.893  0.1288 -2.4504  1.4838
 1634TIP3   OH226392   0.803   2.438   0.151  0.3540 -0.2304  0.1425
 1634TIP3    H126393   0.874   2.490   0.112 -2.0467  2.3624 -1.1851
 1634TIP3    H226394   0.747   2.503   0.194 -2.0629 -1.9003 -0.3025
 1635TIP3   OH226395   4.485   4.477  12.971 -0.2184  0.0892  0.1423
 1635TIP3    H126396   4.518   4.541  12.908  0.3865  1.0624  1.4057
 1635TIP3    H226397   4.561   4.455  13.025 -0.8144 -0.3700  0.8151
 1636TIP3   OH226398   0.097   1.459  15.534 -0.0929  0.1210  0.2919
 1636TIP3    H126399   0.005   1.483  15.523 -0.2321 -1.0141 -1.3855
 1636TIP3    H226400   0.096   1.363  15.535  0.9840  0.1044  1.2528
 1637TIP3   OH226401   2.465   6.688   0.192  0.5698  0.4712 -0.1377
 1637TIP3    H126402   2.449   6.595   0.179 -0.6050  0.7650 -1.1045
 1637TIP3    H226403   2.444   6.704   0.284  4.0699 -0.7699  1.0385
 1638TIP3   OH226404   5.311   2.938   2.022 -0.2615 -0.2537  1.0220
 1638TIP3    H126405   5.221   2.951   1.992 -0.0536  0.8664  0.8497
 1638TIP3    H226406   5.331   3.017   2.073  1.2771  0.4465 -0.5510
 1639TIP3   OH226407   5.219   5.701  16.726  0.5845 -0.1982  0.3144
 1639TIP3    H126408   5.263   5.673  16.806  1.8748  0.7597 -0.0164
 1639TIP3    H226409   5.132   5.729  16.755  1.5638  1.6709  1.6927
 1640TIP3   OH226410   2.580   3.095  16.841 -0.1382  0.1587 -0.2269
 1640TIP3    H126411   2.625   3.172  16.874 -0.8963 -0.4931  2.6891
 1640TIP3    H226412   2.518   3.129  16.776 -0.8508  2.1217  1.3678
 1641TIP3   OH226413   6.171   5.538  16.506  0.2780 -0.4739  0.3702
 1641TIP3    H126414   6.168   5.607  16.439  0.3746 -1.2825 -0.4889
 1641TIP3    H226415   6.082   5.536  16.542  0.7464  1.4031  1.8030
 1642TIP3   OH226416   6.284   2.424  13.833  0.1950 -0.9048  0.3829
 1642TIP3    H126417   6.370   2.444  13.797 -0.5840 -0.3878 -1.2479
 1642TIP3    H226418   6.249   2.509  13.860  0.0603 -1.0823  0.7827
 1643TIP3   OH226419   5.835   4.411  16.511  0.4983  0.0147  0.6927
 1643TIP3    H126420   5.770   4.462  16.463 -0.6143 -0.6068  1.4878
 1643TIP3    H226421   5.905   4.397  16.448  0.4775  1.8059  0.1997
 1644TIP3   OH226422   4.571   3.161   2.249  0.5747  0.3580 -0.0107
 1644TIP3    H126423   4.663   3.178   2.227  0.2688 -0.0363 -1.6953
 1644TIP3    H226424   4.560   3.067   2.234 -0.4050  0.6217 -1.0089
 1645TIP3   OH226425   5.843   3.801   3.721 -0.4073 -0.0944  0.3978
 1645TIP3    H126426   5.920   3.808   3.665 -0.2331  0.4733  0.7016
 1645TIP3    H226427   5.798   3.884   3.711 -0.8418 -0.3246  0.4293
 1646TIP3   OH226428   2.263   4.046   1.221 -0.3217 -0.4014 -0.6357
 1646TIP3    H126429   2.171   4.061   1.199 -0.4173 -1.1236 -0.7547
 1646TIP3    H226430   2.292   3.980   1.158  0.4662  0.2939 -1.0140
 1647TIP3   OH226431   1.950   3.662   2.247  0.3013  0.4004 -0.2631
 1647TIP3    H126432   2.027   3.717   2.232  0.1744  1.2097  1.7303
 1647TIP3    H226433   1.894   3.715   2.304  0.5509 -2.0755  2.5068
 1648TIP3   OH226434   6.360   2.405  10.943 -0.4760  0.4940 -0.5003
 1648TIP3    H126435   6.378   2.478  10.883 -2.0666  2.6383  1.4350
 1648TIP3    H226436   6.301   2.348  10.894  1.5554 -0.0938 -2.4059
 1649TIP3   OH226437   0.221   5.886  11.713 -0.4502  0.0251  0.5062
 1649TIP3    H126438   0.280   5.959  11.728 -0.2636 -0.4757  2.5978
 1649TIP3    H226439   0.211   5.845  11.799 -0.7888 -2.2337 -0.5161
 1650TIP3   OH226440   1.495   3.991   3.443  0.1027 -0.4050 -0.0066
 1650TIP3    H126441   1.560   4.035   3.389 -0.4023 -0.1731 -0.4342
 1650TIP3    H226442   1.411   4.014   3.404 -0.2770 -0.2374  0.8754
 1651TIP3   OH226443   2.517   6.845  14.238  0.0041  0.8216 -0.1259
 1651TIP3    H126444   2.587   6.832  14.303 -0.6238  0.2491  0.4620
 1651TIP3    H226445   2.560   6.888  14.164  0.6709  1.8420  0.8159
 1652TIP3   OH226446   5.851   4.324   4.209  1.1288 -0.5567  0.3717
 1652TIP3    H126447   5.856   4.234   4.242  1.5039 -0.5542  0.3253
 1652TIP3    H226448   5.871   4.378   4.285  2.1690 -0.5566  0.1132
 1653TIP3   OH226449   2.719   0.122  16.673 -0.8033 -0.1130  0.5410
 1653TIP3    H126450   2.688   0.205  16.639  0.5421  0.2727  0.1730
 1653TIP3    H226451   2.647   0.061  16.659 -0.7967  0.3316 -1.8442
 1654TIP3   OH226452   4.549   2.286   2.044  0.4893 -0.0147  0.2855
 1654TIP3    H126453   4.462   2.301   2.083  0.6028  1.2200  0.0878
 1654TIP3    H226454   4.552   2.191   2.030 -0.8317 -0.0787  0.2910
 1655TIP3   OH226455   2.532   6.617   5.296  0.2698  0.2943  0.3532
 1655TIP3    H126456   2.476   6.640   5.370 -1.1706  1.0817 -0.9301
 1655TIP3    H226457   2.471   6.594   5.226  1.5561 -3.4798  0.2440
 1656TIP3   OH226458   3.634   0.252  16.767  0.1909 -0.5505 -0.7123
 1656TIP3    H126459   3.613   0.176  16.821 -0.0131  0.0354  0.0514
 1656TIP3    H226460   3.728   0.263  16.777 -0.0295  0.3943  0.6997
 1657TIP3   OH226461   5.077   3.809  16.549  0.2717 -0.1706  0.4372
 1657TIP3    H126462   5.033   3.893  16.539  0.7420  0.0371  0.0654
 1657TIP3    H226463   5.032   3.750  16.489  1.6495  0.5057 -1.3425
 1658TIP3   OH226464   2.570   3.460  12.011  0.0478  0.0200  0.3950
 1658TIP3    H126465   2.633   3.471  12.082  0.5233  1.0466 -0.1637
 1658TIP3    H226466   2.486   3.446  12.055  0.4262  0.1023  1.1547
 1659TIP3   OH226467   2.260   3.401   2.072  0.2170  0.5741 -0.6008
 1659TIP3    H126468   2.307   3.374   1.993  1.0345  2.1466 -0.6876
 1659TIP3    H226469   2.282   3.494   2.083 -1.1480  0.7981  0.5915
 1660TIP3   OH226470   3.111   5.996  14.492  0.0645 -0.4751 -0.7248
 1660TIP3    H126471   3.030   6.013  14.540  3.0299  1.4297  4.3132
 1660TIP3    H226472   3.130   6.078  14.447  0.6534  0.2285  0.7391
 1661TIP3   OH226473   5.360   6.715  16.566 -0.6584 -0.2893  0.2275
 1661TIP3    H126474   5.297   6.762  16.620  0.3434  0.7474  0.5525
 1661TIP3    H226475   5.307   6.662  16.507 -1.8810  1.6254 -0.4803
 1662TIP3   OH226476   0.538   5.666  15.659 -0.1039 -0.3096  0.0446
 1662TIP3    H126477   0.476   5.593  15.659 -1.0558  0.4727  0.4140
 1662TIP3    H226478   0.511   5.719  15.583 -0.4461  0.4833  0.7114
 1663TIP3   OH226479   6.042   5.589   2.509  0.6144 -0.4786 -0.1997
 1663TIP3    H126480   6.119   5.627   2.551 -0.0504  0.0014  0.6252
 1663TIP3    H226481   6.030   5.504   2.553  0.6115 -0.5074 -0.2556
 1664TIP3   OH226482   5.162   0.999  16.486 -0.6229  0.6136  0.1466
 1664TIP3    H126483   5.155   0.911  16.449 -0.1418 -0.2302  1.9410
 1664TIP3    H226484   5.080   1.042  16.462  0.1199  0.5861 -2.8570
 1665TIP3   OH226485   5.058   2.852  13.921 -0.7736 -0.1504  0.1218
 1665TIP3    H126486   5.120   2.913  13.962 -2.2819  1.4004  0.2290
 1665TIP3    H226487   5.036   2.790  13.991  1.6381 -1.6237 -0.3063
 1666TIP3   OH226488   3.948   0.988  12.240 -0.0889 -0.0171 -0.4169
 1666TIP3    H126489   3.865   1.027  12.265  1.1811  3.2424 -0.7428
 1666TIP3    H226490   4.012   1.026  12.301  1.4167 -0.9850 -1.3165
 1667TIP3   OH226491   6.831   5.508   0.075 -0.7194  0.5579  0.4449
 1667TIP3    H126492   6.887   5.472   0.144  1.3841  2.2604 -0.2631
 1667TIP3    H226493   6.889   5.565   0.024 -2.5117  0.3833 -1.9519
 1668TIP3   OH226494   1.880   3.873  15.997  0.7588  0.1413  0.3588
 1668TIP3    H126495   1.933   3.793  15.990  1.0666  0.4202 -0.8648
 1668TIP3    H226496   1.814   3.863  15.928 -0.5132  0.0126  1.5673
 1669TIP3   OH226497   1.220   3.972  10.931 -0.0569  0.1960  0.1445
 1669TIP3    H126498   1.306   3.933  10.917 -0.1204 -0.3230  1.1341
 1669TIP3    H226499   1.201   3.958  11.024 -0.4063  1.9212  0.3756
 1670TIP3   OH226500   6.194   5.675  14.055 -0.0549  0.1266  0.2681
 1670TIP3    H126501   6.142   5.719  14.123 -1.1110 -2.7360  1.4689
 1670TIP3    H226502   6.275   5.650  14.099  0.0537 -0.1285 -0.0753
 1671TIP3   OH226503   2.237   5.390  15.113  0.2421 -0.3167  0.3255
 1671TIP3    H126504   2.314   5.440  15.086 -0.1826  0.4274  0.4689
 1671TIP3    H226505   2.267   5.338  15.188  1.1298 -1.5604 -0.8419
 1672TIP3   OH226506   1.157   5.265  13.411  0.7709 -0.4886  0.4060
 1672TIP3    H126507   1.185   5.236  13.324 -1.1119 -0.0629 -0.3858
 1672TIP3    H226508   1.133   5.357  13.399 -0.0093 -0.5673  1.2401
 1673TIP3   OH226509   6.091   5.390  15.698  0.4935 -0.1106 -0.1751
 1673TIP3    H126510   6.057   5.459  15.755  1.2125 -0.4012  0.6343
 1673TIP3    H226511   6.141   5.436  15.631 -1.4362  0.3175 -1.3751
 1674TIP3   OH226512   2.735   6.368   4.452  0.4619  0.1349 -0.1261
 1674TIP3    H126513   2.741   6.441   4.513  0.6472 -0.6460  0.8088
 1674TIP3    H226514   2.759   6.405   4.367  2.2660  0.7837  0.6213
 1675TIP3   OH226515   6.747   6.537   3.973  0.2942 -0.3301 -0.3923
 1675TIP3    H126516   6.753   6.543   3.878 -0.6049 -0.5347 -0.4635
 1675TIP3    H226517   6.706   6.619   4.000 -0.6318 -0.8207 -0.2945
 1676TIP3   OH226518   2.809   6.003   1.043  0.7360  0.2429 -0.3213
 1676TIP3    H126519   2.839   5.917   1.072  0.2815 -0.7411 -2.5147
 1676TIP3    H226520   2.721   6.011   1.080 -0.2947 -1.4764 -2.1871
 1677TIP3   OH226521   5.720   4.945  11.687  0.5025  0.0108  0.1213
 1677TIP3    H126522   5.726   5.029  11.732  0.6569  1.5288 -2.4945
 1677TIP3    H226523   5.764   4.883  11.745  2.6112  2.2337  1.0809
 1678TIP3   OH226524   5.000   2.522  12.914 -0.6226 -0.1070 -0.3637
 1678TIP3    H126525   4.957   2.490  12.993 -0.0045 -0.6312 -0.2257
 1678TIP3    H226526   4.970   2.612  12.904 -2.5966 -0.7830 -0.8830
 1679TIP3   OH226527   6.179   4.667   0.866  0.0937 -0.1683  0.1643
 1679TIP3    H126528   6.190   4.638   0.957  0.1263 -2.0427 -0.4077
 1679TIP3    H226529   6.087   4.651   0.847  0.5567 -1.9073 -0.7982
 1680TIP3   OH226530   6.759   4.405   1.026  0.1452 -0.5495 -0.2219
 1680TIP3    H126531   6.820   4.365   0.964 -0.1342  1.1810 -1.6977
 1680TIP3    H226532   6.780   4.499   1.023 -1.4870 -0.1299  0.4622
 1681TIP3   OH226533   1.472   5.531   2.300 -0.7265 -0.0250  0.4398
 1681TIP3    H126534   1.498   5.523   2.392 -2.5456 -0.9752  0.9117
 1681TIP3    H226535   1.482   5.443   2.264  2.3020  0.7702 -1.0211
 1682TIP3   OH226536   1.173   6.248  11.337 -0.0120 -0.0109 -0.0597
 1682TIP3    H126537   1.208   6.170  11.295 -2.5219 -0.2385 -1.9484
 1682TIP3    H226538   1.166   6.225  11.430  2.0488 -0.8877 -0.0644
 1683TIP3   OH226539   1.523   1.600   6.201 -0.1041  0.2627  0.1198
 1683TIP3    H126540   1.595   1.656   6.173  0.5355 -0.4828  0.2115
 1683TIP3    H226541   1.529   1.599   6.297  0.1917 -0.3223  0.1043
 1684TIP3   OH226542   4.063   4.716   2.212  0.7841 -0.0591  0.1475
 1684TIP3    H126543   4.141   4.669   2.241  0.5696  0.3368  1.4189
 1684TIP3    H226544   3.993   4.650   2.215  0.8423 -0.1221  0.1238
 1685TIP3   OH226545   3.996   1.574   3.230 -0.0197  0.0500 -0.0240
 1685TIP3    H126546   3.961   1.653   3.271  0.6658 -0.9764  2.7577
 1685TIP3    H226547   4.087   1.570   3.259 -0.3063 -2.2437  0.7531
 1686TIP3   OH226548   2.928   5.573  10.971 -0.3123  0.3350  0.2266
 1686TIP3    H126549   2.980   5.547  11.047  1.3277 -0.7697 -1.2186
 1686TIP3    H226550   2.962   5.521  10.899 -1.5473  1.6403 -1.3786
 1687TIP3   OH226551   3.802   0.507  16.440  0.3301 -0.6295 -0.8794
 1687TIP3    H126552   3.747   0.429  16.430 -0.3664 -0.2431 -0.1636
 1687TIP3    H226553   3.756   0.561  16.505  0.8446  0.3407 -1.2983
 1688TIP3   OH226554   3.879   2.501   3.299  0.0229 -0.9133  0.5379
 1688TIP3    H126555   3.877   2.594   3.322 -2.6190 -0.6967 -0.2355
 1688TIP3    H226556   3.970   2.485   3.275  0.7942  1.1795  1.7675
 1689TIP3   OH226557   0.197   1.924  14.270  0.0392 -0.2993 -0.0262
 1689TIP3    H126558   0.124   1.979  14.243 -1.9919 -1.6439  2.3595
 1689TIP3    H226559   0.255   1.984  14.318 -0.2032  0.4826 -0.6832
 1690TIP3   OH226560   5.074   6.380   4.048 -0.6820  0.6049  0.3224
 1690TIP3    H126561   5.041   6.453   3.996 -1.6835  0.3038  0.5053
 1690TIP3    H226562   4.995   6.332   4.074 -0.0387 -0.6407  0.0556
 1691TIP3   OH226563   0.389   0.631  16.334 -0.3214 -0.3315  0.1365
 1691TIP3    H126564   0.398   0.650  16.240  0.5163 -1.8142 -0.1110
 1691TIP3    H226565   0.435   0.703  16.377  0.9624 -0.6064 -0.6888
 1692TIP3   OH226566   5.143   4.072  12.416  0.0764 -0.5383 -0.5807
 1692TIP3    H126567   5.063   4.026  12.443  0.2892 -0.8544 -0.4762
 1692TIP3    H226568   5.112   4.144  12.362 -0.3346 -0.1162  0.2061
 1693TIP3   OH226569   6.546   1.847   3.888 -0.1427 -0.0780  0.0028
 1693TIP3    H126570   6.489   1.791   3.836  0.0195  0.9571 -1.3227
 1693TIP3    H226571   6.493   1.924   3.909  0.1992  0.0846  0.2875
 1694TIP3   OH226572   0.723   2.870  16.407 -0.1634  0.0576 -0.0460
 1694TIP3    H126573   0.688   2.816  16.336  1.7676  0.4433 -1.3580
 1694TIP3    H226574   0.680   2.955  16.396 -1.2385 -0.4005  0.4203
 1695TIP3   OH226575   5.037   1.865   5.836  0.0128  0.4820 -0.1098
 1695TIP3    H126576   4.971   1.796   5.849 -1.0186  1.4698  0.0971
 1695TIP3    H226577   5.078   1.874   5.922 -2.0835  2.2881  0.8147
 1696TIP3   OH226578   2.312   4.817  15.169  0.3645  0.0421  0.2769
 1696TIP3    H126579   2.386   4.875  15.185  1.4565 -0.7462 -1.5558
 1696TIP3    H226580   2.273   4.802  15.255  1.7541  1.2293  1.1493
 1697TIP3   OH226581   5.565   3.122  11.817  0.2484 -0.3871 -0.8263
 1697TIP3    H126582   5.566   3.042  11.869  1.1433 -0.2203 -0.5791
 1697TIP3    H226583   5.646   3.168  11.841 -0.0164  0.3587 -1.3228
 1698TIP3   OH226584   4.163   3.642   3.965  0.3631  0.4750 -0.6333
 1698TIP3    H126585   4.206   3.707   4.021 -0.8284  0.9942 -0.2979
 1698TIP3    H226586   4.154   3.564   4.021  0.9080  0.3447 -0.7237
 1699TIP3   OH226587   3.435   4.604   3.703 -0.1243 -0.0167 -0.0694
 1699TIP3    H126588   3.519   4.579   3.665 -1.0888 -3.1199 -0.3694
 1699TIP3    H226589   3.453   4.615   3.796  0.6603 -0.3873 -0.1770
 1700TIP3   OH226590   5.004   5.623  13.404  0.3917 -0.0767 -0.9301
 1700TIP3    H126591   5.010   5.708  13.361  0.8962 -0.6307 -2.0088
 1700TIP3    H226592   4.932   5.632  13.466  0.7037  1.2501 -0.7413
 1701TIP3   OH226593   0.183   1.154   0.973  0.6064 -0.2223 -0.1800
 1701TIP3    H126594   0.243   1.097   1.021 -0.0708 -0.9727 -0.2124
 1701TIP3    H226595   0.167   1.227   1.032  0.8099 -0.4881  0.2070
 1702TIP3   OH226596   1.625   2.390  14.770  0.6159 -0.0353  0.2797
 1702TIP3    H126597   1.615   2.312  14.823  0.2817 -0.5130 -0.4741
 1702TIP3    H226598   1.719   2.398  14.756  0.5852 -1.0368 -0.6861
 1703TIP3   OH226599   0.200   1.432   4.893  0.3438 -0.2012 -0.4794
 1703TIP3    H126600   0.174   1.340   4.893  0.5795 -0.2740  0.0282
 1703TIP3    H226601   0.191   1.459   4.985 -1.7427  0.8692 -0.9457
 1704TIP3   OH226602   2.797   0.001  14.376 -0.2950  0.0318 -0.3839
 1704TIP3    H126603   2.825   0.021  14.287 -1.4719  1.6042 -0.4455
 1704TIP3    H226604   2.878  -0.020  14.422  0.3972 -0.2556 -1.6865
 1705TIP3   OH226605   4.182   4.478  10.922 -0.5564  0.5989  0.5741
 1705TIP3    H126606   4.173   4.432  11.005  0.5369 -0.9178 -0.1127
 1705TIP3    H226607   4.115   4.438  10.866  0.8078 -0.6569 -0.2152
 1706TIP3   OH226608   5.244   2.653   2.257 -0.4465  0.1230  0.0099
 1706TIP3    H126609   5.161   2.658   2.209  0.5290  1.2219 -1.6593
 1706TIP3    H226610   5.223   2.686   2.345 -2.1751 -1.4936  0.2586
 1707TIP3   OH226611   5.112   5.647  14.291  0.5377  0.5958 -0.5749
 1707TIP3    H126612   5.069   5.692  14.218  1.4464  0.7880 -1.0016
 1707TIP3    H226613   5.085   5.556  14.281 -0.8139  0.9124 -0.0698
 1708TIP3   OH226614   5.859   3.725  12.008  0.1157 -0.2879  0.4625
 1708TIP3    H126615   5.794   3.689  11.948  1.1705  0.2941 -1.0710
 1708TIP3    H226616   5.917   3.778  11.953  0.6621  0.9198  2.1145
 1709TIP3   OH226617   6.829   3.821  11.460 -0.1403  0.6606 -0.5883
 1709TIP3    H126618   6.876   3.818  11.376  0.1050  1.1032 -0.4672
 1709TIP3    H226619   6.756   3.881  11.444  0.5070  1.5751 -0.1852
 1710TIP3   OH226620   4.673   4.883   4.875  0.4554 -0.0563 -0.1551
 1710TIP3    H126621   4.748   4.827   4.857  1.1593  0.9527 -0.4187
 1710TIP3    H226622   4.700   4.970   4.845 -0.4925  0.4911  0.5325
 1711TIP3   OH226623   4.563   5.241  10.349  0.2062 -0.3783  0.0052
 1711TIP3    H126624   4.563   5.319  10.292  1.0402 -0.1312  0.3315
 1711TIP3    H226625   4.622   5.180  10.305 -1.0594 -1.1478 -0.6614
 1712TIP3   OH226626   2.039   3.790   3.430  0.1638 -0.8209  0.1441
 1712TIP3    H126627   1.967   3.756   3.376  0.5917  0.0546 -1.0318
 1712TIP3    H226628   2.095   3.715   3.447 -0.7974 -1.4263  0.7214
 1713TIP3   OH226629   6.531   2.333   4.423  0.5117  0.2653  0.1007
 1713TIP3    H126630   6.596   2.272   4.389 -0.1923 -0.4471 -0.0126
 1713TIP3    H226631   6.480   2.280   4.485  1.0656  1.2312  1.4454
 1714TIP3   OH226632   5.278   4.480  11.424 -0.4820  0.4375  0.0717
 1714TIP3    H126633   5.308   4.434  11.346  0.0559 -0.2859  0.6973
 1714TIP3    H226634   5.188   4.451  11.436 -0.6081  0.6473 -0.3467
 1715TIP3   OH226635   3.119   5.392  14.360 -0.4205 -0.1685  0.2861
 1715TIP3    H126636   3.029   5.425  14.368  0.0141  1.0073  0.5664
 1715TIP3    H226637   3.110   5.297  14.358 -1.5544 -0.1350  2.0022
 1716TIP3   OH226638   6.427   0.400  11.652  0.4912 -0.1821 -0.1836
 1716TIP3    H126639   6.398   0.313  11.680  0.4417 -0.8247 -2.0695
 1716TIP3    H226640   6.520   0.389  11.635  0.1418 -0.3899 -2.1574
 1717TIP3   OH226641   3.268   3.715  14.180  0.2558  0.5525  0.0273
 1717TIP3    H126642   3.327   3.740  14.252  0.2675 -0.5800  0.4394
 1717TIP3    H226643   3.268   3.790  14.121 -0.5901  1.9539  1.7342
 1718TIP3   OH226644   3.561   1.456  13.282  0.0744  0.5887 -0.4422
 1718TIP3    H126645   3.568   1.402  13.204  1.3011  1.7569 -1.1702
 1718TIP3    H226646   3.574   1.394  13.355  2.1511 -0.0111 -1.2614
 1719TIP3   OH226647   3.680   2.292   6.353  0.6687 -0.4216  0.3692
 1719TIP3    H126648   3.768   2.295   6.317 -0.5665  0.0008 -2.9693
 1719TIP3    H226649   3.662   2.382   6.381  0.7230 -0.1293 -0.5240
 1720TIP3   OH226650   3.887   3.700   4.112 -0.2066 -0.1212  0.0929
 1720TIP3    H126651   3.794   3.704   4.133  0.3635  1.7497  2.7603
 1720TIP3    H226652   3.908   3.788   4.081  0.8552 -0.2218  0.4905
 1721TIP3   OH226653   6.178   4.831   5.925  0.0736  0.3143  0.8029
 1721TIP3    H126654   6.264   4.799   5.952 -0.3438 -1.5866 -0.0082
 1721TIP3    H226655   6.137   4.860   6.007  1.0630  0.2548  1.3431
 1722TIP3   OH226656   4.954   3.734  14.016 -0.2657 -0.7031 -0.0568
 1722TIP3    H126657   4.910   3.651  14.036 -1.6281 -0.3362 -1.3474
 1722TIP3    H226658   4.903   3.800  14.061 -0.9767 -0.2890 -1.4288
 1723TIP3   OH226659   4.660   5.215  12.991 -0.5226 -0.3143 -0.1443
 1723TIP3    H126660   4.725   5.286  12.994 -0.7361 -0.0023 -1.7668
 1723TIP3    H226661   4.707   5.138  13.022 -0.3234  0.5300  1.8201
 1724TIP3   OH226662   2.175   2.460   2.441  0.1683 -0.0308  0.2600
 1724TIP3    H126663   2.130   2.401   2.381  0.9433  0.7804 -1.1552
 1724TIP3    H226664   2.263   2.469   2.405 -0.2536  2.8934 -0.2519
 1725TIP3   OH226665   0.898   4.094   1.871 -0.1638 -0.2110  0.4056
 1725TIP3    H126666   0.857   4.179   1.857 -0.3532 -0.5118 -1.0604
 1725TIP3    H226667   0.927   4.066   1.784  2.7011 -0.2696  1.2636
 1726TIP3   OH226668   1.686   5.444   5.390 -0.3893  0.0532  0.1068
 1726TIP3    H126669   1.633   5.368   5.367  0.9289 -1.2587  1.1862
 1726TIP3    H226670   1.678   5.503   5.315  0.3344 -2.1476 -1.8060
 1727TIP3   OH226671   5.460   1.171   2.421 -0.4818 -0.5676  0.2169
 1727TIP3    H126672   5.383   1.133   2.378 -1.1370  1.6115 -0.7125
 1727TIP3    H226673   5.437   1.173   2.514 -1.4314 -0.2491 -0.0071
 1728TIP3   OH226674   6.645   0.886   5.252 -0.2682  0.5754  0.4263
 1728TIP3    H126675   6.622   0.975   5.279 -0.5180  0.5994  0.1368
 1728TIP3    H226676   6.571   0.857   5.198  0.0393  0.3757  0.1096
 1729TIP3   OH226677   0.415   2.837   3.694 -0.2481  0.4826 -0.5673
 1729TIP3    H126678   0.431   2.810   3.784  0.3748  0.3396 -0.7163
 1729TIP3    H226679   0.328   2.801   3.674  1.0099 -2.6041 -1.1490
 1730TIP3   OH226680   1.450   1.384   2.128  0.2267  0.1929  0.2114
 1730TIP3    H126681   1.393   1.451   2.165  0.7472  0.5227  0.4235
 1730TIP3    H226682   1.538   1.420   2.136  0.4312 -0.1235 -0.5128
 1731TIP3   OH226683   0.045   4.025  15.322  0.4885  0.5044 -0.1884
 1731TIP3    H126684   0.007   3.953  15.271  0.1282  0.3360  0.3084
 1731TIP3    H226685  -0.027   4.089  15.330  0.8989  1.0704 -0.8973
 1732TIP3   OH226686   0.172   6.003   2.522 -0.0821  0.0425 -0.4857
 1732TIP3    H126687   0.132   5.919   2.544  0.0268 -0.2321 -1.2982
 1732TIP3    H226688   0.189   6.045   2.606  2.5476 -1.9731  0.1140
 1733TIP3   OH226689   6.045   6.368   5.377  0.4781 -0.3991  0.2063
 1733TIP3    H126690   5.971   6.341   5.323 -0.4782  0.1562  1.1865
 1733TIP3    H226691   6.107   6.407   5.315 -0.5808  0.2096 -0.5078
 1734TIP3   OH226692   5.283   4.320   4.333 -0.0416  0.1465 -0.2933
 1734TIP3    H126693   5.204   4.274   4.304  1.2305 -3.2620  1.0658
 1734TIP3    H226694   5.300   4.385   4.266 -1.6772 -1.8850 -2.8640
 1735TIP3   OH226695   6.582   5.328  15.998 -0.1112  0.5766  0.1356
 1735TIP3    H126696   6.656   5.389  15.999 -0.3533  1.1309 -3.2439
 1735TIP3    H226697   6.518   5.370  15.940 -0.4852 -2.6623 -2.0118
 1736TIP3   OH226698   5.933   4.617   0.768  0.3156  0.0085  0.3526
 1736TIP3    H126699   5.929   4.572   0.684 -1.6270  1.3804 -0.3661
 1736TIP3    H226700   5.841   4.634   0.790  0.9125  2.4632  1.1868
 1737TIP3   OH226701   2.599   0.648  12.179  0.1646  0.0457  0.2489
 1737TIP3    H126702   2.624   0.729  12.223  2.1596  0.7971 -1.9944
 1737TIP3    H226703   2.553   0.677  12.100 -0.1100 -1.0633 -0.0153
 1738TIP3   OH226704   1.074   3.889  15.859 -0.6438 -0.1978 -0.0351
 1738TIP3    H126705   1.082   3.887  15.954  1.2891  0.3052 -0.1512
 1738TIP3    H226706   1.018   3.814  15.839 -0.0392 -1.0833  1.4069
 1739TIP3   OH226707   0.247   4.350  15.922  0.2255  0.1645 -0.1801
 1739TIP3    H126708   0.195   4.285  15.969 -2.4135  3.1761  1.5437
 1739TIP3    H226709   0.310   4.381  15.987 -0.0849  0.8939 -0.2187
 1740TIP3   OH226710   2.555   3.701  13.953 -0.4812 -0.0344 -0.7241
 1740TIP3    H126711   2.589   3.775  13.902 -0.5278 -0.2223 -1.0320
 1740TIP3    H226712   2.609   3.700  14.032 -1.2644  1.0763 -0.1447
 1741TIP3   OH226713   1.849   1.190  11.299  0.5372  0.0605 -0.1669
 1741TIP3    H126714   1.845   1.123  11.230  0.3009  0.1760 -0.2656
 1741TIP3    H226715   1.758   1.207  11.322  0.6141  0.0502  0.1489
 1742TIP3   OH226716   4.711   5.337  15.440 -0.0118  0.6897  0.2377
 1742TIP3    H126717   4.631   5.284  15.442  0.6180 -0.3370 -0.8427
 1742TIP3    H226718   4.769   5.295  15.503  0.2578  0.4987 -0.1432
 1743TIP3   OH226719   5.480   6.809  13.239 -0.0660  0.0542 -0.0231
 1743TIP3    H126720   5.403   6.793  13.185 -0.9621  0.7446  0.9973
 1743TIP3    H226721   5.498   6.902  13.228  3.0152 -0.7310 -3.2366
 1744TIP3   OH226722   4.634   3.290  11.500 -0.0059 -0.1533  0.0977
 1744TIP3    H126723   4.575   3.270  11.573  0.4599  0.7011  0.7313
 1744TIP3    H226724   4.677   3.207  11.481  0.3645 -0.2520  1.2743
 1745TIP3   OH226725   0.953   5.241   4.262 -0.1064 -0.7637  0.1331
 1745TIP3    H126726   1.027   5.246   4.202 -1.0921 -1.1390 -1.1525
 1745TIP3    H226727   0.991   5.210   4.344  1.5751  1.3966  0.2735
 1746TIP3   OH226728   5.170   0.150   5.189 -0.3957 -0.0834 -0.2945
 1746TIP3    H126729   5.197   0.065   5.224 -1.3498  0.3415  1.5714
 1746TIP3    H226730   5.247   0.206   5.198  0.1355 -0.6393 -1.2296
 1747TIP3   OH226731   5.879   6.699  14.684 -0.2463  0.0230  0.1552
 1747TIP3    H126732   5.785   6.708  14.701 -0.1734  1.7411 -0.1101
 1747TIP3    H226733   5.885   6.654  14.600 -0.8948  1.2747 -0.5829
 1748TIP3   OH226734   1.891   4.762  16.953 -1.0083 -0.0037  0.0980
 1748TIP3    H126735   1.946   4.691  16.986  0.1361  0.1248 -1.4462
 1748TIP3    H226736   1.804   4.723  16.942 -0.7445 -0.7556  0.6331
 1749TIP3   OH226737   1.364   4.595  15.556  0.0566  0.2773  0.0373
 1749TIP3    H126738   1.350   4.503  15.579  1.2701  0.3112  1.0021
 1749TIP3    H226739   1.454   4.598  15.524  0.0828  1.1708  0.1774
 1750TIP3   OH226740   4.022   1.457  11.417 -0.3544  0.2291  0.0479
 1750TIP3    H126741   3.950   1.510  11.451 -0.3140 -1.7081  3.6650
 1750TIP3    H226742   4.100   1.510  11.431 -0.5617  0.2149  1.3744
 1751TIP3   OH226743   1.334   4.214  14.545 -0.5643 -0.1679  0.0884
 1751TIP3    H126744   1.256   4.257  14.580 -0.7005  2.1785 -2.6882
 1751TIP3    H226745   1.301   4.159  14.473  0.1335 -1.0421  0.4204
 1752TIP3   OH226746   1.115   4.700   1.936  0.1746  0.2270  0.3826
 1752TIP3    H126747   1.110   4.709   1.841 -3.6756 -0.0712  0.4158
 1752TIP3    H226748   1.155   4.614   1.950 -2.9123 -1.6474 -1.2287
 1753TIP3   OH226749   1.534   5.956  17.105 -0.0861  0.0831  0.4005
 1753TIP3    H126750   1.521   5.899  17.029  1.9338 -0.8156  0.6451
 1753TIP3    H226751   1.618   5.999  17.088 -0.2457  0.8691  1.5137
 1754TIP3   OH226752   4.235   4.138  11.451 -0.8280  0.2750  0.2021
 1754TIP3    H126753   4.207   4.062  11.501 -1.9111  1.3950  1.3632
 1754TIP3    H226754   4.208   4.118  11.361 -2.0856 -0.2711  0.6755
 1755TIP3   OH226755   4.278   2.741  12.407  0.3071 -0.3495 -0.8165
 1755TIP3    H126756   4.322   2.803  12.466 -0.3421 -0.9999  0.4043
 1755TIP3    H226757   4.185   2.764  12.414  0.0543 -1.4871 -0.2836
 1756TIP3   OH226758   0.836   2.211  12.520 -0.2957  0.2025 -0.1316
 1756TIP3    H126759   0.787   2.136  12.552 -1.0137  1.1904  1.1886
 1756TIP3    H226760   0.835   2.202  12.425 -2.0269 -0.4416 -0.0826
 1757TIP3   OH226761   4.896   0.209  13.995  0.0936  0.2931  0.7614
 1757TIP3    H126762   4.820   0.265  13.978 -0.7445 -0.6100  1.4196
 1757TIP3    H226763   4.889   0.186  14.087 -0.0928 -1.6151  0.3014
 1758TIP3   OH226764   4.061   1.259  14.128  0.1226 -0.2188 -0.2212
 1758TIP3    H126765   3.988   1.308  14.166 -1.3760 -0.0607 -3.0836
 1758TIP3    H226766   4.041   1.168  14.148 -0.5421 -0.1244 -0.4166
 1759TIP3   OH226767   1.161   2.945  13.293  0.5009 -0.4872 -0.5279
 1759TIP3    H126768   1.075   2.961  13.254  0.4421  0.7823  0.0694
 1759TIP3    H226769   1.143   2.921  13.383  0.7278 -1.4966 -0.7416
 1760TIP3   OH226770   3.241   4.331   2.194  0.1173  0.2703  0.0278
 1760TIP3    H126771   3.292   4.251   2.182 -0.2484  0.1924 -1.0625
 1760TIP3    H226772   3.257   4.356   2.285  0.7155 -0.7082  0.2014
 1761TIP3   OH226773   0.636   0.819   0.113  0.2817 -0.3893 -0.3099
 1761TIP3    H126774   0.730   0.823   0.129  0.2175  1.4349 -0.1857
 1761TIP3    H226775   0.607   0.739   0.158  1.1028  1.2663  3.4897
 1762TIP3   OH226776   3.034   6.459  14.113  0.1041 -0.0398  0.3973
 1762TIP3    H126777   3.069   6.452  14.024  0.6134 -0.8780  0.6583
 1762TIP3    H226778   2.951   6.411  14.111  0.6156 -0.9390  0.6321
 1763TIP3   OH226779   3.576   5.742   0.682  0.0667 -0.1829  0.4253
 1763TIP3    H126780   3.545   5.654   0.705 -2.5592 -0.2118 -2.4903
 1763TIP3    H226781   3.504   5.800   0.706 -0.5782  0.3826 -2.4643
 1764TIP3   OH226782   6.327   2.773   3.542  0.0540 -0.6099 -0.5533
 1764TIP3    H126783   6.316   2.757   3.636  1.5726  0.3312 -0.1799
 1764TIP3    H226784   6.238   2.774   3.507 -0.6512  0.5315  1.1528
 1765TIP3   OH226785   2.850   1.555  16.116 -0.7311  0.6258 -0.1586
 1765TIP3    H126786   2.933   1.601  16.132  0.9236 -1.5233 -1.9024
 1765TIP3    H226787   2.822   1.526  16.202  2.6245 -2.1367  0.2266
 1766TIP3   OH226788   6.194   2.530  12.108 -0.2924  0.3695  0.0228
 1766TIP3    H126789   6.231   2.454  12.064 -0.2354 -0.2813  1.1627
 1766TIP3    H226790   6.110   2.500  12.141 -0.3580  0.8623  0.3151
 1767TIP3   OH226791   6.114   5.023   2.691 -0.7049 -0.3007  0.2910
 1767TIP3    H126792   6.148   4.937   2.716 -0.0944  0.0247  0.5996
 1767TIP3    H226793   6.171   5.052   2.620 -1.0576 -0.2556  0.0254
 1768TIP3   OH226794   6.228   3.627   2.213  0.5814  0.1398 -0.1507
 1768TIP3    H126795   6.133   3.617   2.212  0.7245 -1.5634 -1.4055
 1768TIP3    H226796   6.251   3.628   2.306 -0.6071 -0.2929  0.1653
 1769TIP3   OH226797   5.734   0.804  15.025  0.1351 -0.7249  0.1984
 1769TIP3    H126798   5.665   0.741  15.047  0.2690 -0.0547  2.8568
 1769TIP3    H226799   5.815   0.754  15.035  0.1370 -1.2855 -2.1182
 1770TIP3   OH226800   5.855   4.869  15.002 -0.4493 -0.2399 -0.6057
 1770TIP3    H126801   5.894   4.955  15.018  1.1069 -1.1308  0.6813
 1770TIP3    H226802   5.919   4.823  14.948  0.4338 -1.7769  1.6285
 1771TIP3   OH226803   5.572   2.770   3.390  0.2707 -0.3348 -0.2038
 1771TIP3    H126804   5.515   2.731   3.456 -0.6344 -0.9908 -1.3321
 1771TIP3    H226805   5.611   2.695   3.345 -0.8265  0.0040 -1.8299
 1772TIP3   OH226806   5.538   3.398   3.339  0.1132  0.4670 -0.2238
 1772TIP3    H126807   5.553   3.318   3.390  0.4522  1.0297  0.5815
 1772TIP3    H226808   5.442   3.407   3.337 -0.0010  2.8354  4.2948
 1773TIP3   OH226809   4.032   6.008   4.894  0.1515  0.3108  0.5781
 1773TIP3    H126810   4.118   6.008   4.936  0.0292 -1.5150  0.8957
 1773TIP3    H226811   3.975   6.056   4.954  0.1348 -1.6655  2.2359
 1774TIP3   OH226812   1.223   6.079   4.971 -0.6021  0.4012 -0.5843
 1774TIP3    H126813   1.275   6.096   5.049 -1.4827 -1.9475  0.5860
 1774TIP3    H226814   1.134   6.106   4.995 -1.3789 -2.5424  0.1986
 1775TIP3   OH226815   0.967   4.112  11.052  0.5707  0.1158 -0.0505
 1775TIP3    H126816   0.968   4.179  11.120  0.1648 -1.6209  1.7838
 1775TIP3    H226817   1.002   4.034  11.095 -0.4796 -1.2800 -1.5926
 1776TIP3   OH226818   6.547   0.419   2.326  0.3036  0.2356  0.0258
 1776TIP3    H126819   6.527   0.436   2.418  0.9960  1.3693 -0.0075
 1776TIP3    H226820   6.564   0.325   2.322 -0.8950 -0.0358  0.8226
 1777TIP3   OH226821   0.342   6.711  11.411 -0.2491 -0.6810 -0.0441
 1777TIP3    H126822   0.399   6.784  11.387 -1.0707 -0.4947 -1.5679
 1777TIP3    H226823   0.301   6.739  11.492  1.2459 -0.5097  0.6980
 1778TIP3   OH226824   0.327   0.400   4.537  0.5439 -0.3344  0.0995
 1778TIP3    H126825   0.365   0.486   4.552  1.8459 -0.6711 -1.1274
 1778TIP3    H226826   0.379   0.341   4.592 -0.6238 -0.3277  1.2836
 1779TIP3   OH226827   1.008   4.643  12.946 -0.1854  0.1720 -0.1273
 1779TIP3    H126828   1.071   4.654  13.017  0.6824 -0.5101 -0.7736
 1779TIP3    H226829   1.053   4.589  12.881 -0.2782  2.1839 -2.0019
 1780TIP3   OH226830   0.840   2.135   2.641  0.0897 -0.1674 -0.7398
 1780TIP3    H126831   0.803   2.132   2.729  0.6339 -1.0511 -0.5294
 1780TIP3    H226832   0.924   2.089   2.649  1.3095  1.8719 -1.1787
 1781TIP3   OH226833   4.431   5.323   1.778  0.2141 -0.5020 -0.1776
 1781TIP3    H126834   4.512   5.281   1.750  0.2470 -2.2558  2.2721
 1781TIP3    H226835   4.362   5.259   1.760  0.0905 -1.1918  2.3483
 1782TIP3   OH226836   0.561   3.851  12.652  0.3215  0.5846 -0.4224
 1782TIP3    H126837   0.507   3.855  12.731  0.0424 -1.6145 -0.4256
 1782TIP3    H226838   0.516   3.787  12.596  2.1856 -0.2800 -1.0074
 1783TIP3   OH226839   2.660   1.454   1.968 -0.1302 -0.2227  0.7016
 1783TIP3    H126840   2.643   1.548   1.969 -1.0165 -0.3659  1.4500
 1783TIP3    H226841   2.737   1.442   2.023  0.1284  0.0940  0.4025
 1784TIP3   OH226842   6.591   1.949   1.746 -0.0335  0.1229 -0.1035
 1784TIP3    H126843   6.624   1.890   1.678 -0.8924 -1.3860  0.7316
 1784TIP3    H226844   6.657   1.945   1.816 -0.5159 -0.5971  0.3306
 1785TIP3   OH226845   0.275   1.763   0.933  0.2603 -0.0881  0.4780
 1785TIP3    H126846   0.250   1.691   0.875  0.4655 -0.4848  0.8737
 1785TIP3    H226847   0.205   1.828   0.922 -0.6188 -0.8995  1.0755
 1786TIP3   OH226848   4.023   5.461   1.808  0.0491  0.2023 -0.4158
 1786TIP3    H126849   3.962   5.405   1.855 -0.2345 -0.8504 -1.9502
 1786TIP3    H226850   4.109   5.438   1.841 -0.1566 -0.4176 -0.3056
 1787TIP3   OH226851   6.380   2.866   5.522 -0.5011  0.0897  0.0279
 1787TIP3    H126852   6.313   2.852   5.589 -0.3567 -2.2511 -0.2181
 1787TIP3    H226853   6.377   2.960   5.504 -0.1091  0.9751  3.7230
 1788TIP3   OH226854   3.289   1.322   5.424  0.5918 -0.4341 -0.0387
 1788TIP3    H126855   3.282   1.264   5.349  1.9511 -0.9270  0.1910
 1788TIP3    H226856   3.382   1.322   5.446  0.0520 -1.6189  2.6732
 1789TIP3   OH226857   2.358   3.510   5.214 -0.4417 -0.4012  0.5118
 1789TIP3    H126858   2.433   3.519   5.272 -0.7676  0.3630  0.8230
 1789TIP3    H226859   2.343   3.415   5.209  0.4882 -0.5579  0.4960
 1790TIP3   OH226860   6.606   5.062  15.926  0.8310  0.1252  0.2250
 1790TIP3    H126861   6.582   5.152  15.949  0.4772  0.3066 -0.8014
 1790TIP3    H226862   6.530   5.009  15.952  1.9887 -0.2821  3.1394
 1791TIP3   OH226863   4.256   0.670  16.474 -0.2980 -0.1120 -0.1244
 1791TIP3    H126864   4.163   0.678  16.452 -0.2627 -0.0273 -0.2456
 1791TIP3    H226865   4.274   0.745  16.531 -0.1085  0.3486 -0.7772
 1792TIP3   OH226866   0.099   2.302   2.431 -0.3562 -0.3210  0.0162
 1792TIP3    H126867   0.121   2.371   2.494  1.6582 -0.5235 -0.4105
 1792TIP3    H226868   0.131   2.221   2.471 -0.1979 -0.6212 -0.6982
 1793TIP3   OH226869   5.013   5.332   1.611 -0.4940  0.1788 -0.3105
 1793TIP3    H126870   4.943   5.367   1.557 -0.6999 -2.1391 -1.6839
 1793TIP3    H226871   5.072   5.288   1.550  0.8336 -0.0758  1.0703
 1794TIP3   OH226872   4.171   2.050  14.092  0.1027  0.2760  0.2485
 1794TIP3    H126873   4.231   2.122  14.076  1.1331 -0.4709  0.6213
 1794TIP3    H226874   4.108   2.084  14.155 -0.4811  1.3772 -0.8741
 1795TIP3   OH226875   0.108   1.636  11.614 -0.1364  0.6725  0.4138
 1795TIP3    H126876   0.184   1.652  11.669  0.9338 -0.3059 -0.7101
 1795TIP3    H226877   0.124   1.550  11.575 -3.5028 -1.3206  2.8713
 1796TIP3   OH226878   0.283   3.599  13.480 -0.6589 -0.1118 -0.1956
 1796TIP3    H126879   0.197   3.619  13.518 -0.6179  0.2415 -0.2918
 1796TIP3    H226880   0.329   3.553  13.550 -1.3322 -1.3318 -0.5185
 1797TIP3   OH226881   2.466   0.615   2.102  0.6997  0.6218  0.8659
 1797TIP3    H126882   2.462   0.669   2.181  0.5895  1.1965  0.4741
 1797TIP3    H226883   2.486   0.527   2.134 -1.2874  0.4299  1.7125
 1798TIP3   OH226884   4.754   3.942  11.284  0.4218 -0.1611 -0.4244
 1798TIP3    H126885   4.833   3.991  11.304  0.8227 -1.5399  1.6648
 1798TIP3    H226886   4.780   3.880  11.217  1.1618 -0.6680  0.3174
 1799TIP3   OH226887   1.705   3.167  14.970 -0.2989  0.0236 -0.4707
 1799TIP3    H126888   1.733   3.119  14.892 -0.4415 -0.0326 -0.4863
 1799TIP3    H226889   1.610   3.163  14.968 -0.3613  1.3898 -1.1503
 1800TIP3   OH226890   4.424   4.455  15.347  0.5685 -0.2760  0.5602
 1800TIP3    H126891   4.340   4.433  15.307  0.2741  1.6300  0.0239
 1800TIP3    H226892   4.488   4.404  15.299 -0.1324 -0.6015 -0.0422
 1801TIP3   OH226893   4.530   3.110   5.487 -0.0492 -0.5829 -0.1353
 1801TIP3    H126894   4.450   3.108   5.539  0.4043 -0.4758  0.5696
 1801TIP3    H226895   4.551   3.203   5.479  1.5767 -0.6739  2.1492
 1802TIP3   OH226896   3.244   2.150   1.862  0.1451 -0.0080  0.8463
 1802TIP3    H126897   3.208   2.073   1.818 -0.7961  0.4758  0.7509
 1802TIP3    H226898   3.167   2.198   1.893  0.5879  1.9780 -0.9082
 1803TIP3   OH226899   4.982   4.926   0.868  0.3253 -0.3813  0.6811
 1803TIP3    H126900   5.062   4.873   0.873  1.9370  1.9866  1.8208
 1803TIP3    H226901   5.013   5.015   0.852 -2.2202  0.3968 -0.4804
 1804TIP3   OH226902   1.505   0.962  16.111  0.4320 -0.1997  0.4826
 1804TIP3    H126903   1.453   0.917  16.178  0.0606 -2.4164 -1.1858
 1804TIP3    H226904   1.488   1.055  16.126 -0.9664 -0.6955  2.3793
 1805TIP3   OH226905   1.185   4.186   2.483 -0.0136  0.0897 -0.7009
 1805TIP3    H126906   1.197   4.095   2.457 -0.4621 -0.4562  0.8635
 1805TIP3    H226907   1.193   4.185   2.578  1.2671  1.9068 -0.7414
 1806TIP3   OH226908   1.100   5.902  16.123  0.6165  0.2154 -0.2270
 1806TIP3    H126909   1.101   5.983  16.071  2.2736  1.9804  2.2789
 1806TIP3    H226910   1.076   5.834  16.061  0.5464  2.4079 -2.8143
 1807TIP3   OH226911   2.832   1.555   3.297  0.2490  0.4925  0.3113
 1807TIP3    H126912   2.814   1.566   3.203  1.0932 -0.7858 -0.0218
 1807TIP3    H226913   2.798   1.635   3.337 -0.1404  1.0568 -1.0804
 1808TIP3   OH226914   5.219   3.468   5.374  0.7115  0.0943 -0.0773
 1808TIP3    H126915   5.187   3.537   5.316 -0.2472  0.0910  0.4226
 1808TIP3    H226916   5.185   3.491   5.460  1.0526 -0.5775  0.2456
 1809TIP3   OH226917   1.942   1.344   4.893 -0.4846 -0.1558  0.1324
 1809TIP3    H126918   1.886   1.269   4.872 -0.2899 -0.6326  1.2091
 1809TIP3    H226919   1.927   1.359   4.987 -0.9150  1.5033 -0.1644
 1810TIP3   OH226920   0.608   3.134   0.607  0.1536 -0.2177  0.0452
 1810TIP3    H126921   0.612   3.100   0.518 -1.1808 -3.0312  0.9619
 1810TIP3    H226922   0.539   3.201   0.604 -0.3031 -0.7132 -0.9048
 1811TIP3   OH226923   0.952   5.191   6.459  0.0493 -0.4295  0.1226
 1811TIP3    H126924   0.858   5.181   6.471 -0.3706  0.6730 -1.8042
 1811TIP3    H226925   0.971   5.147   6.376  1.1818 -0.4033  0.3466
 1812TIP3   OH226926   0.623   2.410  15.078  0.2249 -0.6239 -0.3228
 1812TIP3    H126927   0.571   2.353  15.021  0.3899 -0.6812 -0.4154
 1812TIP3    H226928   0.712   2.376  15.072  0.3446 -0.2928 -0.4620
 1813TIP3   OH226929   3.603   5.790  11.293  0.0262 -0.0701 -0.1748
 1813TIP3    H126930   3.615   5.733  11.218  0.2197  1.4488 -1.3474
 1813TIP3    H226931   3.666   5.861  11.280 -1.1209  1.1268  0.4995
 1814TIP3   OH226932   6.346   4.288  10.973 -0.0836  0.4026  0.2673
 1814TIP3    H126933   6.412   4.292  11.042 -0.7318 -1.6037  1.0638
 1814TIP3    H226934   6.271   4.245  11.014 -1.6028  1.9058 -0.8556
 1815TIP3   OH226935   4.856   3.543   3.184  0.5323 -0.3392  0.5347
 1815TIP3    H126936   4.917   3.564   3.114  0.5898 -1.0941  0.3514
 1815TIP3    H226937   4.853   3.623   3.237 -0.4368  0.6894 -0.9800
 1816TIP3   OH226938   5.226   2.203   2.359  0.0540  0.3640 -0.7168
 1816TIP3    H126939   5.175   2.281   2.381  2.9493  1.5295  3.0015
 1816TIP3    H226940   5.298   2.237   2.306  1.8258  0.6000  1.6569
 1817TIP3   OH226941   2.871   1.476  12.352  0.4382 -0.5782  0.0251
 1817TIP3    H126942   2.822   1.549  12.314 -0.6200 -1.1942  0.1480
 1817TIP3    H226943   2.845   1.401  12.299  1.6154 -0.8479 -0.1814
 1818TIP3   OH226944   1.230   2.478  10.956 -0.5498 -0.3399 -0.1810
 1818TIP3    H126945   1.161   2.518  11.009 -0.2853  1.1415 -0.9256
 1818TIP3    H226946   1.228   2.524  10.873  0.8649 -0.7532 -0.4863
 1819TIP3   OH226947   0.023   4.139  16.389  0.3576 -0.0360 -0.2431
 1819TIP3    H126948  -0.043   4.190  16.436  0.1284 -0.4500 -0.1152
 1819TIP3    H226949   0.105   4.159  16.434  0.1674 -0.2918  0.2257
 1820TIP3   OH226950   1.604   3.082   2.167  0.0026  0.1558  0.3760
 1820TIP3    H126951   1.652   3.120   2.093  0.2059  0.2354  0.5508
 1820TIP3    H226952   1.515   3.116   2.157  0.5319  1.9198  1.4079
 1821TIP3   OH226953   4.702   6.712  16.144 -0.3155  0.5216 -0.2512
 1821TIP3    H126954   4.704   6.730  16.238 -2.7384 -0.1249 -0.0296
 1821TIP3    H226955   4.795   6.707  16.120  0.3812  1.4445  1.9354
 1822TIP3   OH226956   5.130   0.710   1.128 -0.5294  0.1329  0.1714
 1822TIP3    H126957   5.106   0.740   1.040 -2.4499 -0.2423  0.5099
 1822TIP3    H226958   5.221   0.736   1.138 -0.8964  2.1937 -1.0967
 1823TIP3   OH226959   3.944   0.215   0.256 -0.0987 -0.6902  0.1894
 1823TIP3    H126960   3.852   0.226   0.278  0.1139  1.0994  0.3496
 1823TIP3    H226961   3.958   0.270   0.179  1.3182  1.0694  1.5943
 1824TIP3   OH226962   2.834   3.986   3.045 -0.4922 -0.3919  0.4338
 1824TIP3    H126963   2.778   4.064   3.042  1.6492  1.2181  0.6563
 1824TIP3    H226964   2.846   3.969   3.139 -0.2837 -0.5050  0.3861
 1825TIP3   OH226965   4.647   2.615   6.678 -0.2146 -0.6527  0.5135
 1825TIP3    H126966   4.598   2.559   6.619  0.9506 -0.5145 -0.6413
 1825TIP3    H226967   4.617   2.704   6.659 -1.0925 -0.7360  1.3982
 1826TIP3   OH226968   4.864   2.425   1.373  0.4366 -0.3078  0.1824
 1826TIP3    H126969   4.776   2.433   1.335  0.7226 -0.0599 -0.4563
 1826TIP3    H226970   4.853   2.452   1.464 -0.1821 -0.4472  0.1556
 1827TIP3   OH226971   0.034   4.078   2.627  0.2866  0.1254  0.7948
 1827TIP3    H126972   0.119   4.089   2.671  1.3569  1.2162 -1.3492
 1827TIP3    H226973   0.010   4.167   2.601 -0.4269 -0.4396 -0.5216
 1828TIP3   OH226974   3.330   0.240  14.996  0.2153 -0.1825 -0.3055
 1828TIP3    H126975   3.351   0.197  15.079  0.8786 -0.3430 -0.5491
 1828TIP3    H226976   3.257   0.298  15.017 -0.8148 -1.5268  0.0084
 1829TIP3   OH226977   5.499   3.724   2.061  0.4626  0.2369  0.8447
 1829TIP3    H126978   5.488   3.705   1.967  1.7179  0.9981  0.5228
 1829TIP3    H226979   5.496   3.638   2.103  2.5881 -0.4289 -0.2011
 1830TIP3   OH226980   5.201   1.064  12.367  0.2520  0.7567 -0.0600
 1830TIP3    H126981   5.112   1.062  12.330 -0.5564  1.3308  1.7268
 1830TIP3    H226982   5.199   0.996  12.435  1.7987 -0.5143 -1.2292
 1831TIP3   OH226983   4.801   4.026   1.332  0.5229 -0.0115 -0.2432
 1831TIP3    H126984   4.707   4.033   1.316  0.3777  1.7282  1.1085
 1831TIP3    H226985   4.836   3.990   1.250 -1.4280 -1.9535 -0.3158
 1832TIP3   OH226986   2.138   1.435  15.929  0.2410  0.1729 -0.0642
 1832TIP3    H126987   2.099   1.445  15.842 -1.5902 -0.9274  0.5677
 1832TIP3    H226988   2.086   1.367  15.971  1.2707  0.4606  1.7979
 1833TIP3   OH226989   0.054   0.305   3.184  0.4609  0.5077  0.8649
 1833TIP3    H126990   0.118   0.277   3.250 -0.6961  0.4603  2.0156
 1833TIP3    H226991   0.071   0.248   3.109  2.6841  1.4536  0.5663
 1834TIP3   OH226992   2.349   3.675  12.339 -0.2043  0.2999  0.5221
 1834TIP3    H126993   2.340   3.752  12.395 -1.8071 -0.2931  1.1269
 1834TIP3    H226994   2.298   3.696  12.261  0.0779  0.1802  0.3012
 1835TIP3   OH226995   5.718   1.250  13.056 -0.4679 -0.5349 -0.1420
 1835TIP3    H126996   5.757   1.325  13.100 -1.5091  0.7766 -1.3782
 1835TIP3    H226997   5.715   1.274  12.963 -1.5833 -1.7461 -0.4597
 1836TIP3   OH226998   2.533   3.844   1.177 -0.6906  1.0752 -0.4825
 1836TIP3    H126999   2.549   3.846   1.083  0.4180  0.9498 -0.3163
 1836TIP3    H227000   2.616   3.873   1.216 -0.6491 -0.2150  0.4793
 1837TIP3   OH227001   0.796   3.479  14.325  0.3944 -0.9597  0.2602
 1837TIP3    H127002   0.793   3.403  14.383 -2.7899 -1.8136 -0.8153
 1837TIP3    H227003   0.801   3.441  14.237 -0.7141  0.0763 -0.2710
 1838TIP3   OH227004   0.554   6.816  14.821  0.2710  0.2997 -0.2208
 1838TIP3    H127005   0.473   6.818  14.872  0.4401  1.2708  0.0310
 1838TIP3    H227006   0.541   6.745  14.758 -1.3302  1.2735 -1.0789
 1839TIP3   OH227007   4.777   0.466   1.084  0.3353  0.6360 -0.0056
 1839TIP3    H127008   4.715   0.531   1.117 -0.0955 -0.2577  0.9951
 1839TIP3    H227009   4.807   0.502   1.000 -2.5253  0.4702 -1.1960
 1840TIP3   OH227010   3.004   0.382   5.189  0.1052 -0.2885  0.2406
 1840TIP3    H127011   3.075   0.447   5.193  0.6875 -0.8545 -0.5575
 1840TIP3    H227012   3.047   0.301   5.161 -0.9409 -0.5096 -0.8029
 1841TIP3   OH227013   1.050   5.520  15.640 -0.1143 -0.4140 -0.1483
 1841TIP3    H127014   0.967   5.474  15.642 -0.0908 -0.5795 -1.7744
 1841TIP3    H227015   1.102   5.474  15.575  0.2655  1.2927 -1.1186
 1842TIP3   OH227016   4.903   2.564  14.362  0.3421 -0.0437 -0.0142
 1842TIP3    H127017   4.873   2.605  14.443 -1.7791 -1.4152 -0.0391
 1842TIP3    H227018   4.851   2.484  14.355  2.2064 -1.2068 -1.4990
 1843TIP3   OH227019   0.708   2.145  14.057 -0.3577  0.2232  0.0306
 1843TIP3    H127020   0.629   2.095  14.076 -0.3730 -0.2061 -1.0513
 1843TIP3    H227021   0.714   2.210  14.127 -0.4590 -1.1274  1.3449
 1844TIP3   OH227022   0.662   1.940  15.803  0.6125 -0.3677 -0.2827
 1844TIP3    H127023   0.711   1.858  15.806  1.0745 -0.1432 -1.3486
 1844TIP3    H227024   0.672   1.971  15.713  1.3400  1.3992  0.3639
 1845TIP3   OH227025   2.779   1.943   2.266 -0.5382  0.0142  0.2611
 1845TIP3    H127026   2.875   1.938   2.268 -0.5275  0.3185  0.5252
 1845TIP3    H227027   2.759   1.964   2.174 -0.2547  1.6778  0.5378
 1846TIP3   OH227028   1.892   3.243  15.518 -0.2607 -0.0277 -0.6083
 1846TIP3    H127029   1.812   3.236  15.466 -0.1139 -1.2968 -0.6795
 1846TIP3    H227030   1.961   3.210  15.460  0.1710  0.1256 -0.1888
 1847TIP3   OH227031   2.972   2.711  16.458  0.3345 -0.4380  0.0953
 1847TIP3    H127032   2.905   2.649  16.490 -0.2638  0.2086  0.1057
 1847TIP3    H227033   3.029   2.724  16.534 -1.1545  1.1896  1.0091
 1848TIP3   OH227034   5.910   1.219  12.168 -0.2268 -0.6833  0.0989
 1848TIP3    H127035   5.928   1.200  12.260 -0.6717 -2.5513 -0.1583
 1848TIP3    H227036   5.856   1.145  12.139 -0.6281  0.2032 -1.4934
 1849TIP3   OH227037   6.705   6.536  14.544 -0.2868  0.3090 -0.0923
 1849TIP3    H127038   6.622   6.556  14.587 -0.9291 -0.6889 -0.8322
 1849TIP3    H227039   6.682   6.478  14.472  0.9480  0.7994 -0.9145
 1850TIP3   OH227040   4.051   4.384  15.453  0.7756 -0.6217  0.3672
 1850TIP3    H127041   4.136   4.380  15.410 -0.0194 -0.5960 -1.2737
 1850TIP3    H227042   4.030   4.293  15.475  0.7517 -0.7561 -0.2031
 1851TIP3   OH227043   6.403   2.854  14.187  0.0074  0.3345 -0.0205
 1851TIP3    H127044   6.328   2.865  14.128 -0.6960  2.3212  1.1589
 1851TIP3    H227045   6.471   2.910  14.150  0.4462 -0.3508 -0.2824
 1852TIP3   OH227046   6.010   1.394   2.239 -0.1308 -0.1282  0.0644
 1852TIP3    H127047   6.018   1.440   2.155 -1.5538  0.8389  0.4170
 1852TIP3    H227048   5.918   1.369   2.244 -0.9803  2.8483  2.7539
 1853TIP3   OH227049   6.522   5.415  11.987 -0.2451  0.5283 -0.0590
 1853TIP3    H127050   6.552   5.474  12.057 -1.0952  1.6369 -0.5874
 1853TIP3    H227051   6.453   5.362  12.028 -0.5113  0.9482  0.0452
 1854TIP3   OH227052   5.645   6.628  15.360 -0.2336  0.6524 -0.3725
 1854TIP3    H127053   5.726   6.589  15.393 -0.3507  1.8509  1.4992
 1854TIP3    H227054   5.588   6.554  15.341  1.0822 -0.1926 -1.2145
 1855TIP3   OH227055   5.238   0.489   0.303  0.1670 -0.3257 -0.0807
 1855TIP3    H127056   5.308   0.551   0.286  0.4783 -1.0079 -1.4142
 1855TIP3    H227057   5.194   0.523   0.381  2.4305 -0.3077  1.2746
 1856TIP3   OH227058   1.566   6.488   4.920 -0.7594  0.4245  0.0472
 1856TIP3    H127059   1.607   6.528   4.997 -1.6347  0.5966  0.4401
 1856TIP3    H227060   1.523   6.561   4.876  0.3098  0.4522 -1.0067
 1857TIP3   OH227061   3.518   2.226  14.376 -0.4091 -0.2365  0.7800
 1857TIP3    H127062   3.449   2.270  14.325  0.1251 -0.6028 -0.2840
 1857TIP3    H227063   3.519   2.273  14.460  0.6228  2.2917 -0.5449
 1858TIP3   OH227064   4.583   2.891   0.431  0.2613 -0.0680  0.4341
 1858TIP3    H127065   4.679   2.900   0.431  0.1495  1.2286  0.5031
 1858TIP3    H227066   4.561   2.877   0.523  0.3074  0.5929  0.5485
 1859TIP3   OH227067   1.000   3.658   5.571  0.2808 -0.5903  0.7779
 1859TIP3    H127068   0.915   3.701   5.583  0.0537 -0.1339 -1.8272
 1859TIP3    H227069   0.979   3.565   5.562 -0.1063 -0.3764 -0.8223
 1860TIP3   OH227070   2.479   6.497   3.507 -0.0405 -0.1606 -0.2729
 1860TIP3    H127071   2.458   6.452   3.588  0.0532 -0.4792 -0.4266
 1860TIP3    H227072   2.562   6.541   3.525 -1.4443  2.3015  0.8329
 1861TIP3   OH227073   3.122   3.410   1.741  0.3948  0.1473 -0.2856
 1861TIP3    H127074   3.127   3.399   1.646  1.9400 -0.2529 -0.1842
 1861TIP3    H227075   3.029   3.396   1.761  0.1316 -0.3158 -1.6667
 1862TIP3   OH227076   0.206   3.589   2.105  0.1197  0.3943  0.5125
 1862TIP3    H127077   0.283   3.604   2.050  0.3348 -0.5165  0.5591
 1862TIP3    H227078   0.146   3.660   2.081 -0.2861 -0.6046 -1.7693
 1863TIP3   OH227079   3.669   5.023   1.414 -0.3092  0.2125  0.0702
 1863TIP3    H127080   3.740   5.059   1.361  0.8907 -1.2860  0.5798
 1863TIP3    H227081   3.612   4.979   1.351  0.4521 -0.5082 -0.1347
 1864TIP3   OH227082   5.170   3.852   3.346 -0.0948 -0.1728  0.0897
 1864TIP3    H127083   5.175   3.922   3.280  1.0313 -0.7108 -0.4317
 1864TIP3    H227084   5.078   3.825   3.346 -0.4920  1.1311  0.1224
 1865TIP3   OH227085   4.177   4.997  15.136 -0.3274 -0.0317 -0.8979
 1865TIP3    H127086   4.177   5.092  15.123 -2.4394  0.2712  0.8936
 1865TIP3    H227087   4.224   4.984  15.218 -0.2649 -0.5300 -1.0109
 1866TIP3   OH227088   4.455   4.138  13.780  0.3121 -0.4992 -0.0505
 1866TIP3    H127089   4.527   4.106  13.725  1.2000 -0.0901  0.8416
 1866TIP3    H227090   4.409   4.059  13.808  0.7724 -0.8087 -0.1476
 1867TIP3   OH227091   3.632   2.324   3.128  0.0060 -0.1174  0.6093
 1867TIP3    H127092   3.539   2.315   3.106  0.2164 -1.1082  0.0515
 1867TIP3    H227093   3.637   2.313   3.223 -0.3356 -1.0550  0.5182
 1868TIP3   OH227094   2.896   3.420  16.809 -0.3977 -0.0272  0.2739
 1868TIP3    H127095   2.982   3.448  16.838 -0.2953 -0.6861  0.6060
 1868TIP3    H227096   2.874   3.346  16.865 -0.5714 -0.7587 -0.7400
 1869TIP3   OH227097   3.331   3.075   3.450 -0.2014  0.6723  0.1752
 1869TIP3    H127098   3.356   3.031   3.532 -0.5296  0.9322  0.4155
 1869TIP3    H227099   3.367   3.018   3.382 -1.6691 -0.6465  0.4378
 1870TIP3   OH227100   1.681   4.961   1.628  0.5722  0.2212  0.2082
 1870TIP3    H127101   1.644   4.961   1.716  1.8858  1.6619  0.8003
 1870TIP3    H227102   1.605   4.952   1.570 -0.4749  0.9464  1.4308
 1871TIP3   OH227103   1.176   0.617   5.260 -0.2074  0.2977  0.0129
 1871TIP3    H127104   1.248   0.612   5.323  0.9676  1.7828 -1.1087
 1871TIP3    H227105   1.107   0.563   5.297  1.2629 -0.6968  1.4485
 1872TIP3   OH227106   6.273   1.398   5.811 -0.7357  0.1636 -0.2349
 1872TIP3    H127107   6.275   1.405   5.907 -1.6513 -1.8101 -0.0356
 1872TIP3    H227108   6.187   1.361   5.791 -0.3064 -0.0687 -1.7862
 1873TIP3   OH227109   2.093   0.381   0.847  0.3968  0.1674  0.3358
 1873TIP3    H127110   2.058   0.330   0.775 -3.2693  0.9163  1.3672
 1873TIP3    H227111   2.187   0.362   0.847  0.0989 -2.0407 -2.7821
 1874TIP3   OH227112   1.658   0.322  12.103  0.2617  0.0527 -0.1645
 1874TIP3    H127113   1.585   0.344  12.160  1.4321  0.5717  1.2076
 1874TIP3    H227114   1.735   0.326  12.161  1.1569 -2.4557 -1.0667
 1875TIP3   OH227115   6.648   3.503   3.780 -0.6046 -0.0685 -0.4853
 1875TIP3    H127116   6.664   3.469   3.692 -1.2921  0.9865 -1.0404
 1875TIP3    H227117   6.713   3.459   3.835  0.1634 -0.3776 -1.6058
 1876TIP3   OH227118   4.587   5.833   5.191  0.3519 -0.0441  0.3680
 1876TIP3    H127119   4.522   5.766   5.210 -1.3394  1.2484 -0.5807
 1876TIP3    H227120   4.614   5.816   5.101  0.0167  0.4630  0.1693
 1877TIP3   OH227121   2.710   3.894   4.880 -0.1196 -0.3054  0.1043
 1877TIP3    H127122   2.804   3.883   4.894 -0.2116 -0.6387  0.4906
 1877TIP3    H227123   2.700   3.987   4.859  0.0516  0.2976  2.3366
 1878TIP3   OH227124   1.849   5.108  15.373 -0.1617  0.1572  0.5664
 1878TIP3    H127125   1.814   5.072  15.455 -0.8349  2.3386  1.3107
 1878TIP3    H227126   1.794   5.184  15.355 -0.4994 -0.6871 -2.3775
 1879TIP3   OH227127   3.916   1.013  15.551 -0.2013  0.4156 -0.3142
 1879TIP3    H127128   3.970   1.073  15.602 -0.7435  1.8027 -1.3169
 1879TIP3    H227129   3.977   0.949  15.516  0.5511  1.0267 -0.1386
 1880TIP3   OH227130   1.794   5.331  15.185  0.0451  0.0279  0.2213
 1880TIP3    H127131   1.873   5.307  15.137 -0.5596  0.2706 -0.9322
 1880TIP3    H227132   1.724   5.280  15.144 -0.2436 -1.0547  1.9720
 1881TIP3   OH227133   4.563   6.604  13.565 -0.0249 -0.6360  0.1554
 1881TIP3    H127134   4.511   6.566  13.636  0.2383 -0.3328  0.5197
 1881TIP3    H227135   4.555   6.699  13.579 -2.8709 -0.3565 -2.2690
 1882TIP3   OH227136   0.347   1.493   5.612 -0.1507  0.7858  1.1325
 1882TIP3    H127137   0.338   1.577   5.658  0.5940 -0.5917  4.0197
 1882TIP3    H227138   0.440   1.471   5.620 -0.2409 -0.0878 -0.0232
 1883TIP3   OH227139   4.647   6.824   1.370  0.0099 -0.5001  0.0705
 1883TIP3    H127140   4.553   6.841   1.362  0.1669  0.4349  0.0586
 1883TIP3    H227141   4.669   6.851   1.459  0.2801 -0.6489  0.0513
 1884TIP3   OH227142   0.345   6.210  13.889  0.2184 -0.1823 -0.4046
 1884TIP3    H127143   0.398   6.260  13.827 -0.0976  1.6900  0.7696
 1884TIP3    H227144   0.383   6.228  13.975  0.1525 -2.0910  0.0815
 1885TIP3   OH227145   4.057   4.031   3.911 -0.0551  0.0646 -0.1409
 1885TIP3    H127146   4.147   4.048   3.938 -0.5865  0.5162  1.4908
 1885TIP3    H227147   4.012   4.005   3.991 -0.8293 -2.7299 -1.3569
 1886TIP3   OH227148   5.442   3.240  10.635  0.2724  0.1765 -0.1708
 1886TIP3    H127149   5.369   3.282  10.589  0.7791  0.3642 -0.8200
 1886TIP3    H227150   5.428   3.146  10.622 -1.1536  0.0736  1.7251
 1887TIP3   OH227151   0.593   2.093   5.068 -0.1226  0.3924  0.1804
 1887TIP3    H127152   0.626   2.182   5.067  3.5459 -0.7936 -0.8548
 1887TIP3    H227153   0.638   2.051   5.141  1.0892 -1.4090 -1.4800
 1888TIP3   OH227154   2.456   0.776   0.202 -0.3627 -0.2296 -0.0170
 1888TIP3    H127155   2.388   0.744   0.262 -0.9405  2.7278  1.0595
 1888TIP3    H227156   2.414   0.776   0.116 -0.8332 -0.8683  0.2047
 1889TIP3   OH227157   0.818   2.768  13.731 -0.4063  0.1675  0.1813
 1889TIP3    H127158   0.736   2.807  13.702  0.1864  2.4724  1.3621
 1889TIP3    H227159   0.791   2.688  13.776 -1.6027 -1.4789 -3.1375
 1890TIP3   OH227160   3.326   0.187  14.099 -0.5298  0.1603  0.2924
 1890TIP3    H127161   3.399   0.240  14.067 -0.8768  0.3039 -0.2912
 1890TIP3    H227162   3.365   0.105  14.126  0.0999  0.9033  1.7160
 1891TIP3   OH227163   0.742   0.901  12.566 -0.0995  0.2830  0.2930
 1891TIP3    H127164   0.812   0.911  12.501  0.7888 -0.1624  1.1526
 1891TIP3    H227165   0.682   0.837  12.527  0.2185  0.3105 -0.2487
 1892TIP3   OH227166   5.773   6.780   4.167 -0.6013  0.5295 -0.5640
 1892TIP3    H127167   5.740   6.694   4.142 -1.7888  0.9155 -0.3855
 1892TIP3    H227168   5.865   6.779   4.142 -0.2457 -1.2623  0.6153
 1893TIP3   OH227169   4.201   4.887   0.720 -0.2093 -0.6997  0.9158
 1893TIP3    H127170   4.112   4.867   0.694  0.3239 -2.2910  0.2115
 1893TIP3    H227171   4.218   4.975   0.685 -1.6412 -0.1497  1.5266
 1894TIP3   OH227172   4.157   0.534  11.279  0.5206  0.3228  0.7505
 1894TIP3    H127173   4.171   0.445  11.310 -3.0372 -0.2232  1.2187
 1894TIP3    H227174   4.213   0.588  11.335  4.2342 -1.6172 -0.7702
 1895TIP3   OH227175   4.256   5.186   5.873 -0.0475 -0.0304 -0.0428
 1895TIP3    H127176   4.195   5.182   5.947  1.2477  0.8929  1.1054
 1895TIP3    H227177   4.340   5.158   5.909  0.5977  0.3749 -1.1859
 1896TIP3   OH227178   2.721   2.855  14.635 -0.4300 -0.7339  0.3084
 1896TIP3    H127179   2.652   2.808  14.681  0.7166 -1.6406  1.2014
 1896TIP3    H227180   2.775   2.893  14.705 -1.3943  2.1168 -0.3895
 1897TIP3   OH227181   0.364   4.148  11.338  0.0509  0.5495  0.3914
 1897TIP3    H127182   0.422   4.071  11.340 -1.4523 -0.6277  0.7461
 1897TIP3    H227183   0.343   4.164  11.430 -0.4980  0.6957  0.2426
 1898TIP3   OH227184   2.007   6.332  15.224  0.1454 -0.3882 -0.0254
 1898TIP3    H127185   1.964   6.252  15.193  1.8782 -0.9651 -1.0707
 1898TIP3    H227186   2.068   6.302  15.291  0.3558  0.1654  0.0346
 1899TIP3   OH227187   2.930   2.136   1.564  0.2425 -0.2474  0.8929
 1899TIP3    H127188   2.992   2.208   1.549  1.2821 -0.8445  2.0933
 1899TIP3    H227189   2.977   2.058   1.535 -0.1274 -0.6540  1.3707
 1900TIP3   OH227190   0.762   6.321  13.334 -0.0458  0.0179 -0.8067
 1900TIP3    H127191   0.746   6.414  13.318  0.2330  0.0308 -1.0338
 1900TIP3    H227192   0.696   6.276  13.281  1.6125  0.0377 -2.9985
 1901TIP3   OH227193   0.286   4.744  12.494  0.5715 -0.2565 -0.1357
 1901TIP3    H127194   0.334   4.746  12.577  1.5759  1.0239 -0.7271
 1901TIP3    H227195   0.354   4.744  12.427 -0.2429 -0.8305 -0.9791
 1902TIP3   OH227196   4.055   4.981  12.135 -0.3718  0.5501 -0.1451
 1902TIP3    H127197   4.056   4.887  12.117  0.5471  0.4831  0.2050
 1902TIP3    H227198   3.963   5.003  12.144 -0.6498 -0.1346 -1.1798
 1903TIP3   OH227199   5.987   5.501  13.579 -0.3211 -0.1991 -0.1446
 1903TIP3    H127200   6.077   5.469  13.583  0.4384  1.8374  0.9839
 1903TIP3    H227201   5.966   5.504  13.486  0.6425 -1.0506 -0.4026
 1904TIP3   OH227202   6.441   1.526   2.762 -0.2575  0.0268 -0.0143
 1904TIP3    H127203   6.378   1.454   2.754  0.8906 -0.9767 -0.2562
 1904TIP3    H227204   6.495   1.520   2.683 -0.4794  1.5043 -0.3049
 1905TIP3   OH227205   2.679   3.193  13.659 -0.2194 -0.1481 -0.0870
 1905TIP3    H127206   2.612   3.179  13.726 -1.1961  0.2411 -0.9527
 1905TIP3    H227207   2.632   3.185  13.576  0.9313 -0.4341 -0.7307
 1906TIP3   OH227208   5.633   1.090   4.933 -0.2639 -0.0972 -0.6619
 1906TIP3    H127209   5.594   1.175   4.915 -1.3682 -0.4041  0.1570
 1906TIP3    H227210   5.576   1.028   4.888 -0.8604 -0.5603  0.6584
 1907TIP3   OH227211   0.934   2.927  10.924 -0.2869  0.4247  0.1488
 1907TIP3    H127212   0.970   2.880  10.849  1.4748  0.3733  0.9736
 1907TIP3    H227213   0.863   2.870  10.956 -0.1808 -0.1869 -0.6769
 1908TIP3   OH227214   4.691   5.657  14.377  0.0010  0.2096  0.1578
 1908TIP3    H127215   4.768   5.617  14.418 -0.4848 -1.6490 -0.6425
 1908TIP3    H227216   4.627   5.662  14.448  0.9653  2.2780  0.9715
 1909TIP3   OH227217   0.146   0.968   5.973  0.3055  0.9204  0.0199
 1909TIP3    H127218   0.183   0.985   6.059 -1.4551 -1.4895  1.3677
 1909TIP3    H227219   0.063   1.016   5.973  0.6976  1.6297 -0.7282
 1910TIP3   OH227220   5.598   0.627  13.973  0.0762  0.0284  0.0247
 1910TIP3    H127221   5.529   0.680  14.013  1.7572  3.6780 -1.3994
 1910TIP3    H227222   5.623   0.676  13.894  2.8667 -2.1803 -0.6423
 1911TIP3   OH227223   5.139   5.497   3.820  0.0174 -0.3013 -0.8473
 1911TIP3    H127224   5.233   5.481   3.831 -0.0850 -1.3195 -1.3915
 1911TIP3    H227225   5.104   5.491   3.909  0.5670  0.8903 -0.5239
 1912TIP3   OH227226   6.449   1.066  11.939  0.4617  0.4345 -0.4321
 1912TIP3    H127227   6.493   1.142  11.978  3.1852 -1.4173  0.4349
 1912TIP3    H227228   6.420   1.014  12.014  0.5033 -0.3643 -0.9573
 1913TIP3   OH227229   5.561   1.809  16.398  0.3139 -0.1141 -0.1828
 1913TIP3    H127230   5.596   1.895  16.373  1.0046  0.0168  1.1477
 1913TIP3    H227231   5.470   1.827  16.422  0.3432  0.1758 -0.2755
 1914TIP3   OH227232   6.476   3.236  16.530  0.0570  0.3813  0.4919
 1914TIP3    H127233   6.501   3.178  16.458  0.1372  1.1566 -0.1099
 1914TIP3    H227234   6.535   3.212  16.601  1.5057  1.1540 -0.4180
 1915TIP3   OH227235   6.384   1.360  16.219 -0.0545 -0.0404 -0.8066
 1915TIP3    H127236   6.339   1.414  16.285  1.0345 -0.7297  0.5649
 1915TIP3    H227237   6.427   1.423  16.162 -1.3491  0.5881 -1.1284
 1916TIP3   OH227238   1.399   6.324  16.735  0.3103  0.3696  0.2465
 1916TIP3    H127239   1.359   6.246  16.772  0.1726 -0.4784 -1.5623
 1916TIP3    H227240   1.325   6.383  16.717 -0.2054 -0.9415 -2.5010
 1917TIP3   OH227241   0.785   2.175   1.737 -0.1823  0.2192  0.3320
 1917TIP3    H127242   0.756   2.083   1.738  1.4752 -0.3331  0.6869
 1917TIP3    H227243   0.879   2.170   1.718 -0.2145  1.9023 -0.4164
 1918TIP3   OH227244   4.128   6.468  12.232 -0.2218 -0.6347 -0.0688
 1918TIP3    H127245   4.145   6.416  12.311  0.4964 -1.5241 -0.7898
 1918TIP3    H227246   4.185   6.430  12.166 -4.3767 -3.2831 -2.5198
 1919TIP3   OH227247   2.735   3.335  12.225 -0.1798 -0.0436  0.3348
 1919TIP3    H127248   2.762   3.306  12.312  0.1991 -0.8196 -0.0315
 1919TIP3    H227249   2.798   3.295  12.166  0.1885  1.2993 -0.2286
 1920TIP3   OH227250   2.694   4.005   6.417 -0.0545  0.2301  0.4562
 1920TIP3    H127251   2.620   3.986   6.475 -0.8973  1.4890 -0.1478
 1920TIP3    H227252   2.719   3.921   6.380  0.0486 -0.4949  2.0990
 1921TIP3   OH227253   2.143   0.500   5.117  0.2895  0.1652 -0.9745
 1921TIP3    H127254   2.118   0.408   5.113 -2.3928  0.7472  0.1356
 1921TIP3    H227255   2.230   0.500   5.154 -0.1588 -1.8963  0.1907
 1922TIP3   OH227256   1.816   0.828  13.498 -0.7551  0.1285  0.2244
 1922TIP3    H127257   1.732   0.806  13.457 -1.5498 -0.0141  1.8239
 1922TIP3    H227258   1.820   0.770  13.574  1.4048 -0.7416 -0.4780
 1923TIP3   OH227259   4.289   1.595  16.727  0.1054  0.4160 -0.5249
 1923TIP3    H127260   4.313   1.680  16.691 -1.1164  1.1102  0.2527
 1923TIP3    H227261   4.373   1.552  16.744  0.8385  2.3619  1.1964
 1924TIP3   OH227262   2.994   4.614  13.748  0.1994  0.1741  0.1525
 1924TIP3    H127263   3.008   4.562  13.826  0.4729 -0.0726 -0.0596
 1924TIP3    H227264   2.933   4.562  13.695  0.0726  0.3057  0.1688
 1925TIP3   OH227265   2.466   4.368  12.596  0.1057 -0.2252  0.2664
 1925TIP3    H127266   2.445   4.336  12.685  1.8306  0.3403  0.9218
 1925TIP3    H227267   2.528   4.303  12.562 -0.8507 -0.6560 -0.7194
 1926TIP3   OH227268   1.960   5.343  11.734  0.3200 -0.4844 -0.3877
 1926TIP3    H127269   2.003   5.258  11.749 -0.1494 -0.5761  0.4758
 1926TIP3    H227270   1.867   5.325  11.744  0.1296 -0.0803 -1.3005
 1927TIP3   OH227271   5.904   2.463  12.264  0.2463 -0.0574  0.1083
 1927TIP3    H127272   5.948   2.475  12.348  1.5931 -1.0561 -0.4291
 1927TIP3    H227273   5.864   2.549  12.246 -0.0818  0.1692  1.7510
 1928TIP3   OH227274   2.654   2.907   1.158  0.1611 -0.0018 -0.5442
 1928TIP3    H127275   2.691   2.959   1.230  0.3419 -0.4062 -0.3448
 1928TIP3    H227276   2.562   2.895   1.182 -0.3079  1.5858 -1.3683
 1929TIP3   OH227277   2.737   6.763   1.128  0.0794  0.0468 -0.2896
 1929TIP3    H127278   2.760   6.856   1.136  0.7154 -0.2107  1.2872
 1929TIP3    H227279   2.676   6.760   1.055 -1.0043  1.8995  0.4627
 1930TIP3   OH227280   4.279   0.954  17.023  0.9812  0.0955 -0.2229
 1930TIP3    H127281   4.262   1.048  17.032 -0.3103 -0.2015  0.7955
 1930TIP3    H227282   4.210   0.923  16.964  1.8922 -0.1111 -1.2292
 1931TIP3   OH227283   4.904   4.400   5.554  0.3082 -0.0472 -0.1638
 1931TIP3    H127284   4.840   4.432   5.618 -0.3382 -1.3637 -0.1267
 1931TIP3    H227285   4.987   4.401   5.601 -0.1914 -1.1627  0.7673
 1932TIP3   OH227286   0.426   2.067  13.733 -0.1083  0.3803  0.5990
 1932TIP3    H127287   0.444   1.976  13.756 -0.2050 -0.4752 -2.3416
 1932TIP3    H227288   0.508   2.113  13.753 -0.2805 -0.1458  2.7494
 1933TIP3   OH227289   1.856   6.377   5.585  0.6370 -0.1870  0.8683
 1933TIP3    H127290   1.867   6.303   5.526  0.2559  0.2577  0.2372
 1933TIP3    H227291   1.815   6.338   5.663 -2.4240 -0.2071 -0.5961
 1934TIP3   OH227292   3.843   3.887   3.146  0.5486  0.1746  0.1935
 1934TIP3    H127293   3.834   3.904   3.053  2.9143 -0.0925 -0.1453
 1934TIP3    H227294   3.779   3.818   3.165 -0.4161  0.6960 -1.0564
 1935TIP3   OH227295   6.799   3.530  16.710 -0.6821  0.0135 -0.6747
 1935TIP3    H127296   6.728   3.469  16.734  0.0534 -1.0896 -1.2131
 1935TIP3    H227297   6.760   3.617  16.718 -1.8101 -0.5364 -0.0187
 1936TIP3   OH227298   0.805   1.197   4.047  0.8541  0.0945 -0.1860
 1936TIP3    H127299   0.841   1.264   4.105  0.9898 -0.1744  0.0436
 1936TIP3    H227300   0.828   1.114   4.089 -0.2563 -0.0887  0.1079
 1937TIP3   OH227301   3.356   0.568  16.703 -0.5674  0.1528  0.1850
 1937TIP3    H127302   3.410   0.573  16.783 -0.5116 -2.7848  0.4474
 1937TIP3    H227303   3.316   0.481  16.707 -2.0506  0.6562 -2.0967
 1938TIP3   OH227304   2.165   3.509   0.452 -0.0208 -0.3240 -0.2373
 1938TIP3    H127305   2.227   3.468   0.513 -0.4586 -1.8932 -0.7913
 1938TIP3    H227306   2.220   3.559   0.392  0.7209 -1.5014 -0.5755
 1939TIP3   OH227307   5.188   6.367   1.842  0.4334  0.6642 -0.1997
 1939TIP3    H127308   5.118   6.389   1.903  2.4564  0.5694  2.3334
 1939TIP3    H227309   5.224   6.451   1.814  0.7118  0.7201  0.3017
 1940TIP3   OH227310   1.256   1.174  15.192  0.1650 -0.0937 -0.2773
 1940TIP3    H127311   1.234   1.082  15.211 -0.4754 -0.2801 -1.7222
 1940TIP3    H227312   1.344   1.185  15.226  0.4675 -1.4256 -0.5492
 1941TIP3   OH227313   0.355   3.203  15.066  0.5642 -0.2517 -0.3007
 1941TIP3    H127314   0.329   3.198  15.158  0.2186 -0.7623 -0.4176
 1941TIP3    H227315   0.435   3.255  15.065  0.1888  0.3360  0.2128
 1942TIP3   OH227316   4.252   6.594   4.657  0.2779  0.4315 -0.4825
 1942TIP3    H127317   4.238   6.499   4.667  0.1572  0.3000 -1.7529
 1942TIP3    H227318   4.304   6.618   4.733 -1.1994 -0.3230  0.8201
 1943TIP3   OH227319   0.096   6.203  10.883  0.1597  0.4893  0.2679
 1943TIP3    H127320   0.191   6.202  10.865  0.0227 -0.1261 -0.5181
 1943TIP3    H227321   0.058   6.237  10.802 -0.3065  0.5608  0.5177
 1944TIP3   OH227322   3.094   0.477   3.137 -0.2591 -0.3051  0.7672
 1944TIP3    H127323   3.099   0.384   3.115  0.5823 -0.0906 -0.0438
 1944TIP3    H227324   3.003   0.501   3.119  0.0548 -0.4543 -1.3349
 1945TIP3   OH227325   0.026   3.708   1.614  0.4141  0.4598 -0.0217
 1945TIP3    H127326   0.072   3.791   1.625  1.4869 -0.0182 -0.7080
 1945TIP3    H227327   0.029   3.667   1.700  1.7225  0.2317 -0.1536
 1946TIP3   OH227328   0.898   3.704  10.994 -0.3430 -0.2189 -0.5624
 1946TIP3    H127329   0.953   3.628  11.013  0.7169  0.4634 -0.7980
 1946TIP3    H227330   0.949   3.753  10.929 -1.9247 -0.3298 -1.9443
 1947TIP3   OH227331   6.616   4.847  12.638  0.0085 -0.1924  0.1788
 1947TIP3    H127332   6.656   4.931  12.660 -0.3584  0.7800 -2.5214
 1947TIP3    H227333   6.691   4.790  12.619  0.2098  0.0407  0.2687
 1948TIP3   OH227334   2.557   6.700   0.467  0.6361  0.0434  0.9176
 1948TIP3    H127335   2.542   6.699   0.561  0.1483  0.3025  0.8432
 1948TIP3    H227336   2.505   6.773   0.435 -0.6557 -1.1565  0.1969
 1949TIP3   OH227337   0.069   5.311   3.531  0.6025 -0.2288 -0.3835
 1949TIP3    H127338   0.030   5.398   3.542  0.6945 -0.3072  0.6628
 1949TIP3    H227339   0.004   5.261   3.482  0.7683  0.5730 -1.4566
 1950TIP3   OH227340   1.913   1.820   4.330  0.0778  0.4289  0.3281
 1950TIP3    H127341   1.827   1.800   4.367  0.1818 -1.1234 -0.1710
 1950TIP3    H227342   1.955   1.734   4.323  0.7118  0.8659 -1.7596
 1951TIP3   OH227343   2.084   4.426   5.424 -0.1796  0.1274 -0.3631
 1951TIP3    H127344   2.165   4.390   5.461  1.0033  1.6841 -1.3287
 1951TIP3    H227345   2.064   4.370   5.349 -0.1863 -0.4219  0.0352
 1952TIP3   OH227346   6.138   3.806   1.583  0.1208 -0.5442  0.1507
 1952TIP3    H127347   6.158   3.741   1.650  0.1407  0.9000  1.6037
 1952TIP3    H227348   6.180   3.772   1.503 -0.4585 -2.6162  0.6709
 1953TIP3   OH227349   4.344   2.474  15.871 -0.3175 -0.2822 -0.2331
 1953TIP3    H127350   4.425   2.504  15.829 -1.6504  0.9199 -2.0697
 1953TIP3    H227351   4.274   2.514  15.820 -2.0851  0.4906  2.5644
 1954TIP3   OH227352   1.884   2.570  14.927  0.3840  0.4910 -0.4640
 1954TIP3    H127353   1.883   2.612  14.841 -1.1446  0.9139 -0.2761
 1954TIP3    H227354   1.924   2.634  14.985  1.2403  0.2810 -0.8034
 1955TIP3   OH227355   4.424   6.694  11.056  0.1077  0.0119 -0.1764
 1955TIP3    H127356   4.414   6.727  10.966  0.3483 -0.4391 -0.3719
 1955TIP3    H227357   4.335   6.693  11.091 -0.2272 -1.3971 -0.9831
 1956TIP3   OH227358   5.119   1.250   0.889 -0.3399  0.4373  0.9425
 1956TIP3    H127359   5.147   1.331   0.846  2.0560 -0.5976  0.3935
 1956TIP3    H227360   5.088   1.278   0.974 -0.2098  2.0184  0.5010
 1957TIP3   OH227361   3.723   0.692  17.015  0.2687 -0.4236  0.9068
 1957TIP3    H127362   3.669   0.621  17.049  1.3114 -1.4776  0.4453
 1957TIP3    H227363   3.733   0.672  16.922  0.8668  0.1266  0.8433
 1958TIP3   OH227364   1.997   1.910   1.445 -0.3786 -0.4564  0.1876
 1958TIP3    H127365   2.071   1.853   1.462 -0.0303 -0.7244 -1.9243
 1958TIP3    H227366   2.028   1.998   1.468 -1.2074 -1.0599  4.2943
 1959TIP3   OH227367   6.701   5.690  15.221 -0.0975 -0.5085 -0.0515
 1959TIP3    H127368   6.756   5.618  15.188  0.7711 -0.3900  1.0767
 1959TIP3    H227369   6.756   5.734  15.285 -0.6838  1.0708 -0.5878
 1960TIP3   OH227370   5.159   2.605  16.705  0.1685 -0.2412 -0.2390
 1960TIP3    H127371   5.132   2.565  16.787  0.0656  2.4037  1.0955
 1960TIP3    H227372   5.084   2.594  16.646 -0.1709 -1.1803  0.3494
 1961TIP3   OH227373   0.813   4.678   2.672  0.4000 -0.3679  0.0279
 1961TIP3    H127374   0.876   4.722   2.729  0.6147  2.4335 -2.1724
 1961TIP3    H227375   0.734   4.668   2.726  1.2763  0.2249  1.4620
 1962TIP3   OH227376   2.728   1.543  14.012  0.4987 -0.5184 -0.7478
 1962TIP3    H127377   2.784   1.595  14.070 -0.2341  0.4216 -0.8478
 1962TIP3    H227378   2.721   1.596  13.932 -2.2811  0.4992  0.0646
 1963TIP3   OH227379   1.223   6.625  14.860 -0.0994 -0.0344 -0.1935
 1963TIP3    H127380   1.292   6.627  14.926 -1.5609 -1.4120  1.4694
 1963TIP3    H227381   1.220   6.715  14.827 -0.3367  1.1496  2.7700
 1964TIP3   OH227382   3.862   1.273  15.907  0.7733 -0.2127 -0.5493
 1964TIP3    H127383   3.920   1.314  15.971  1.5737 -0.3436 -1.1715
 1964TIP3    H227384   3.916   1.206  15.865 -0.6548 -2.4276  0.8905
 1965TIP3   OH227385   4.566   4.400   5.886 -0.3750  0.1621  0.0625
 1965TIP3    H127386   4.614   4.376   5.807 -0.0418  0.2983  0.2187
 1965TIP3    H227387   4.590   4.491   5.902 -0.3811  0.1128  0.3589
 1966TIP3   OH227388   6.045   2.587   1.499 -0.0035 -0.0385 -0.2490
 1966TIP3    H127389   5.977   2.653   1.512  0.5012  0.3644  0.4270
 1966TIP3    H227390   6.011   2.508   1.540 -0.3488 -0.0283 -0.5126
 1967TIP3   OH227391   1.908   1.132   1.948 -0.3644  0.6928 -0.5523
 1967TIP3    H127392   1.849   1.090   2.010 -1.6400  3.1776  0.0573
 1967TIP3    H227393   1.950   1.060   1.901 -3.3318 -1.2116 -0.4826
 1968TIP3   OH227394   1.389   2.055   3.488 -0.3085 -0.1784 -0.1296
 1968TIP3    H127395   1.354   2.142   3.470 -0.0396  0.0229  0.3183
 1968TIP3    H227396   1.442   2.066   3.566 -1.5788 -1.0726  0.9087
 1969TIP3   OH227397   1.035   4.124   4.069  0.3822 -0.1646  0.1789
 1969TIP3    H127398   1.006   4.080   4.150  1.4672 -0.0598  0.6497
 1969TIP3    H227399   1.032   4.056   4.003 -1.1265 -0.0982  0.1453
 1970TIP3   OH227400   6.687   5.074   2.690  0.0280 -0.3213  0.6598
 1970TIP3    H127401   6.718   5.165   2.684 -0.0923 -0.3389 -0.4304
 1970TIP3    H227402   6.615   5.078   2.752 -0.5677  0.5180 -0.0520
 1971TIP3   OH227403   1.397   6.420   6.338 -0.0119  0.2698  0.2075
 1971TIP3    H127404   1.493   6.419   6.346  0.2201 -1.5368 -1.9751
 1971TIP3    H227405   1.377   6.510   6.314  1.2559  0.4638 -0.2391
 1972TIP3   OH227406   3.899   3.980  12.233  0.2676  0.7188  0.7450
 1972TIP3    H127407   3.880   3.891  12.264  1.0988  0.2844  0.0635
 1972TIP3    H227408   3.855   4.037  12.296 -1.4405 -0.1756  0.4413
 1973TIP3   OH227409   3.527   5.935  15.948 -0.6408  0.4054 -0.2441
 1973TIP3    H127410   3.465   5.906  16.015  0.2410  2.5247  1.6392
 1973TIP3    H227411   3.486   5.912  15.865 -3.5171  0.8540  0.9292
 1974TIP3   OH227412   6.016   4.540  12.615 -0.3511  0.1793 -0.6230
 1974TIP3    H127413   5.959   4.471  12.650  0.6656 -1.0193 -1.2556
 1974TIP3    H227414   6.102   4.521  12.654  0.0929  0.6852 -1.3418
 1975TIP3   OH227415   6.517   4.930   1.254 -0.1455 -0.5230 -0.0873
 1975TIP3    H127416   6.485   4.864   1.315  3.1552 -0.5766  1.7597
 1975TIP3    H227417   6.500   4.892   1.167 -0.2926 -2.7836  0.8700
 1976TIP3   OH227418   5.689   1.611  11.887  0.2288 -0.5559 -0.1449
 1976TIP3    H127419   5.624   1.616  11.816  2.1159  0.1562 -1.9066
 1976TIP3    H227420   5.640   1.636  11.965 -1.4418  0.8003 -1.5370
 1977TIP3   OH227421   1.799   6.424   0.191  0.0821  0.1249 -0.1032
 1977TIP3    H127422   1.855   6.374   0.251  0.6264  1.5865  0.6346
 1977TIP3    H227423   1.823   6.392   0.104  0.0228 -1.2763  0.3711
 1978TIP3   OH227424   3.816   2.082  16.653  0.0660 -0.1722 -0.5304
 1978TIP3    H127425   3.838   2.118  16.739 -2.7645 -0.2510  0.3439
 1978TIP3    H227426   3.854   1.994  16.654 -0.7744 -0.5661  1.1096
 1979TIP3   OH227427   2.559   0.097   0.169 -0.4227 -0.1170 -0.0215
 1979TIP3    H127428   2.527   0.012   0.139  0.4572 -0.1746 -0.8383
 1979TIP3    H227429   2.508   0.115   0.248 -0.9700 -1.1672 -0.1160
 1980TIP3   OH227430   1.099   4.890  14.196 -0.4326  0.1938 -0.1241
 1980TIP3    H127431   1.032   4.955  14.176 -1.6928 -0.9608  0.1749
 1980TIP3    H227432   1.052   4.807  14.197  1.1343 -0.7359 -0.4902
 1981TIP3   OH227433   3.451   1.869   5.110 -0.0676  0.5229  0.3384
 1981TIP3    H127434   3.397   1.872   5.189 -0.8717  2.9331 -0.2164
 1981TIP3    H227435   3.538   1.841   5.140 -0.6605  0.2509  1.8517
 1982TIP3   OH227436   5.287   1.899  12.199 -0.2257  0.7335 -0.5110
 1982TIP3    H127437   5.283   1.930  12.289 -1.8023  1.4538 -0.7997
 1982TIP3    H227438   5.198   1.910  12.165 -0.1694 -1.3680 -1.5619
 1983TIP3   OH227439   3.196   0.214  16.500 -0.4444  0.2263  0.2721
 1983TIP3    H127440   3.104   0.195  16.520 -0.6361 -1.1749 -1.6974
 1983TIP3    H227441   3.196   0.306  16.474 -1.2824  0.2473  0.3239
 1984TIP3   OH227442   2.921   3.864  11.809  0.0124  0.7069  0.4943
 1984TIP3    H127443   2.861   3.798  11.775  0.0052  0.8787  0.1708
 1984TIP3    H227444   3.002   3.850  11.760  1.3445 -1.6151  3.0951
 1985TIP3   OH227445   3.428   5.073   2.462 -0.5360 -0.2198 -0.3952
 1985TIP3    H127446   3.368   5.055   2.389  0.6745 -1.7013 -1.0833
 1985TIP3    H227447   3.478   5.149   2.434 -2.2635  1.2501  0.3319
 1986TIP3   OH227448   2.835   1.747  14.500  1.0203  0.4985  0.8937
 1986TIP3    H127449   2.921   1.758  14.461  0.3823  2.0728 -0.1630
 1986TIP3    H227450   2.774   1.782  14.435 -0.2062  1.9921  2.7290
 1987TIP3   OH227451   4.864   5.022   3.771 -0.4105  0.0515 -0.2130
 1987TIP3    H127452   4.894   5.050   3.684  1.4883 -0.7871  0.1202
 1987TIP3    H227453   4.776   4.988   3.756 -0.5338  0.8973 -1.6088
 1988TIP3   OH227454   3.666   6.350  12.544 -0.1459 -0.3606  0.2370
 1988TIP3    H127455   3.758   6.371  12.557  0.6393 -2.4659 -1.3567
 1988TIP3    H227456   3.666   6.283  12.476 -2.9989  0.8092 -1.0618
 1989TIP3   OH227457   0.680   5.920   2.950 -0.2685 -0.1078 -0.2786
 1989TIP3    H127458   0.654   5.886   2.865  0.7089 -2.3064  0.2427
 1989TIP3    H227459   0.598   5.931   2.998 -0.6587 -1.4941 -0.5926
 1990TIP3   OH227460   4.329   2.906   4.077 -0.5238 -1.2562 -0.1151
 1990TIP3    H127461   4.355   2.820   4.043  0.8511 -1.6297  1.7523
 1990TIP3    H227462   4.292   2.951   4.001 -0.1891 -3.0590 -1.4165
 1991TIP3   OH227463   6.291   3.936   5.286  0.5300 -0.5364 -0.2207
 1991TIP3    H127464   6.200   3.938   5.256  0.4140 -1.1966  0.0656
 1991TIP3    H227465   6.339   3.896   5.214  0.7682  0.6821 -0.7721
 1992TIP3   OH227466   5.775   5.907   3.745 -0.3339  0.0058 -0.7128
 1992TIP3    H127467   5.778   5.920   3.650 -2.0873 -0.6650 -0.8884
 1992TIP3    H227468   5.814   5.987   3.781  0.7508  0.0904 -1.9798
 1993TIP3   OH227469   4.846   4.829   1.085 -0.2027  0.1472  0.7584
 1993TIP3    H127470   4.830   4.741   1.050 -0.8300 -0.5493  2.7032
 1993TIP3    H227471   4.897   4.873   1.016  2.1439 -2.4701  0.6829
 1994TIP3   OH227472   0.201   2.971  16.842  0.2506 -0.2062 -0.0543
 1994TIP3    H127473   0.107   2.990  16.836  0.2651  0.0690  0.4453
 1994TIP3    H227474   0.229   2.958  16.752  0.0032  1.0492 -0.3254
 1995TIP3   OH227475   2.993   5.273  15.817  0.3069  0.3540  0.2053
 1995TIP3    H127476   3.012   5.208  15.748 -0.2011 -0.1787  0.5536
 1995TIP3    H227477   2.926   5.329  15.779 -0.7762 -0.6086  0.6363
 1996TIP3   OH227478   6.554   4.804  13.176 -0.2353 -0.4717 -0.1095
 1996TIP3    H127479   6.576   4.893  13.150 -0.6745  0.1242  1.4724
 1996TIP3    H227480   6.464   4.809  13.207 -0.9789 -1.8871 -1.8632
 1997TIP3   OH227481   2.062   3.556  10.400  0.0022  0.1116 -0.5029
 1997TIP3    H127482   2.035   3.565  10.308 -1.5557  3.0755  0.0857
 1997TIP3    H227483   2.154   3.532  10.396  0.2418  1.1279 -2.9031
 1998TIP3   OH227484   1.906   3.974  16.937 -0.3219 -0.1929  0.3902
 1998TIP3    H127485   1.825   4.025  16.940  0.6735  1.4173  1.5178
 1998TIP3    H227486   1.878   3.884  16.951 -1.9002  0.3664  1.0654
 1999TIP3   OH227487   1.491   3.522  11.548  0.6490  0.3886 -0.0627
 1999TIP3    H127488   1.580   3.504  11.518  0.3704 -0.1777 -0.5666
 1999TIP3    H227489   1.454   3.577  11.479  0.3796  0.0273 -0.2102
 2000TIP3   OH227490   5.063   5.582   3.547 -0.1021  0.6478  0.0013
 2000TIP3    H127491   4.980   5.596   3.591  0.1682  1.3927  0.2871
 2000TIP3    H227492   5.125   5.563   3.617  0.4502  2.3972  0.0309
 2001TIP3   OH227493   2.275   5.942  12.962  0.5892 -0.7614  0.3290
 2001TIP3    H127494   2.249   5.978  12.877  0.7055 -2.5006 -0.4987
 2001TIP3    H227495   2.356   5.987  12.984 -0.1880  0.7374  0.2364
 2002TIP3   OH227496   0.119   1.176  12.656 -0.4280 -0.0727 -0.0742
 2002TIP3    H127497   0.204   1.137  12.636 -0.7676 -1.3571  0.8499
 2002TIP3    H227498   0.139   1.265  12.684  0.3937  0.4282 -2.0464
 2003TIP3   OH227499   3.712   1.550   6.242 -0.2614  0.1945 -0.4610
 2003TIP3    H127500   3.711   1.626   6.300 -0.0246  1.5534 -2.1472
 2003TIP3    H227501   3.621   1.520   6.239  0.0482 -1.3264  2.2807
 2004TIP3   OH227502   6.612   6.828   2.928 -0.4359 -0.7424  0.5103
 2004TIP3    H127503   6.623   6.921   2.951 -0.2041 -0.9801  1.3822
 2004TIP3    H227504   6.531   6.826   2.877 -0.3174 -0.0260  0.2707
 2005TIP3   OH227505   6.228   5.955  11.698 -1.1345 -0.0376 -0.1184
 2005TIP3    H127506   6.143   5.935  11.657 -0.8838  1.3628 -1.4145
 2005TIP3    H227507   6.224   6.048  11.717 -0.2520 -0.1635  0.7657
 2006TIP3   OH227508   2.266   4.010  11.359  0.3389 -0.1295 -0.1679
 2006TIP3    H127509   2.225   4.094  11.336  3.8216  1.5594 -0.9111
 2006TIP3    H227510   2.207   3.971  11.424 -1.1386  3.2288  0.7211
 2007TIP3   OH227511   5.280   5.536   4.832  0.6814  0.2292 -0.5103
 2007TIP3    H127512   5.205   5.596   4.832  0.2604 -0.2723  0.3219
 2007TIP3    H227513   5.262   5.477   4.759  1.3231  1.3512 -1.6242
 2008TIP3   OH227514   2.634   2.576  16.948 -0.0119  0.1584 -0.3485
 2008TIP3    H127515   2.584   2.590  17.029  2.4273  3.7650  0.7734
 2008TIP3    H227516   2.571   2.593  16.878 -0.6755  4.3487  0.9862
 2009TIP3   OH227517   2.120   0.453   4.169  0.3357 -0.3181  0.3788
 2009TIP3    H127518   2.178   0.495   4.232  1.6620 -1.5239  0.0051
 2009TIP3    H227519   2.164   0.372   4.145 -1.0728 -0.8382 -0.6302
 2010TIP3   OH227520   6.149   4.741   2.778 -0.5920  0.0910 -0.2272
 2010TIP3    H127521   6.208   4.788   2.838 -0.0976 -0.3280 -0.3752
 2010TIP3    H227522   6.070   4.727   2.829  0.0157 -0.7330  0.5208
 2011TIP3   OH227523   2.784   3.111   0.748  0.0181 -0.0600  0.4265
 2011TIP3    H127524   2.741   3.033   0.782  0.1810  0.1584  1.1424
 2011TIP3    H227525   2.877   3.095   0.760  0.0675  0.0923  0.2461
 2012TIP3   OH227526   5.916   6.267   1.891 -0.5452  0.5638 -0.9360
 2012TIP3    H127527   5.931   6.176   1.869 -1.3195  0.1306  0.2145
 2012TIP3    H227528   5.926   6.314   1.809  3.8393  0.0032 -0.9792
 2013TIP3   OH227529   5.548   3.853  12.462  0.3414  0.7682 -0.4922
 2013TIP3    H127530   5.620   3.795  12.486  0.0535  1.1140  1.3111
 2013TIP3    H227531   5.557   3.929  12.519 -0.8335  1.3067 -0.9699
 2014TIP3   OH227532   5.239   4.045  13.118 -0.1860 -0.4818  0.1517
 2014TIP3    H127533   5.175   4.004  13.176 -0.2619  0.8903  1.1059
 2014TIP3    H227534   5.305   3.977  13.102 -1.1619 -1.4833  0.2660
 2015TIP3   OH227535   5.325   1.173  16.628 -0.1130  0.4505 -0.1272
 2015TIP3    H127536   5.283   1.252  16.662 -0.2797  0.2762  0.0740
 2015TIP3    H227537   5.256   1.129  16.578  0.2810  0.9932 -1.1889
 2016TIP3   OH227538   0.868   4.469   5.324  0.3057 -0.4825  1.0935
 2016TIP3    H127539   0.884   4.444   5.415  3.0055 -2.8974  0.1182
 2016TIP3    H227540   0.792   4.416   5.298  0.6211 -1.1242  1.4559
 2017TIP3   OH227541   6.114   0.017  12.767 -0.5378  0.3071 -0.3863
 2017TIP3    H127542   6.066   0.073  12.706 -1.0615  0.5486  0.2367
 2017TIP3    H227543   6.194  -0.007  12.720  0.6902  3.2074  0.0712
 2018TIP3   OH227544   1.434   3.120  13.932 -0.1415  0.0985  0.4132
 2018TIP3    H127545   1.528   3.129  13.949 -0.6412  0.9622  3.2854
 2018TIP3    H227546   1.417   3.026  13.941  0.6074 -0.2429 -1.4162
 2019TIP3   OH227547   2.522   2.357   4.676 -0.0708 -0.4299 -0.0003
 2019TIP3    H127548   2.575   2.430   4.645  0.2415 -0.6736 -0.0490
 2019TIP3    H227549   2.462   2.339   4.605 -0.9399  0.5295  0.4613
 2020TIP3   OH227550   1.854   6.139   5.379 -0.1434 -0.3694 -0.0438
 2020TIP3    H127551   1.852   6.076   5.452  0.4220  0.5300  0.7616
 2020TIP3    H227552   1.921   6.104   5.320  0.3053 -0.4277  0.4899
 2021TIP3   OH227553   5.018   4.941  15.258  0.2762  0.0421  0.0445
 2021TIP3    H127554   4.931   4.929  15.295 -0.0318  1.0626 -0.3251
 2021TIP3    H227555   5.078   4.911  15.327 -0.3389  0.0571  0.5914
 2022TIP3   OH227556   0.258   4.088  10.753  0.4246  0.0534  0.3675
 2022TIP3    H127557   0.255   4.042  10.670  2.3185 -0.3948  0.4862
 2022TIP3    H227558   0.336   4.144  10.746 -0.1015  0.9487  1.3693
 2023TIP3   OH227559   5.755   0.658   0.249 -0.5307  0.3511  0.1140
 2023TIP3    H127560   5.788   0.570   0.266 -0.2523  0.2470 -0.8984
 2023TIP3    H227561   5.740   0.661   0.155 -0.2236  1.4918  0.0782
 2024TIP3   OH227562   3.036   1.936   0.667  0.8013 -0.5789 -0.4833
 2024TIP3    H127563   3.120   1.979   0.683  0.7177 -0.2416 -0.9190
 2024TIP3    H227564   3.002   1.979   0.589 -0.1687 -0.1134  0.1666
 2025TIP3   OH227565   3.733   4.369   4.403  0.0868 -0.7460 -0.3394
 2025TIP3    H127566   3.656   4.376   4.346 -0.2647 -0.5173  0.1603
 2025TIP3    H227567   3.735   4.278   4.431 -0.8880 -0.4246  0.8578
 2026TIP3   OH227568   4.928   2.616   2.969  0.2329 -0.0624 -0.6537
 2026TIP3    H127569   4.839   2.646   2.986 -0.2922 -2.1428  0.7098
 2026TIP3    H227570   4.981   2.657   3.038  0.1741  0.4399 -0.9034
 2027TIP3   OH227571   3.994   0.218   1.027 -0.7343  0.6717 -0.0491
 2027TIP3    H127572   3.985   0.297   0.974 -0.2818  1.1679  0.5942
 2027TIP3    H227573   4.081   0.185   1.006 -2.1262 -1.6567 -2.9492
 2028TIP3   OH227574   4.041   5.925   4.054 -0.0528 -0.0837 -0.3043
 2028TIP3    H127575   4.106   5.918   3.983 -0.8847 -1.5815 -0.9725
 2028TIP3    H227576   4.024   5.834   4.078 -1.5745  0.3112  0.1619
 2029TIP3   OH227577   2.609   3.176   3.091 -0.3057  0.0766 -0.1603
 2029TIP3    H127578   2.589   3.202   3.001 -1.9638  0.7547  0.3583
 2029TIP3    H227579   2.592   3.082   3.092 -0.1854  0.0451 -0.5815
 2030TIP3   OH227580   0.973   4.455  15.953 -1.0811  0.2836  0.0189
 2030TIP3    H127581   0.977   4.423  16.043 -0.8289  0.3567  0.0342
 2030TIP3    H227582   1.065   4.467  15.928 -1.1812  1.9281  0.3443
 2031TIP3   OH227583   2.249   4.531   0.387 -0.0372  0.7006  0.5467
 2031TIP3    H127584   2.168   4.576   0.414  1.2276  2.7729  1.1170
 2031TIP3    H227585   2.317   4.598   0.395  1.7065 -0.9055 -0.2052
 2032TIP3   OH227586   6.814   4.882  12.291 -0.4488 -0.0836 -0.3712
 2032TIP3    H127587   6.840   4.803  12.243  0.8458 -0.3510  0.7128
 2032TIP3    H227588   6.869   4.881  12.369 -3.3052 -0.3012  1.7838
 2033TIP3   OH227589   2.814   3.176  16.984  0.2686 -0.3943  0.6441
 2033TIP3    H127590   2.745   3.159  17.049  0.3649  0.1057  0.8787
 2033TIP3    H227591   2.896   3.166  17.033  0.3238  1.1134  0.8829
 2034TIP3   OH227592   1.916   4.952   1.439  0.1741 -0.4472 -0.1604
 2034TIP3    H127593   1.848   4.973   1.503 -0.5334  0.7529 -1.2525
 2034TIP3    H227594   1.994   4.935   1.491 -0.5758 -0.2934  1.0507
 2035TIP3   OH227595   3.915   3.197   2.874  0.3336  0.1783  0.8480
 2035TIP3    H127596   3.960   3.243   2.803  1.1390 -0.9663  0.5920
 2035TIP3    H227597   3.825   3.189   2.844  0.5466  0.1904  0.1959
 2036TIP3   OH227598   2.875   2.595  15.177 -0.9478  0.0083 -0.2602
 2036TIP3    H127599   2.939   2.662  15.204  1.7603 -2.1914 -0.8081
 2036TIP3    H227600   2.811   2.594  15.249  0.4292  1.2922  1.0819
 2037TIP3   OH227601   3.017   3.511  14.843  0.6123  0.1056  0.1042
 2037TIP3    H127602   2.993   3.572  14.913 -0.1316  0.3958 -0.3968
 2037TIP3    H227603   3.109   3.490  14.861  0.6304  0.7033  0.7763
 2038TIP3   OH227604   2.746   4.232  13.745 -0.1480 -0.0538  0.5760
 2038TIP3    H127605   2.717   4.226  13.654 -1.3539  0.8760  0.8746
 2038TIP3    H227606   2.841   4.247  13.740 -0.1819 -0.1701 -0.5147
 2039TIP3   OH227607   0.390   0.858  12.452  0.3700  0.2098  0.5420
 2039TIP3    H127608   0.390   0.771  12.493 -1.2286 -1.5310 -2.7499
 2039TIP3    H227609   0.442   0.847  12.373 -0.9218  1.8433 -0.6135
 2040TIP3   OH227610   4.396   3.129   1.021 -0.1781 -0.0101 -0.5966
 2040TIP3    H127611   4.375   3.210   1.067  0.8488 -0.8157  1.4083
 2040TIP3    H227612   4.492   3.124   1.023 -0.2312 -1.3220 -0.5857
 2041TIP3   OH227613   3.211   1.691  11.486  0.8117  0.2285 -0.0208
 2041TIP3    H127614   3.222   1.632  11.411  2.8332  1.0455 -0.4527
 2041TIP3    H227615   3.218   1.634  11.563  1.0272 -0.3232 -0.4452
 2042TIP3   OH227616   3.277   6.311  13.917  0.2886 -0.1280 -0.1109
 2042TIP3    H127617   3.279   6.405  13.938  1.2124 -0.5194  1.6790
 2042TIP3    H227618   3.184   6.290  13.915 -0.1263  1.3939 -3.5227
 2043TIP3   OH227619   6.840   5.321  16.968 -0.0201  0.2238 -0.2432
 2043TIP3    H127620   6.747   5.307  16.952  0.0521  0.4720 -0.8768
 2043TIP3    H227621   6.843   5.379  17.045 -0.4207  1.3465 -1.0509
 2044TIP3   OH227622   0.557   2.761   6.045  0.0978  0.0079 -0.4970
 2044TIP3    H127623   0.472   2.803   6.061  0.1769 -0.0113 -0.0107
 2044TIP3    H227624   0.596   2.752   6.132 -0.4690 -2.2391 -0.4233
 2045TIP3   OH227625   4.690   6.399   4.605 -0.3558 -0.4609 -0.6155
 2045TIP3    H127626   4.612   6.348   4.627 -2.1478  2.0760 -0.6654
 2045TIP3    H227627   4.678   6.425   4.514 -0.5829  1.7302 -0.0168
 2046TIP3   OH227628   4.485   4.781   3.923  0.4325  0.3950  0.3299
 2046TIP3    H127629   4.574   4.761   3.951  0.4416  0.0646  0.0682
 2046TIP3    H227630   4.433   4.706   3.949  0.2820  0.4630  0.2311
 2047TIP3   OH227631   3.993   6.226   0.490  0.1343  0.1276 -0.0439
 2047TIP3    H127632   4.030   6.192   0.571  1.7982  0.1732 -0.7598
 2047TIP3    H227633   4.057   6.290   0.458 -0.3535 -0.0724 -1.5208
 2048TIP3   OH227634   2.349   5.173   2.330  0.5818 -0.6452 -0.0178
 2048TIP3    H127635   2.347   5.263   2.298 -0.0292 -1.4371 -2.4148
 2048TIP3    H227636   2.420   5.132   2.281 -0.4192 -1.9429 -0.4351
 2049TIP3   OH227637   4.493   6.769   4.400 -0.0627  0.5013  0.1178
 2049TIP3    H127638   4.534   6.737   4.480 -1.8500 -1.4347  0.3703
 2049TIP3    H227639   4.457   6.854   4.423 -0.5111 -0.0112  1.3863
 2050TIP3   OH227640   2.750   1.630   0.057 -0.7191 -0.4310  0.6275
 2050TIP3    H127641   2.810   1.568   0.097 -1.0691 -0.8077  0.5799
 2050TIP3    H227642   2.678   1.575   0.023 -0.3581 -0.1380 -0.6463
 2051TIP3   OH227643   6.553   2.448  15.742 -0.2928 -0.6806  0.1578
 2051TIP3    H127644   6.529   2.355  15.745 -0.2133 -0.7342 -0.5419
 2051TIP3    H227645   6.480   2.490  15.696 -0.4811 -0.3393  0.7619
 2052TIP3   OH227646   5.894   2.884   1.864 -0.2609 -0.4682  0.2470
 2052TIP3    H127647   5.990   2.883   1.865 -0.1881 -4.1627 -0.0263
 2052TIP3    H227648   5.872   2.905   1.773  0.1496  1.9312  0.6236
 2053TIP3   OH227649   5.500   3.484   5.230  0.4588  0.0661 -0.0491
 2053TIP3    H127650   5.530   3.395   5.216 -0.6695  0.1477 -4.5929
 2053TIP3    H227651   5.412   3.475   5.267  0.0709 -0.7703 -1.1398
 2054TIP3   OH227652   6.782   6.812  12.361 -0.2072  0.0248 -0.0975
 2054TIP3    H127653   6.692   6.787  12.383 -0.6072  0.8444 -0.7496
 2054TIP3    H227654   6.817   6.851  12.441 -0.5589  0.0450  0.0451
 2055TIP3   OH227655   1.354   6.116  13.621  0.1314 -0.0815 -0.3679
 2055TIP3    H127656   1.429   6.130  13.680 -0.1433 -0.1840  0.0142
 2055TIP3    H227657   1.293   6.063  13.673 -0.1415 -0.1235 -0.7289
 2056TIP3   OH227658   4.230   0.837   3.070  0.0803 -0.1185 -0.3492
 2056TIP3    H127659   4.298   0.774   3.047  0.2987 -0.0025 -0.0174
 2056TIP3    H227660   4.160   0.820   3.007 -0.3847 -1.5306  0.4933
 2057TIP3   OH227661   1.618   1.299   1.827 -0.7891 -0.2621  0.0731
 2057TIP3    H127662   1.626   1.309   1.922 -0.3099 -0.0870  0.0145
 2057TIP3    H227663   1.639   1.385   1.792  1.6584 -0.9706 -0.3415
 2058TIP3   OH227664   3.558   2.989   0.997 -0.0009 -0.3510 -0.1111
 2058TIP3    H127665   3.624   2.952   0.938  0.1238  0.3176 -0.4025
 2058TIP3    H227666   3.581   2.955   1.083  0.8122 -0.0156 -0.1853
 2059TIP3   OH227667   3.393   6.764  15.062  0.4338  0.7083 -0.2699
 2059TIP3    H127668   3.373   6.724  14.977  0.9314  1.6781 -0.8566
 2059TIP3    H227669   3.310   6.799  15.092  0.0407 -0.5136  0.1366
 2060TIP3   OH227670   2.857   1.682  13.652  0.2800  0.1241 -0.5531
 2060TIP3    H127671   2.845   1.767  13.695  0.0394 -0.1346 -0.1038
 2060TIP3    H227672   2.773   1.637  13.664  0.7210 -0.5638  0.0795
 2061TIP3   OH227673   4.826   1.885  15.077  0.4707  0.4511  0.1288
 2061TIP3    H127674   4.738   1.872  15.111  0.5686 -1.3732 -0.1942
 2061TIP3    H227675   4.876   1.812  15.114  1.9113  1.5714  0.4732
 2062TIP3   OH227676   0.947   3.901  10.790 -0.1422 -0.9797  0.3152
 2062TIP3    H127677   1.017   3.844  10.760 -0.9126 -1.6697 -0.2327
 2062TIP3    H227678   0.866   3.854  10.767 -0.7813 -0.5358  1.5527
 2063TIP3   OH227679   4.556   1.457   4.308  0.4942 -0.2288 -0.5204
 2063TIP3    H127680   4.482   1.514   4.289  1.2882  0.9567 -0.1226
 2063TIP3    H227681   4.545   1.434   4.400 -0.9327 -2.4209 -1.1485
 2064TIP3   OH227682   4.023   5.654   3.519 -0.0002 -0.6695  0.3773
 2064TIP3    H127683   3.946   5.661   3.575 -1.0802  0.7513 -1.1687
 2064TIP3    H227684   4.019   5.565   3.484 -0.6370 -0.7843  0.7209
 2065TIP3   OH227685   0.159   2.444  16.930  0.2495  0.5007 -0.0297
 2065TIP3    H127686   0.092   2.382  16.902  1.1725 -0.6033  0.1811
 2065TIP3    H227687   0.140   2.523  16.879 -0.6633 -0.0904 -0.6314
 2066TIP3   OH227688   2.195   0.704   2.403 -0.1831 -0.6295 -0.2241
 2066TIP3    H127689   2.103   0.676   2.399 -0.4033 -0.1927  1.3707
 2066TIP3    H227690   2.193   0.796   2.378  0.1213 -1.0798 -2.1401
 2067TIP3   OH227691   6.346   6.330   4.531  0.0931  0.4928 -0.3083
 2067TIP3    H127692   6.409   6.283   4.477  1.1843  0.9182  0.5731
 2067TIP3    H227693   6.320   6.405   4.479 -1.2931 -0.7604 -1.5299
 2068TIP3   OH227694   2.693   2.435   3.373  0.3452  0.1346  0.6998
 2068TIP3    H127695   2.601   2.416   3.394 -0.3242 -0.1735 -2.1077
 2068TIP3    H227696   2.696   2.531   3.366  0.0300  0.0984  0.0121
 2069TIP3   OH227697   3.996   0.099  14.074  0.3811 -0.4757  0.3070
 2069TIP3    H127698   4.068   0.112  14.013 -0.3835  2.5679 -0.0859
 2069TIP3    H227699   3.919   0.088  14.018  0.1116 -0.8658  0.7410
 2070TIP3   OH227700   3.127   1.156  14.015 -0.2618 -0.2495  0.1289
 2070TIP3    H127701   3.115   1.074  14.063  3.0542 -0.5073  0.7551
 2070TIP3    H227702   3.156   1.218  14.082  1.2073  0.2917 -0.9647
 2071TIP3   OH227703   6.298   2.012   1.429 -0.3348  0.5865 -0.0522
 2071TIP3    H127704   6.258   1.988   1.513  0.6820  0.7845  0.4988
 2071TIP3    H227705   6.389   1.985   1.437  0.4236  2.9579 -0.1052
 2072TIP3   OH227706   0.085   6.063  15.597 -0.2793 -0.5123  0.2685
 2072TIP3    H127707   0.084   5.993  15.531  0.7597 -1.5556  1.3078
 2072TIP3    H227708   0.135   6.026  15.670  2.7256  2.2228 -0.1625
 2073TIP3   OH227709   2.148   3.611  13.765  0.0850 -0.5130  0.5742
 2073TIP3    H127710   2.063   3.650  13.786 -0.3218 -0.4962 -0.9281
 2073TIP3    H227711   2.209   3.649  13.828 -0.4067  2.0855 -0.3984
 2074TIP3   OH227712   4.027   3.595   1.874 -0.3806 -0.4927 -0.2168
 2074TIP3    H127713   4.078   3.520   1.902 -1.2409 -0.7135  0.7973
 2074TIP3    H227714   4.034   3.594   1.778 -0.0215 -1.5897 -0.1907
 2075TIP3   OH227715   2.347   3.218   2.691  0.2382 -0.0174 -0.6846
 2075TIP3    H127716   2.282   3.285   2.713 -0.1370 -0.9124  1.0857
 2075TIP3    H227717   2.297   3.150   2.645  0.0284 -0.3664  0.0346
 2076TIP3   OH227718   1.397   0.262  10.768  0.1740  0.1565 -0.2661
 2076TIP3    H127719   1.354   0.309  10.696  0.4721 -0.9978 -1.2248
 2076TIP3    H227720   1.341   0.186  10.784 -1.3531  1.7077  2.5575
 2077TIP3   OH227721   6.124   2.247  13.726  0.3169  0.7373  0.2151
 2077TIP3    H127722   6.127   2.188  13.802  1.9305 -1.1029 -1.1848
 2077TIP3    H227723   6.198   2.306  13.738  0.0571  1.0166  0.4762
 2078TIP3   OH227724   5.608   5.302  12.276  0.3058 -0.0232  0.6888
 2078TIP3    H127725   5.668   5.248  12.327  1.3104  0.0630 -0.3561
 2078TIP3    H227726   5.523   5.260  12.286  1.0941 -1.9689 -0.2881
 2079TIP3   OH227727   4.959   0.192  12.463  0.2428  0.4760 -0.2734
 2079TIP3    H127728   5.050   0.219  12.469  0.4586 -0.5337  1.8282
 2079TIP3    H227729   4.946   0.134  12.538 -2.5230  1.7236  0.3402
 2080TIP3   OH227730   2.435   2.292   0.073 -0.7688  0.2367  0.2226
 2080TIP3    H127731   2.446   2.314   0.166 -0.1974  0.5236  0.0891
 2080TIP3    H227732   2.523   2.297   0.037 -1.0173  0.2923 -0.3769
 2081TIP3   OH227733   1.029   3.205  13.681  0.3508  0.0898  0.4485
 2081TIP3    H127734   1.124   3.212  13.669  0.1618  0.7093 -0.8083
 2081TIP3    H227735   1.013   3.111  13.686  0.8297 -0.1248 -1.3041
 2082TIP3   OH227736   4.880   0.886   6.602  0.3643  0.0622 -0.1891
 2082TIP3    H127737   4.936   0.863   6.528  0.9922 -2.4578  0.9627
 2082TIP3    H227738   4.937   0.883   6.678 -1.0565 -1.5714  0.8938
 2083TIP3   OH227739   2.025   1.753  13.088 -0.1430 -0.4032  0.5537
 2083TIP3    H127740   2.034   1.692  13.161 -0.1128 -2.2565 -0.9286
 2083TIP3    H227741   1.940   1.733  13.049  0.6540 -0.8388 -1.0719
 2084TIP3   OH227742   1.042   0.876   2.158  0.1093 -0.5028  0.4486
 2084TIP3    H127743   0.980   0.948   2.143 -0.4267 -0.7954  1.2048
 2084TIP3    H227744   1.124   0.907   2.120 -0.0830  0.5539  0.8640
 2085TIP3   OH227745   6.083   0.329   3.335  0.3495 -0.6231  0.1413
 2085TIP3    H127746   6.008   0.268   3.337  0.9132 -1.3584 -0.3839
 2085TIP3    H227747   6.047   0.410   3.300 -0.7481 -0.1564  2.1836
 2086TIP3   OH227748   3.426   3.285  11.416 -0.6093  0.1225 -0.3908
 2086TIP3    H127749   3.517   3.258  11.425 -0.6917  0.0573  0.3001
 2086TIP3    H227750   3.375   3.205  11.427 -0.7178 -0.0444 -1.9142
 2087TIP3   OH227751   3.247   5.158  16.771  0.1591 -0.0115  0.1444
 2087TIP3    H127752   3.300   5.156  16.691  0.5990  2.1624  0.3137
 2087TIP3    H227753   3.254   5.070  16.807 -0.2431 -1.1355 -2.3128
 2088TIP3   OH227754   1.311   4.107  11.488 -0.1158  0.3709  0.3124
 2088TIP3    H127755   1.381   4.134  11.546 -0.0930  0.6511  0.1554
 2088TIP3    H227756   1.270   4.032  11.532  0.1733  0.3136  0.4816
 2089TIP3   OH227757   0.109   6.138   2.222  0.3967 -0.1210 -0.0789
 2089TIP3    H127758   0.131   6.215   2.170 -0.6969  0.0762 -0.2792
 2089TIP3    H227759   0.080   6.173   2.306 -0.6576 -0.2601 -0.3693
 2090TIP3   OH227760   5.049   0.809   2.368  0.2815 -0.1242 -0.5017
 2090TIP3    H127761   4.977   0.799   2.430  1.2850  1.2363  0.9475
 2090TIP3    H227762   5.082   0.720   2.356 -0.8371 -0.5958 -0.2170
 2091TIP3   OH227763   3.228   5.012   1.131  0.2756  0.3928 -0.0642
 2091TIP3    H127764   3.212   4.934   1.185 -0.1965 -0.1814 -1.0057
 2091TIP3    H227765   3.141   5.048   1.114  0.4892  1.0839  0.2959
 2092TIP3   OH227766   1.581   0.399  14.599 -0.3964  0.4483 -0.6100
 2092TIP3    H127767   1.574   0.489  14.630 -3.5307  0.7471 -1.8112
 2092TIP3    H227768   1.616   0.407  14.511 -2.3652  0.7617 -1.4215
 2093TIP3   OH227769   5.065   2.422   2.382  0.4597  0.7371 -0.0997
 2093TIP3    H127770   5.007   2.472   2.325 -1.1261 -1.3939 -0.4720
 2093TIP3    H227771   5.030   2.434   2.470  0.8659  1.2805 -0.0033
 2094TIP3   OH227772   1.560   3.299   5.846 -0.8658 -0.0637  0.0700
 2094TIP3    H127773   1.560   3.212   5.886  1.1473 -0.5224 -0.7909
 2094TIP3    H227774   1.599   3.356   5.913 -0.9465 -0.0842  0.1349
 2095TIP3   OH227775   1.522   2.166  15.966 -0.1353 -0.0482  0.2392
 2095TIP3    H127776   1.504   2.133  15.878  1.1398 -0.8793  0.2661
 2095TIP3    H227777   1.459   2.237  15.979 -1.0025 -0.5791 -0.9493
 2096TIP3   OH227778   3.807   0.861   0.590 -0.4168 -0.1643  0.1971
 2096TIP3    H127779   3.895   0.889   0.562 -0.1170 -0.2724  1.0123
 2096TIP3    H227780   3.760   0.943   0.604  0.3427 -0.0201  2.2043
 2097TIP3   OH227781   6.614   0.109  11.442 -0.5570 -0.1267  0.4517
 2097TIP3    H127782   6.587   0.020  11.421 -2.3122 -0.1661  2.5355
 2097TIP3    H227783   6.651   0.142  11.360  0.5982 -2.8764 -0.2554
 2098TIP3   OH227784   6.018   3.528   0.310  0.4114 -0.4067 -0.3799
 2098TIP3    H127785   5.938   3.511   0.261 -0.2187  2.5655 -0.5642
 2098TIP3    H227786   6.044   3.442   0.344 -2.7694 -1.4925 -0.3558
 2099TIP3   OH227787   1.087   0.041   2.401  0.1132  0.1708 -0.6942
 2099TIP3    H127788   1.048  -0.031   2.452 -0.4071  1.0620  0.1969
 2099TIP3    H227789   1.013   0.079   2.354  0.2716  0.5337 -0.6497
 2100TIP3   OH227790   0.699   6.279  14.486  0.0543 -0.0985 -0.7677
 2100TIP3    H127791   0.658   6.345  14.429 -0.5831 -0.5693 -0.8618
 2100TIP3    H227792   0.720   6.328  14.566 -4.0498 -0.5194  0.8223
 2101TIP3   OH227793   3.151   0.040  10.969  0.3271 -0.1293  0.4228
 2101TIP3    H127794   3.103  -0.042  10.984 -0.3975  0.1064 -0.5317
 2101TIP3    H227795   3.082   0.106  10.961  0.8465  0.3381 -0.2564
 2102TIP3   OH227796   2.402   3.310  11.140  0.0733 -0.1287 -0.5093
 2102TIP3    H127797   2.432   3.230  11.184  1.6366  0.1486 -1.0107
 2102TIP3    H227798   2.415   3.292  11.047  1.8292  1.2054 -0.5669
 2103TIP3   OH227799   3.115   0.780  13.356  0.2510  0.8783  0.1862
 2103TIP3    H127800   3.204   0.815  13.355  0.7398 -0.3211  0.3610
 2103TIP3    H227801   3.106   0.736  13.271 -0.5315  1.8316 -0.2422
 2104TIP3   OH227802   2.444   4.834  15.806  0.3804 -0.1652 -0.1308
 2104TIP3    H127803   2.450   4.910  15.863  0.2382  1.3552 -2.0466
 2104TIP3    H227804   2.350   4.814  15.802  0.4017 -0.3499  0.2322
 2105TIP3   OH227805   6.106   5.124  12.106 -0.0026 -0.5067  0.3270
 2105TIP3    H127806   6.174   5.072  12.148  0.7246 -0.2365 -0.4976
 2105TIP3    H227807   6.029   5.067  12.106  0.5678 -1.2846  0.1271
 2106TIP3   OH227808   2.246   5.961  16.100 -0.1300  0.0773 -0.5779
 2106TIP3    H127809   2.191   6.037  16.080  0.6021  0.4860 -1.1092
 2106TIP3    H227810   2.275   5.930  16.014  1.3889  0.5811 -0.2859
 2107TIP3   OH227811   6.166   0.419   3.847  0.2158  0.1070  0.4340
 2107TIP3    H127812   6.115   0.368   3.784 -1.4555  0.0875  1.7348
 2107TIP3    H227813   6.235   0.460   3.794 -0.4430 -0.7808 -1.1997
 2108TIP3   OH227814   1.605   1.444   0.180  0.0211  0.6290  0.2695
 2108TIP3    H127815   1.630   1.431   0.271  0.3178 -0.5695  0.0200
 2108TIP3    H227816   1.510   1.455   0.183 -0.1486 -0.7693  0.5979
 2109TIP3   OH227817   5.772   5.621   3.218 -0.3960  0.6241 -0.0883
 2109TIP3    H127818   5.677   5.630   3.227 -0.3740  0.9393 -0.1679
 2109TIP3    H227819   5.792   5.536   3.258 -0.5127  1.2422  1.3712
 2110TIP3   OH227820   0.922   5.620  16.549  0.5097  0.2123 -0.0863
 2110TIP3    H127821   0.898   5.585  16.635  2.1226  0.9730  0.7197
 2110TIP3    H227822   1.009   5.585  16.533 -0.2365 -0.9139 -2.0226
 2111TIP3   OH227823   0.712   5.805  14.741  0.1989 -0.2090  0.3025
 2111TIP3    H127824   0.797   5.762  14.749  0.4759  0.1757 -0.4658
 2111TIP3    H227825   0.665   5.780  14.820  0.8483 -0.8235  0.5066
 2112TIP3   OH227826   4.496   0.552  12.759  0.0788  0.2969 -0.6472
 2112TIP3    H127827   4.451   0.510  12.685 -0.4403 -1.2401  0.5084
 2112TIP3    H227828   4.538   0.481  12.806  0.1592  1.2063  0.7148
 2113TIP3   OH227829   2.078   3.381   4.788 -0.3350 -0.4021  0.7816
 2113TIP3    H127830   2.013   3.451   4.782 -0.0088 -0.1132  0.5658
 2113TIP3    H227831   2.057   3.335   4.869 -1.1939 -0.6988  0.4019
 2114TIP3   OH227832   3.468   6.141  14.720  0.0484 -0.6167  0.6301
 2114TIP3    H127833   3.464   6.119  14.627 -0.5680 -1.7760  0.9134
 2114TIP3    H227834   3.460   6.236  14.723 -0.8520 -0.6473 -0.4478
 2115TIP3   OH227835   1.812   1.856  14.754  0.0906  0.4559  0.0408
 2115TIP3    H127836   1.902   1.833  14.774 -0.0299 -0.6199 -0.5551
 2115TIP3    H227837   1.772   1.876  14.838  0.5542 -0.3311  0.4610
 2116TIP3   OH227838   0.035   2.847  13.698 -0.0994  0.4075  0.0514
 2116TIP3    H127839  -0.017   2.926  13.710 -1.3281 -0.4507  0.4845
 2116TIP3    H227840   0.078   2.860  13.613 -0.9120  1.1883 -0.2618
 2117TIP3   OH227841   6.619   3.986  11.745  0.5991 -0.0095  0.0110
 2117TIP3    H127842   6.566   3.922  11.698  0.6825  0.1611 -0.3140
 2117TIP3    H227843   6.631   3.948  11.832 -1.8009  0.8507  0.8246
 2118TIP3   OH227844   1.784   4.244   1.689  0.0103  0.6327  0.4296
 2118TIP3    H127845   1.803   4.189   1.612 -0.2675  1.7388 -0.4561
 2118TIP3    H227846   1.867   4.247   1.736 -0.2023 -1.2936  1.0175
 2119TIP3   OH227847   6.081   3.446  15.265  0.1029 -0.1801 -0.0805
 2119TIP3    H127848   6.171   3.431  15.235  1.2931  1.8329  2.0753
 2119TIP3    H227849   6.036   3.364  15.248  1.7301 -0.5944 -3.1822
 2120TIP3   OH227850   1.816   1.409  10.714  0.3309 -0.0724  0.0171
 2120TIP3    H127851   1.868   1.490  10.720 -0.4972  0.6134 -1.4531
 2120TIP3    H227852   1.860   1.358  10.646 -1.1978  0.8144 -1.7459
 2121TIP3   OH227853   3.263   5.271   5.074  0.3335  0.2135  0.0546
 2121TIP3    H127854   3.191   5.313   5.026  0.1204  1.5845  1.4801
 2121TIP3    H227855   3.228   5.185   5.098 -0.2501  0.2533 -0.5979
 2122TIP3   OH227856   2.152   3.665   1.887  0.2933 -0.2371  0.1088
 2122TIP3    H127857   2.209   3.674   1.963 -0.7546  0.5306  0.8337
 2122TIP3    H227858   2.157   3.750   1.842  0.4155 -0.4691 -0.3255
 2123TIP3   OH227859   4.879   4.943  15.638  0.0405  0.5025  0.0716
 2123TIP3    H127860   4.916   4.877  15.697 -1.3334  0.7899  1.2832
 2123TIP3    H227861   4.940   5.017  15.643 -0.3760  0.7700  1.6527
 2124TIP3   OH227862   1.782   0.970  14.460  0.1594 -0.0467  0.4413
 2124TIP3    H127863   1.773   0.998  14.551  1.5803 -0.1909  0.6453
 2124TIP3    H227864   1.768   0.876  14.462  0.3597 -0.0738  0.5335
 2125TIP3   OH227865   5.620   0.040  12.336  0.7504  0.3556 -0.3058
 2125TIP3    H127866   5.528   0.019  12.320  0.4874  1.7427 -0.7622
 2125TIP3    H227867   5.641  -0.006  12.417 -0.3159 -0.0683 -0.2469
 2126TIP3   OH227868   3.504   2.611  17.083  0.1692 -0.4205 -0.5007
 2126TIP3    H127869   3.579   2.652  17.041  0.2855  2.0480  1.8379
 2126TIP3    H227870   3.429   2.663  17.053  0.1556  0.7939  1.4520
 2127TIP3   OH227871   6.690   1.380   3.189 -0.2709 -0.0780 -0.3647
 2127TIP3    H127872   6.780   1.406   3.207 -0.7892  1.7354 -0.1495
 2127TIP3    H227873   6.646   1.388   3.274 -1.0020  0.8154 -0.8041
 2128TIP3   OH227874   4.174   6.097  16.839  0.2487  0.1944 -0.8808
 2128TIP3    H127875   4.260   6.125  16.869  0.7475  0.7894 -2.7467
 2128TIP3    H227876   4.171   6.003  16.856 -0.3090  0.7477  2.8057
 2129TIP3   OH227877   3.095   2.470   3.812 -0.6313 -0.0891  0.1938
 2129TIP3    H127878   3.068   2.386   3.849  1.0672 -0.1856  1.3198
 2129TIP3    H227879   3.176   2.451   3.765  0.4711  1.0942  1.5137
 2130TIP3   OH227880   3.167   1.373  12.010  0.1810  0.6478 -0.0846
 2130TIP3    H127881   3.175   1.327  11.926  0.9741  0.2770  0.1897
 2130TIP3    H227882   3.222   1.451  11.999  0.7092  0.3352  0.2606
 2131TIP3   OH227883   4.537   4.037   1.381 -0.1981 -0.1084 -0.3493
 2131TIP3    H127884   4.501   4.104   1.440  0.0871 -0.6807  0.4867
 2131TIP3    H227885   4.512   3.954   1.422  1.7330 -0.5230  0.0624
 2132TIP3   OH227886   0.276   6.245   6.136 -0.5755  0.9938  0.2650
 2132TIP3    H127887   0.196   6.249   6.188 -0.3459 -0.2429  0.7630
 2132TIP3    H227888   0.252   6.281   6.051 -1.8849 -0.1137  0.1385
 2133TIP3   OH227889   5.880   2.125  11.287 -0.1340  0.1131  0.3316
 2133TIP3    H127890   5.838   2.196  11.336 -1.9894 -0.7954  0.1467
 2133TIP3    H227891   5.904   2.061  11.353  1.4577  0.8373  0.4887
 2134TIP3   OH227892   0.396   5.329   5.958  0.2575 -0.3848  0.1185
 2134TIP3    H127893   0.463   5.397   5.949  0.6664 -0.8753 -0.7334
 2134TIP3    H227894   0.440   5.256   6.001 -0.1395 -0.1754  0.8954
 2135TIP3   OH227895   3.328   3.379   1.938 -0.0119 -0.0045  0.1680
 2135TIP3    H127896   3.272   3.405   1.865  0.2984 -0.4310 -0.2295
 2135TIP3    H227897   3.315   3.284   1.946  3.0378 -0.7709 -2.0658
 2136TIP3   OH227898   0.679   0.860  16.686  0.4703 -0.1932 -0.5795
 2136TIP3    H127899   0.663   0.891  16.775  0.9551 -0.3754 -0.4287
 2136TIP3    H227900   0.610   0.795  16.671  1.1921 -1.1664  0.1662
 2137TIP3   OH227901   1.782   2.410  14.387 -0.1655  0.1518  0.0891
 2137TIP3    H127902   1.716   2.342  14.373 -0.0905  0.2170 -0.6744
 2137TIP3    H227903   1.840   2.402  14.311  1.0065 -0.2316  0.9953
 2138TIP3   OH227904   2.752   1.604  14.725  0.2917 -0.3380  0.2499
 2138TIP3    H127905   2.821   1.550  14.765 -0.3156 -1.2636  0.0631
 2138TIP3    H227906   2.789   1.632  14.641  0.4929 -0.7188  0.2115
 2139TIP3   OH227907   4.120   1.163   3.366  0.0796  0.0085 -0.1613
 2139TIP3    H127908   4.047   1.215   3.399 -0.2220 -0.0626 -0.7049
 2139TIP3    H227909   4.095   1.140   3.276  0.4696 -0.5785 -0.1286
 2140TIP3   OH227910   5.753   5.304  16.711 -0.5655 -0.0191 -0.2617
 2140TIP3    H127911   5.760   5.306  16.807 -0.3361 -0.7391 -0.2541
 2140TIP3    H227912   5.823   5.245  16.683 -0.5050  0.3482 -0.8883
 2141TIP3   OH227913   6.847   6.712   0.520  0.1038 -0.5805 -0.1861
 2141TIP3    H127914   6.813   6.663   0.446  1.7077  0.2570 -1.5412
 2141TIP3    H227915   6.819   6.662   0.597 -0.0559 -2.4763 -1.4168
 2142TIP3   OH227916   6.183   6.382  13.801 -0.4057 -0.0151 -0.1285
 2142TIP3    H127917   6.158   6.318  13.735 -1.6674 -0.7807  1.0115
 2142TIP3    H227918   6.121   6.454  13.790  1.8201  1.7345 -2.2665
 2143TIP3   OH227919   0.666   3.981   5.809  0.1531 -0.0930  0.0610
 2143TIP3    H127920   0.668   3.931   5.890 -0.8274  1.4086  1.0586
 2143TIP3    H227921   0.746   3.956   5.763  1.7238  0.4097  2.3423
 2144TIP3   OH227922   0.124   2.056  11.649 -0.1990 -0.5168  0.2765
 2144TIP3    H127923   0.203   2.107  11.630  0.7823 -1.6646  1.0559
 2144TIP3    H227924   0.058   2.091  11.590  0.7721  0.7752 -0.1016
 2145TIP3   OH227925   3.535   1.474  12.849  0.0106 -0.0439  0.2783
 2145TIP3    H127926   3.577   1.418  12.915 -1.3383 -2.1636 -0.5470
 2145TIP3    H227927   3.588   1.554  12.848  2.2231 -1.3953  1.3294
 2146TIP3   OH227928   5.045   0.872   3.048  0.1888  0.1573  0.7378
 2146TIP3    H127929   5.015   0.922   2.972 -2.8983  0.4498  2.0019
 2146TIP3    H227930   5.071   0.939   3.112  0.8664 -0.0365  0.6764
 2147TIP3   OH227931   1.729   0.635   0.482  0.1653 -0.2345 -0.5986
 2147TIP3    H127932   1.667   0.602   0.417 -0.0075 -1.4142  0.1327
 2147TIP3    H227933   1.815   0.620   0.443  0.0822 -1.4924 -0.3268
 2148TIP3   OH227934   6.702   0.297   0.969  0.4747  0.2082 -0.2335
 2148TIP3    H127935   6.659   0.214   0.950 -1.0345  0.3787  2.1151
 2148TIP3    H227936   6.706   0.341   0.884 -1.0160 -1.1974 -1.0940
 2149TIP3   OH227937   3.666   4.656   2.426  0.0567  0.2664  0.2738
 2149TIP3    H127938   3.584   4.667   2.475 -0.0940 -1.4085  0.4501
 2149TIP3    H227939   3.735   4.666   2.492 -0.1459 -1.9807  0.9075
 2150TIP3   OH227940   1.855   4.801   2.741 -0.2529 -0.4546  0.2590
 2150TIP3    H127941   1.763   4.791   2.765 -0.6711 -0.9119 -1.4059
 2150TIP3    H227942   1.903   4.754   2.809 -1.1188  1.0367  1.9838
 2151TIP3   OH227943   5.475   6.622   4.544 -0.1030 -0.3884 -0.4545
 2151TIP3    H127944   5.459   6.565   4.469 -0.4419  0.2489 -0.8744
 2151TIP3    H227945   5.410   6.595   4.609 -0.0203 -0.7242 -0.5093
 2152TIP3   OH227946   5.510   5.663  16.733  0.6111  0.7354 -0.1187
 2152TIP3    H127947   5.595   5.701  16.710  0.7920  1.0859  1.0695
 2152TIP3    H227948   5.446   5.728  16.704  0.6742  0.1030 -1.7751
 2153TIP3   OH227949   0.376   2.926  16.614 -0.1882 -0.5021  0.1627
 2153TIP3    H127950   0.422   2.961  16.537 -0.3294  1.5343  0.9415
 2153TIP3    H227951   0.444   2.879  16.662  0.4102 -0.0020 -0.1684
 2154TIP3   OH227952   4.642   5.165  14.475 -0.0028  0.1876 -0.2815
 2154TIP3    H127953   4.628   5.201  14.388 -1.2503 -1.4351 -0.8074
 2154TIP3    H227954   4.606   5.231  14.534  0.2982  1.0327 -1.0305
 2155TIP3   OH227955   2.677   4.481  11.495  0.5143  0.0658 -0.7834
 2155TIP3    H127956   2.741   4.428  11.542  1.1980  2.6535  1.4463
 2155TIP3    H227957   2.593   4.457  11.533  0.8531  0.7160  0.4366
 2156TIP3   OH227958   6.305   4.856  11.246 -0.3001  0.2421  0.3783
 2156TIP3    H127959   6.348   4.821  11.324  1.3097  1.8082  0.2840
 2156TIP3    H227960   6.287   4.948  11.268  0.4942  0.8126 -1.1491
 2157TIP3   OH227961   4.321   6.682  15.388  0.2712 -0.2300 -0.0780
 2157TIP3    H127962   4.340   6.630  15.467  0.6657  1.2659  0.8449
 2157TIP3    H227963   4.226   6.686  15.384  0.2112  1.2226  1.4283
 2158TIP3   OH227964   5.786   1.740   1.531  0.1429 -0.3680 -0.0523
 2158TIP3    H127965   5.811   1.648   1.541 -0.5774 -0.7120 -1.1577
 2158TIP3    H227966   5.829   1.767   1.449 -1.1491 -0.2852 -0.7213
 2159TIP3   OH227967   0.473   2.514   2.873 -0.3942  0.0509  0.3146
 2159TIP3    H127968   0.559   2.534   2.835  0.9377 -1.0087  2.5327
 2159TIP3    H227969   0.430   2.459   2.807  0.4272  0.9356 -1.0129
 2160TIP3   OH227970   3.628   5.475  11.231 -0.0975  0.1226  0.4207
 2160TIP3    H127971   3.669   5.507  11.150  2.2543  0.2145  1.5740
 2160TIP3    H227972   3.698   5.429  11.277 -0.9707  1.2848  3.0893
 2161TIP3   OH227973   3.332   2.285   6.027 -0.1359  0.1620  0.3270
 2161TIP3    H127974   3.336   2.248   6.115 -0.7800  1.8030  1.0812
 2161TIP3    H227975   3.403   2.349   6.025  1.6633 -1.7613 -1.3222
 2162TIP3   OH227976   1.862   4.091  16.156  0.0502 -0.0300  0.4813
 2162TIP3    H127977   1.769   4.097  16.177  0.2667  0.4279  1.3395
 2162TIP3    H227978   1.871   4.005  16.113 -0.8339  0.1172 -0.0273
 2163TIP3   OH227979   6.711   1.237  13.823  0.3270  0.6391 -0.5339
 2163TIP3    H127980   6.648   1.309  13.830  0.5018  0.8981 -1.5073
 2163TIP3    H227981   6.672   1.167  13.875 -1.1023  0.5759 -1.6057
 2164TIP3   OH227982   0.364   3.964   3.151 -0.6510 -0.3543 -0.3787
 2164TIP3    H127983   0.429   4.034   3.152 -1.2118  0.1674 -0.1899
 2164TIP3    H227984   0.376   3.919   3.234  0.1035 -0.8545 -0.7500
 2165TIP3   OH227985   1.760   3.741   3.584  0.4182 -0.0769  0.6292
 2165TIP3    H127986   1.729   3.657   3.549  1.2098 -0.7061  1.3736
 2165TIP3    H227987   1.759   3.800   3.509 -0.7901 -0.5593  0.2313
 2166TIP3   OH227988   1.382   0.313  12.533  0.4159 -0.6573 -0.5215
 2166TIP3    H127989   1.426   0.313  12.448  1.6411 -1.0873  0.0952
 2166TIP3    H227990   1.290   0.332  12.512  0.5987 -1.2285 -1.9798
 2167TIP3   OH227991   5.439   2.254   1.427  0.3811  0.2931 -0.0353
 2167TIP3    H127992   5.364   2.222   1.377  0.4462  0.8147 -0.4809
 2167TIP3    H227993   5.415   2.238   1.519 -0.7428  1.3860 -0.1092
 2168TIP3   OH227994   2.787   3.654   4.259  0.0981  0.0491 -0.4289
 2168TIP3    H127995   2.838   3.579   4.230 -0.6106 -0.7814  0.3848
 2168TIP3    H227996   2.752   3.627   4.344 -1.1989  0.8125 -0.6985
 2169TIP3   OH227997   3.785   3.752  13.109  0.5255 -0.2644 -0.2401
 2169TIP3    H127998   3.706   3.788  13.067  0.3632 -0.2674  0.0609
 2169TIP3    H227999   3.788   3.794  13.195 -0.4057 -1.9248  0.6611
 2170TIP3   OH228000   4.302   1.764  16.348  0.1686 -0.1339  0.1470
 2170TIP3    H128001   4.377   1.805  16.306  0.0163 -0.3100 -0.3088
 2170TIP3    H228002   4.331   1.745  16.437  0.1252  1.2670  0.4785
 2171TIP3   OH228003   4.306   3.989  12.344 -0.0668 -0.1612 -0.4920
 2171TIP3    H128004   4.361   4.050  12.294  0.1258 -0.1165 -0.2265
 2171TIP3    H228005   4.265   3.935  12.277  0.5329 -0.3885 -0.6861
 2172TIP3   OH228006   0.064   2.396   4.686 -0.2732 -0.5974  0.0303
 2172TIP3    H128007   0.005   2.448   4.741 -0.8721  0.7716 -1.8256
 2172TIP3    H228008   0.012   2.319   4.661  0.0413 -1.2882  1.4046
 2173TIP3   OH228009   5.835   3.275  14.864  0.5322  0.2048 -0.1457
 2173TIP3    H128010   5.891   3.345  14.898 -1.3046  1.7765 -0.1570
 2173TIP3    H228011   5.761   3.321  14.823 -1.0296 -1.7435  0.3124
 2174TIP3   OH228012   4.724   2.634  10.548  0.0092  0.1891 -0.2540
 2174TIP3    H128013   4.797   2.695  10.561 -0.1122 -0.0521  1.9457
 2174TIP3    H228014   4.647   2.690  10.538  0.2118  0.4213 -0.5120
 2175TIP3   OH228015   0.271   4.545  11.288 -0.3740  0.0329  0.1841
 2175TIP3    H128016   0.245   4.592  11.367 -0.2014  0.6794 -0.1391
 2175TIP3    H228017   0.344   4.490  11.316 -0.8377 -0.3575  0.6572
 2176TIP3   OH228018   5.641   3.652  15.200  0.5439 -0.1262  0.2114
 2176TIP3    H128019   5.664   3.560  15.186 -1.0544 -0.4699 -0.4312
 2176TIP3    H228020   5.546   3.653  15.193  0.5667  1.6464 -0.1604
 2177TIP3   OH228021   1.721   4.841  11.765 -0.7696  0.2311  0.0844
 2177TIP3    H128022   1.647   4.831  11.705 -0.0780  0.2370 -0.7890
 2177TIP3    H228023   1.758   4.927  11.745  0.1559 -0.2340 -0.2887
 2178TIP3   OH228024   5.824   4.669   2.923 -0.2574 -0.4625 -0.2277
 2178TIP3    H128025   5.787   4.583   2.944  0.7054 -1.0521 -0.8641
 2178TIP3    H228026   5.829   4.670   2.827  1.6584 -0.5634 -0.1776
 2179TIP3   OH228027   6.061   5.189  13.421 -0.3328  0.0302  0.7364
 2179TIP3    H128028   5.978   5.145  13.403 -1.2528  1.2675  1.7786
 2179TIP3    H228029   6.118   5.161  13.349 -1.9577 -0.0597 -0.5982
 2180TIP3   OH228030   2.286   0.795   3.757 -0.2194 -0.2825 -0.4543
 2180TIP3    H128031   2.287   0.704   3.788 -0.5827  0.1976  1.0427
 2180TIP3    H228032   2.196   0.809   3.727 -0.4558 -0.0895  0.3415
 2181TIP3   OH228033   0.166   0.137  15.540 -0.4846  0.4440 -0.1112
 2181TIP3    H128034   0.205   0.153  15.626  0.0889 -0.4439 -0.1913
 2181TIP3    H228035   0.215   0.192  15.480 -1.5293  1.8307  0.2419
 2182TIP3   OH228036   2.457   1.573  12.663 -0.2117 -0.2956  0.4631
 2182TIP3    H128037   2.443   1.627  12.585 -0.1997  0.6935  1.1240
 2182TIP3    H228038   2.449   1.634  12.736 -1.0598 -1.3461  1.2916
 2183TIP3   OH228039   5.101   3.079  13.686 -0.1932  0.0777  0.2749
 2183TIP3    H128040   5.125   3.008  13.745 -1.3574 -0.5706 -0.0080
 2183TIP3    H228041   5.185   3.114  13.656  0.4320 -1.8560 -0.3986
 2184TIP3   OH228042   2.871   3.581  15.959 -0.6065  0.5659 -0.3772
 2184TIP3    H128043   2.964   3.561  15.959 -0.4704  1.1776 -0.9914
 2184TIP3    H228044   2.853   3.616  16.046 -0.2516  0.5092 -0.2810
 2185TIP3   OH228045   3.763   6.515   2.508 -0.0905  0.0340  0.0236
 2185TIP3    H128046   3.690   6.565   2.472 -0.0865 -1.0318 -1.5791
 2185TIP3    H228047   3.841   6.561   2.477 -0.0770  0.2627  0.3908
 2186TIP3   OH228048   5.093   4.516  16.249  1.0240  0.2423  0.2599
 2186TIP3    H128049   5.056   4.433  16.278 -0.0845  1.0586  1.2802
 2186TIP3    H228050   5.020   4.561  16.206  1.9414  0.1948 -1.4580
 2187TIP3   OH228051   1.337   1.834  15.688 -0.2181 -0.1026  0.1148
 2187TIP3    H128052   1.340   1.806  15.596 -1.4729 -1.1780  0.3774
 2187TIP3    H228053   1.338   1.930  15.683 -1.0692 -0.1234 -1.0820
 2188TIP3   OH228054   5.189   2.306  15.971  0.4525 -0.3490 -0.1710
 2188TIP3    H128055   5.113   2.345  15.927  1.1542  1.6482  0.2553
 2188TIP3    H228056   5.234   2.256  15.903  0.3222  0.8882 -1.2072
 2189TIP3   OH228057   2.691   5.118  16.333 -0.5778  0.4068 -0.2342
 2189TIP3    H128058   2.690   5.032  16.374 -2.4695 -0.5792 -2.1525
 2189TIP3    H228059   2.669   5.179  16.404  3.2223 -0.2256  1.7602
 2190TIP3   OH228060   0.671   2.731   6.316  0.1328 -0.1038 -0.0413
 2190TIP3    H128061   0.709   2.643   6.321  0.5725  0.1001  4.0276
 2190TIP3    H228062   0.747   2.789   6.314 -0.1455  0.3362 -3.4822
 2191TIP3   OH228063   5.848   4.842   1.023  0.5529 -0.0795  0.3254
 2191TIP3    H128064   5.781   4.802   1.079  1.6270  1.1536  2.6230
 2191TIP3    H228065   5.900   4.768   0.992  1.1960 -0.7372  2.7335
 2192TIP3   OH228066   3.649   0.059  14.946  0.0619  0.2409  0.2330
 2192TIP3    H128067   3.702   0.086  15.021 -0.4354  0.9497  0.3407
 2192TIP3    H228068   3.707   0.069  14.870  0.2384  0.5129  0.4038
 2193TIP3   OH228069   5.392   0.723   0.271  0.0823  0.6629  0.3075
 2193TIP3    H128070   5.461   0.704   0.334  0.9227 -2.3156 -1.3131
 2193TIP3    H228071   5.435   0.777   0.205  0.4088  0.2214  0.1544
 2194TIP3   OH228072   2.753   0.541   2.850  0.5665 -0.1928 -0.6781
 2194TIP3    H128073   2.758   0.571   2.941  1.9570 -1.9574 -0.1196
 2194TIP3    H228074   2.788   0.453   2.852 -1.5005 -1.1652 -2.5713
 2195TIP3   OH228075   4.272   3.088  14.890  0.0697  0.2439 -0.2330
 2195TIP3    H128076   4.351   3.138  14.913  0.7722 -0.6324 -0.6733
 2195TIP3    H228077   4.201   3.151  14.897  1.0187  1.5116 -1.4972
 2196TIP3   OH228078   2.080   6.365   2.264 -0.0384  0.8301 -0.4660
 2196TIP3    H128079   2.050   6.411   2.185 -2.1981  0.5988  0.1617
 2196TIP3    H228080   2.039   6.279   2.258  0.7938  0.3677  0.3181
 2197TIP3   OH228081   6.540   2.051   2.445 -0.1186  0.0288  0.2519
 2197TIP3    H128082   6.485   1.984   2.405 -0.8163  0.3826  0.6128
 2197TIP3    H228083   6.487   2.088   2.515  0.6135  0.3117  0.6665
 2198TIP3   OH228084   1.809   1.087   0.510  0.3886  0.7585  0.2329
 2198TIP3    H128085   1.900   1.064   0.525  0.6057  0.8959 -0.7969
 2198TIP3    H228086   1.812   1.171   0.465 -0.2717  1.0272  0.6701
 2199TIP3   OH228087   0.942   0.267   3.042 -0.2675  0.2734 -0.1121
 2199TIP3    H128088   1.001   0.340   3.065  1.6481 -0.8532 -1.1878
 2199TIP3    H228089   0.907   0.291   2.956 -0.5820  0.4552  0.0630
 2200TIP3   OH228090   3.149   6.703   4.648 -0.6263 -0.6106  0.3257
 2200TIP3    H128091   3.093   6.643   4.599  0.8100 -1.4566 -0.3442
 2200TIP3    H228092   3.233   6.701   4.602 -0.0931  0.7907  1.1656
 2201TIP3   OH228093   4.317   6.455  15.570  0.0495  0.1422  0.3806
 2201TIP3    H128094   4.282   6.415  15.490 -0.0351 -1.2737  1.0972
 2201TIP3    H228095   4.354   6.382  15.619 -1.6178  0.6362  2.5365
 2202TIP3   OH228096   3.212   2.468  13.794  0.6661 -0.0537 -0.1637
 2202TIP3    H128097   3.212   2.485  13.700  0.6021  0.0321 -0.1486
 2202TIP3    H228098   3.235   2.376  13.802 -4.8406 -1.7886 -0.5644
 2203TIP3   OH228099   2.063   4.185  17.007  0.1388  0.3455  0.7404
 2203TIP3    H128100   1.977   4.227  17.017 -0.2318  0.6151 -2.4784
 2203TIP3    H228101   2.042   4.096  16.979  0.9490 -0.3297  2.1894
 2204TIP3   OH228102   3.851   6.428  12.283 -0.5774 -0.0714  0.3298
 2204TIP3    H128103   3.928   6.478  12.255 -0.7538 -0.9486 -1.8631
 2204TIP3    H228104   3.883   6.338  12.293 -0.9749 -0.1398  1.0366
 2205TIP3   OH228105   6.839   3.340   3.942  0.4649  0.6408 -0.5526
 2205TIP3    H128106   6.894   3.377   4.011  0.2812  1.1506 -0.6751
 2205TIP3    H228107   6.886   3.261   3.914  1.2008  1.1409 -0.7562
 2206TIP3   OH228108   5.333   2.605  15.041 -0.3014 -0.0946 -0.8447
 2206TIP3    H128109   5.333   2.591  14.947  0.1855 -0.8989 -0.7353
 2206TIP3    H228110   5.396   2.541  15.075  1.4694  1.8943 -0.2053
 2207TIP3   OH228111   3.473   4.105   4.047 -0.7230 -0.6898 -0.3979
 2207TIP3    H128112   3.399   4.164   4.057 -1.8493 -2.2212  0.6998
 2207TIP3    H228113   3.511   4.099   4.135 -0.6457 -1.6063 -0.4869
 2208TIP3   OH228114   2.696   4.775   3.629 -0.2804 -0.8211 -0.2163
 2208TIP3    H128115   2.764   4.707   3.633  1.9387  1.2610 -0.3919
 2208TIP3    H228116   2.701   4.818   3.714  1.3786  1.7779 -1.5160
 2209TIP3   OH228117   5.650   6.782   5.199 -0.1285  0.7349 -0.2856
 2209TIP3    H128118   5.613   6.822   5.278 -1.7659 -0.9859 -0.1215
 2209TIP3    H228119   5.586   6.802   5.130 -0.4159 -0.6167 -0.4286
 2210TIP3   OH228120   4.516   1.826  12.845 -0.1802 -0.1079  0.2642
 2210TIP3    H128121   4.500   1.768  12.772 -1.1520 -1.0416  1.1907
 2210TIP3    H228122   4.570   1.775  12.905  3.6266  1.7681 -1.2124
 2211TIP3   OH228123   3.629   1.716  13.578 -0.2433 -0.2481  0.4994
 2211TIP3    H128124   3.550   1.698  13.629  0.1503 -2.0353  0.5146
 2211TIP3    H228125   3.597   1.739  13.491 -0.9202  2.7349  1.4021
 2212TIP3   OH228126   4.096   3.982  15.729 -0.2491 -0.0075  0.2120
 2212TIP3    H128127   4.129   3.894  15.711  0.0755  0.2082 -0.2581
 2212TIP3    H228128   4.171   4.040  15.717 -0.3178  0.2818  1.0776
 2213TIP3   OH228129   5.271   3.133  12.012 -0.0158 -0.0415  0.3475
 2213TIP3    H128130   5.282   3.060  11.953  2.0831  1.0111 -0.6684
 2213TIP3    H228131   5.177   3.137  12.029 -0.3845 -1.7468 -1.0944
 2214TIP3   OH228132   0.372   6.371   3.577  0.1208 -1.1300  0.2149
 2214TIP3    H128133   0.354   6.322   3.658  3.3287 -0.4254  1.4852
 2214TIP3    H228134   0.433   6.316   3.528 -1.8430 -1.5861 -1.9123
 2215TIP3   OH228135   0.835   1.590  15.244  0.2411 -0.0238  0.9130
 2215TIP3    H128136   0.742   1.603  15.225 -0.1101  0.5367  2.8035
 2215TIP3    H228137   0.881   1.652  15.186 -0.7552  1.6730  1.8586
 2216TIP3   OH228138   6.218   6.783   2.333 -0.0386 -0.5476  0.0531
 2216TIP3    H128139   6.164   6.708   2.307 -1.7882  0.1928  1.3841
 2216TIP3    H228140   6.174   6.859   2.295 -0.2348  0.1147  1.5479
 2217TIP3   OH228141   2.293   3.075   1.880 -0.6641  0.0168  0.8470
 2217TIP3    H128142   2.340   3.152   1.847 -1.3465 -0.8893 -2.6748
 2217TIP3    H228143   2.352   3.037   1.944  0.8313  2.0377  0.7897
 2218TIP3   OH228144   1.987   4.334   1.079  0.5155  0.0527  0.4135
 2218TIP3    H128145   1.997   4.379   0.996 -1.0611 -0.6553 -0.1869
 2218TIP3    H228146   2.006   4.401   1.145 -0.4244  1.2319 -0.4732
 2219TIP3   OH228147   5.041   3.856   1.450 -0.1200 -0.1895  0.0459
 2219TIP3    H128148   4.982   3.899   1.387 -0.6664 -0.5404  0.3092
 2219TIP3    H228149   4.999   3.870   1.534  2.1236  2.9874  0.8162
 2220TIP3   OH228150   2.641   4.427   0.675 -0.3898 -0.0571  0.5366
 2220TIP3    H128151   2.626   4.406   0.583  1.2538  2.6075 -0.4827
 2220TIP3    H228152   2.572   4.490   0.696 -0.2235  0.0359  0.8068
 2221TIP3   OH228153   6.713   1.913  14.904 -0.0748  0.1609  0.2882
 2221TIP3    H128154   6.716   2.002  14.869 -3.2523 -0.1313 -1.0840
 2221TIP3    H228155   6.693   1.858  14.828  0.0328 -1.5074  1.4043
 2222TIP3   OH228156   1.710   0.425  12.545  0.2131 -0.6032 -0.4217
 2222TIP3    H128157   1.622   0.405  12.515  0.7877 -1.5218 -1.5760
 2222TIP3    H228158   1.712   0.394  12.636 -0.5457 -0.8995 -0.5010
 2223TIP3   OH228159   3.214   1.477   0.358 -0.3017 -0.3311 -1.0577
 2223TIP3    H128160   3.149   1.440   0.417 -2.5479 -0.2072 -3.2693
 2223TIP3    H228161   3.275   1.523   0.415 -1.2565 -1.7550  1.2456
 2224TIP3   OH228162   0.822   3.894   3.688 -0.1734 -0.4588 -0.1033
 2224TIP3    H128163   0.731   3.906   3.660  0.0012 -0.6763 -0.7996
 2224TIP3    H228164   0.832   3.799   3.695  0.0932 -0.4504 -0.3568
 2225TIP3   OH228165   5.068   2.194  14.686 -0.5336 -0.0858  0.5326
 2225TIP3    H128166   4.982   2.218  14.651  0.4365  1.4469 -0.9003
 2225TIP3    H228167   5.073   2.240  14.770 -0.9478  0.1589  0.4257
 2226TIP3   OH228168   3.459   0.397   6.839  0.2928 -0.2384 -0.1790
 2226TIP3    H128169   3.538   0.436   6.877  1.1132 -1.2670 -0.7521
 2226TIP3    H228170   3.474   0.303   6.846 -0.1267 -0.4512 -1.7916
 2227TIP3   OH228171   2.200   6.811  16.917  0.3624  0.0800  0.3033
 2227TIP3    H128172   2.220   6.765  16.999  2.4429 -0.0532 -0.2028
 2227TIP3    H228173   2.235   6.899  16.930 -0.6595  0.5290  0.0834
 2228TIP3   OH228174   0.349   5.097  12.527  0.8427 -0.0978 -0.0263
 2228TIP3    H128175   0.291   5.116  12.454  1.0720  1.7325  0.2225
 2228TIP3    H228176   0.437   5.109  12.492  0.9581  0.6747  0.4972
 2229TIP3   OH228177   6.016   6.607  14.914  0.0588 -0.1445  0.5875
 2229TIP3    H128178   5.963   6.635  14.840  1.5176  0.0182 -0.4562
 2229TIP3    H228179   6.008   6.511  14.913 -1.3495 -0.0544  1.3593
 2230TIP3   OH228180   4.580   4.360   1.976  0.1870  0.1726 -0.1692
 2230TIP3    H128181   4.495   4.366   1.932 -0.6066 -1.4934  1.0266
 2230TIP3    H228182   4.563   4.390   2.065  0.4009 -1.7142  0.5621
 2231TIP3   OH228183   0.119   2.542   3.325  0.2392  0.0989  0.3340
 2231TIP3    H128184   0.108   2.465   3.381 -1.3404 -0.5103 -0.7534
 2231TIP3    H228185   0.190   2.519   3.266 -1.4357 -1.3493 -1.2253
 2232TIP3   OH228186   2.023   1.373   1.828 -0.1087 -0.1900 -0.2090
 2232TIP3    H128187   1.962   1.303   1.851  0.2380 -0.2443  0.5995
 2232TIP3    H228188   1.994   1.448   1.881  0.3960 -0.1537  0.0246
 2233TIP3   OH228189   6.723   5.410   5.597 -0.3251  0.5107 -0.7310
 2233TIP3    H128190   6.762   5.466   5.665  1.0746 -0.8565 -0.3740
 2233TIP3    H228191   6.653   5.363   5.643  1.5268 -1.4774  0.2285
 2234TIP3   OH228192   4.555   5.887   4.207  0.2553  0.1463 -0.0766
 2234TIP3    H128193   4.580   5.809   4.256 -2.3368 -0.1194  0.9937
 2234TIP3    H228194   4.535   5.953   4.275  1.4838  1.4508 -0.9364
 2235TIP3   OH228195   5.893   1.790  14.182  0.6381 -0.1744  0.2036
 2235TIP3    H128196   5.848   1.765  14.101 -0.8243 -0.1653  0.9814
 2235TIP3    H228197   5.875   1.719  14.243 -0.3977  0.9599  1.2785
 2236TIP3   OH228198   1.996   3.261   3.010  0.7263  0.3499  0.0801
 2236TIP3    H128199   2.006   3.338   3.066  2.4829  0.0741  0.2147
 2236TIP3    H228200   2.086   3.237   2.987  0.1072  0.0875 -2.3695
 2237TIP3   OH228201   4.720   1.519   0.169  0.3764 -0.6044 -0.6488
 2237TIP3    H128202   4.732   1.505   0.263 -2.2295 -0.6358 -0.2525
 2237TIP3    H228203   4.747   1.609   0.154 -0.5868 -0.1166  0.4360
 2238TIP3   OH228204   2.526   2.414  14.707 -0.9049  0.2675  0.2654
 2238TIP3    H128205   2.548   2.402  14.614  2.1352  0.1521  0.9088
 2238TIP3    H228206   2.460   2.348  14.724 -0.3737 -0.7856 -1.4739
 2239TIP3   OH228207   3.328   3.218   5.205 -0.4755 -0.5514  0.5830
 2239TIP3    H128208   3.284   3.141   5.244 -0.5062 -0.5562  0.5389
 2239TIP3    H228209   3.414   3.185   5.180 -0.2687 -0.4223  1.1085
 2240TIP3   OH228210   2.668   2.096   2.992  0.1277 -0.2011 -0.5501
 2240TIP3    H128211   2.676   2.180   3.038  0.6611 -0.2213 -0.6060
 2240TIP3    H228212   2.746   2.048   3.017 -0.9248 -1.3127  0.7522
 2241TIP3   OH228213   4.092   0.371  15.281 -0.5256 -0.3342 -0.1288
 2241TIP3    H128214   4.062   0.383  15.371 -0.3707  2.0636 -0.3479
 2241TIP3    H228215   4.186   0.389  15.284 -0.5109 -0.2704 -0.7676
 2242TIP3   OH228216   3.166   0.756  10.884  0.1471 -0.1387 -0.1043
 2242TIP3    H128217   3.104   0.695  10.923  0.8384 -0.5246  0.4026
 2242TIP3    H228218   3.176   0.725  10.794  0.3616 -0.6783  0.1009
 2243TIP3   OH228219   5.843   6.727   0.418 -0.1126 -0.0794 -0.2066
 2243TIP3    H128220   5.822   6.646   0.372  0.7746 -0.4661  0.0512
 2243TIP3    H228221   5.923   6.707   0.467 -0.3747  0.6776  0.5664
 2244TIP3   OH228222   6.435   5.763  16.452 -0.4914  0.8078 -0.5467
 2244TIP3    H128223   6.429   5.753  16.547 -3.5601 -0.9910 -0.7837
 2244TIP3    H228224   6.422   5.857  16.437 -0.2781  1.0668  0.7977
 2245TIP3   OH228225   2.881   2.041   0.453  0.5473  0.8369  0.4889
 2245TIP3    H128226   2.872   2.136   0.456  2.3553  1.0232  1.3443
 2245TIP3    H228227   2.792   2.007   0.464 -0.7689  2.3948 -3.5342
 2246TIP3   OH228228   2.905   3.198   3.648 -0.5546  0.5631  0.0401
 2246TIP3    H128229   2.946   3.170   3.567  0.2655  0.6705  0.4091
 2246TIP3    H228230   2.879   3.289   3.632  1.7606  1.4117  0.6541
 2247TIP3   OH228231   6.843   0.900  10.283  0.1356 -0.4713  0.4041
 2247TIP3    H128232   6.761   0.851  10.284 -0.6761  0.8253  0.9738
 2247TIP3    H228233   6.816   0.991  10.297  1.4851  0.2867 -1.4762
 2248TIP3   OH228234   5.227   1.890  11.858 -0.3081  0.4990  0.0037
 2248TIP3    H128235   5.297   1.952  11.837 -1.8143  2.0996 -0.6282
 2248TIP3    H228236   5.177   1.934  11.927  0.6801 -1.7236  2.2723
 2249TIP3   OH228237   3.738   4.309   3.154  0.0262  0.0373 -0.4169
 2249TIP3    H128238   3.718   4.391   3.198  0.1941 -0.1575  0.0344
 2249TIP3    H228239   3.715   4.241   3.218  1.8314 -0.2103  0.0173
 2250TIP3   OH228240   0.873   5.533  13.837 -0.3245 -0.0712  0.9548
 2250TIP3    H128241   0.870   5.511  13.744  1.4151  0.6039  0.6901
 2250TIP3    H228242   0.852   5.451  13.882 -3.6858  0.1462  0.0249
 2251TIP3   OH228243   2.376   0.704  16.524 -0.1689 -0.2148 -0.3163
 2251TIP3    H128244   2.401   0.613  16.512 -0.0937 -0.0432 -1.5769
 2251TIP3    H228245   2.458   0.753  16.519 -0.4750  0.1598 -2.4253
 2252TIP3   OH228246   2.384   1.116  13.001 -0.1596 -0.4642  0.0191
 2252TIP3    H128247   2.429   1.098  13.083  0.0437 -0.1516 -0.0213
 2252TIP3    H228248   2.415   1.203  12.975 -2.0025  0.4889  0.8263
 2253TIP3   OH228249   6.622   2.499  11.063 -0.5226  0.5281  0.0497
 2253TIP3    H128250   6.666   2.451  10.993 -1.0613  1.1444 -0.7201
 2253TIP3    H228251   6.539   2.452  11.075 -0.1426  0.0156  0.7563
 2254TIP3   OH228252   4.097   3.748   1.371  1.1987 -0.3812  0.2570
 2254TIP3    H128253   4.099   3.805   1.294  1.6102 -0.3040  0.3242
 2254TIP3    H228254   4.057   3.802   1.439  1.6906 -0.1263  0.3516
 2255TIP3   OH228255   5.150   3.489  13.698 -0.5108  0.2768 -0.0811
 2255TIP3    H128256   5.065   3.462  13.733 -0.3969 -0.2167 -0.1787
 2255TIP3    H228257   5.208   3.415  13.716 -0.4899 -0.0649 -1.4458
 2256TIP3   OH228258   5.050   4.609  12.764  0.3670 -0.0766 -0.3702
 2256TIP3    H128259   5.000   4.673  12.713  1.5730 -0.3144 -1.9276
 2256TIP3    H228260   4.996   4.592  12.840 -0.9687  1.1968 -0.9784
 2257TIP3   OH228261   6.429   2.144   2.016  0.0573  0.6044 -0.1281
 2257TIP3    H128262   6.498   2.091   2.054 -0.1074  0.3892 -0.1264
 2257TIP3    H228263   6.449   2.146   1.923 -0.2305  0.0936 -0.2055
 2258TIP3   OH228264   3.630   6.585   2.877  0.1436 -0.1661 -0.1444
 2258TIP3    H128265   3.551   6.623   2.839 -0.9783 -1.7356  0.4838
 2258TIP3    H228266   3.701   6.643   2.849 -1.2820  1.6007 -0.2593
 2259TIP3   OH228267   3.057   1.817   5.979 -0.4392  0.0599  0.2801
 2259TIP3    H128268   3.112   1.855   6.047  0.5282 -1.2286  0.2540
 2259TIP3    H228269   2.996   1.760   6.027 -0.1794 -0.3533  0.1184
 2260TIP3   OH228270   5.899   0.574  15.090  0.6666  0.2717  0.1712
 2260TIP3    H128271   5.848   0.518  15.148  0.2663  0.6462  0.1918
 2260TIP3    H228272   5.886   0.537  15.003 -0.4959  0.9578  0.0324
 2261TIP3   OH228273   3.845   3.878  10.150  0.0670  1.1577  0.5083
 2261TIP3    H128274   3.860   3.911  10.061  0.6588  0.3496  0.2903
 2261TIP3    H228275   3.785   3.941  10.189 -1.0480  0.9590 -0.8119
 2262TIP3   OH228276   1.877   4.138   0.538 -0.3963  0.7789 -0.5728
 2262TIP3    H128277   1.902   4.066   0.480  2.7336  0.8762  0.4899
 2262TIP3    H228278   1.784   4.124   0.555  0.2044 -3.4630  0.1884
 2263TIP3   OH228279   2.873   3.801   0.234 -0.3423 -0.2693  0.2811
 2263TIP3    H128280   2.845   3.813   0.325 -0.7335 -0.4137  0.1782
 2263TIP3    H228281   2.822   3.727   0.202  0.2007 -0.5761  0.1108
 2264TIP3   OH228282   6.383   6.694   2.098  0.4635  0.2190 -0.7318
 2264TIP3    H128283   6.309   6.724   2.151 -0.1183 -0.9848 -0.8362
 2264TIP3    H228284   6.460   6.732   2.141 -0.2465  2.2261 -1.1281
 2265TIP3   OH228285   1.776   1.742  12.954 -0.2799  0.1125 -0.1740
 2265TIP3    H128286   1.718   1.816  12.970 -1.7861 -0.6783 -1.6923
 2265TIP3    H228287   1.723   1.665  12.973  0.7832 -0.6119 -0.0880
 2266TIP3   OH228288   2.887   1.118  16.712  0.2913  0.3151  0.6799
 2266TIP3    H128289   2.981   1.125  16.729  0.3732 -0.3796  0.5369
 2266TIP3    H228290   2.875   1.028  16.681 -0.8008 -0.4334  3.0846
 2267TIP3   OH228291   3.280   4.959  15.648 -0.3892  0.3474 -0.1409
 2267TIP3    H128292   3.282   5.027  15.716 -2.6346  1.1183 -0.7501
 2267TIP3    H228293   3.354   4.981  15.591  0.9668  0.2313  1.4969
 2268TIP3   OH228294   3.255   4.603  13.130  0.5941 -1.0211 -0.4636
 2268TIP3    H128295   3.265   4.621  13.036 -0.4900  0.3095 -0.3498
 2268TIP3    H228296   3.293   4.679  13.173  0.7198 -1.4419  0.1828
 2269TIP3   OH228297   6.592   3.635  15.137 -0.3557 -0.1259  0.0461
 2269TIP3    H128298   6.667   3.598  15.091 -0.3160 -0.3818  0.3181
 2269TIP3    H228299   6.518   3.620  15.078 -0.1000  0.6509 -0.4844
 2270TIP3   OH228300   0.277   2.793   2.132  0.9139  0.3312  0.7636
 2270TIP3    H128301   0.214   2.722   2.125  0.2672  1.0773 -2.5224
 2270TIP3    H228302   0.225   2.873   2.123  2.1959  0.9596 -3.7380
 2271TIP3   OH228303   2.027   1.288  15.103 -0.1374  0.0164  0.1423
 2271TIP3    H128304   2.004   1.285  15.010 -0.1742 -0.1898  0.1568
 2271TIP3    H228305   2.107   1.235  15.110  0.0463  0.2938  0.1780
 2272TIP3   OH228306   1.123   4.590  14.173 -0.3228 -0.0700  0.0155
 2272TIP3    H128307   1.193   4.576  14.237 -0.8186  0.9777  0.8134
 2272TIP3    H228308   1.165   4.638  14.101 -0.0166 -0.2638  0.0637
 2273TIP3   OH228309   5.245   5.990  14.429 -0.8522 -0.0665 -0.1392
 2273TIP3    H128310   5.266   5.954  14.343 -0.6998  0.0927 -0.1689
 2273TIP3    H228311   5.165   5.946  14.455 -0.1866 -1.0953  0.2148
 2274TIP3   OH228312   6.085   4.050   1.879 -0.2259 -0.5813 -0.3853
 2274TIP3    H128313   6.118   4.120   1.935  0.8535 -1.6219  0.3355
 2274TIP3    H228314   6.113   4.075   1.791 -0.9626  0.5115 -0.3274
 2275TIP3   OH228315   4.224   0.895   0.188  0.0535 -0.0136  0.4555
 2275TIP3    H128316   4.148   0.953   0.183  0.7170  0.8980  0.7562
 2275TIP3    H228317   4.249   0.880   0.097 -0.9501 -0.9576  0.3191
 2276TIP3   OH228318   4.623   4.963   3.665  0.0071 -0.5490  0.6243
 2276TIP3    H128319   4.638   4.917   3.582  0.6690 -1.3452  1.1587
 2276TIP3    H228320   4.550   5.021   3.648  0.7612  0.0327 -0.8091
 2277TIP3   OH228321   1.204   3.752   1.690 -0.1040  0.1643  0.6770
 2277TIP3    H128322   1.181   3.665   1.724 -1.1668  0.2979  0.3316
 2277TIP3    H228323   1.199   3.742   1.595  0.8904  0.3148  0.6023
 2278TIP3   OH228324   3.535   3.247  15.624 -0.4118  0.1376  0.5911
 2278TIP3    H128325   3.471   3.307  15.586  0.9135  0.6949 -0.8954
 2278TIP3    H228326   3.529   3.168  15.570  0.2932  0.2849  0.2847
 2279TIP3   OH228327   6.330   5.260  11.334  0.1270  0.0383  0.4856
 2279TIP3    H128328   6.297   5.252  11.244  0.4848 -1.4834  0.4691
 2279TIP3    H228329   6.282   5.193  11.383 -0.0036  0.7940  1.4303
 2280TIP3   OH228330   4.337   4.178   5.619 -0.0292  0.8802  0.1876
 2280TIP3    H128331   4.298   4.161   5.533  1.0777  1.1150 -0.3855
 2280TIP3    H228332   4.334   4.094   5.664  1.5493  0.1396 -1.0036
 2281TIP3   OH228333   5.907   5.156  14.114  0.3937 -0.2272 -0.5640
 2281TIP3    H128334   5.997   5.184  14.134  0.0980  1.1390 -1.0469
 2281TIP3    H228335   5.855   5.193  14.185 -0.0399  0.6319 -1.3260
 2282TIP3   OH228336   0.248   0.802  15.432 -0.1798 -0.2346  0.2721
 2282TIP3    H128337   0.180   0.747  15.471  0.0804  0.1714  1.3064
 2282TIP3    H228338   0.206   0.841  15.355 -0.9091 -0.5101  0.5248
 2283TIP3   OH228339   1.517   0.100  16.204  0.1656 -0.1123  0.1428
 2283TIP3    H128340   1.472   0.135  16.127  0.8578 -0.3126 -0.3658
 2283TIP3    H228341   1.505   0.167  16.271 -1.4825 -0.4699  0.2482
 2284TIP3   OH228342   0.534   4.461  11.418 -0.0174 -0.8007 -0.1820
 2284TIP3    H128343   0.511   4.381  11.371 -1.1805 -1.0718  0.7865
 2284TIP3    H228344   0.583   4.431  11.495  1.4335 -0.3985 -0.9081
 2285TIP3   OH228345   4.132   6.168  14.302 -0.3279  0.3074 -0.3514
 2285TIP3    H128346   4.101   6.231  14.238 -0.4606 -0.6883 -1.2970
 2285TIP3    H228347   4.065   6.099  14.304 -0.5815  0.5519  1.2421
 2286TIP3   OH228348   0.882   2.286   3.679 -0.4825 -0.1923 -0.0194
 2286TIP3    H128349   0.803   2.283   3.625  0.1739 -0.8234 -0.9786
 2286TIP3    H228350   0.867   2.358   3.740 -1.7826 -0.2886 -0.2006
 2287TIP3   OH228351   2.266   6.294   3.999 -0.1324  0.4228  0.3310
 2287TIP3    H128352   2.352   6.335   3.994  1.2239 -2.3668 -2.5626
 2287TIP3    H228353   2.222   6.321   3.919 -0.2086 -1.5430 -0.3361
 2288TIP3   OH228354   5.274   4.319   0.164  0.2044  0.0977  0.7080
 2288TIP3    H128355   5.324   4.254   0.115  0.9515  1.1831 -0.0182
 2288TIP3    H228356   5.238   4.271   0.239 -0.0801 -1.3501 -0.3248
 2289TIP3   OH228357   1.046   2.774  16.003 -0.2046 -0.2632 -0.2825
 2289TIP3    H128358   0.968   2.721  15.989  0.1367 -1.0620  0.7364
 2289TIP3    H228359   1.016   2.849  16.055 -0.2006 -0.8824  0.6334
 2290TIP3   OH228360   5.441   0.217   2.626  0.5142  0.1890  0.0031
 2290TIP3    H128361   5.411   0.307   2.643 -1.0696  0.0100 -1.5227
 2290TIP3    H228362   5.519   0.228   2.571  0.4172  0.6419 -0.0549
 2291TIP3   OH228363   6.323   2.136  11.077 -0.3542  0.0111  0.2866
 2291TIP3    H128364   6.237   2.178  11.080 -0.7958 -0.9022  2.9266
 2291TIP3    H228365   6.385   2.208  11.092 -0.6950  0.5145 -0.6246
 2292TIP3   OH228366   0.347   4.583   1.390 -0.0670 -0.3423 -0.2847
 2292TIP3    H128367   0.340   4.621   1.302  1.1887  0.4091 -0.0787
 2292TIP3    H228368   0.306   4.647   1.447 -0.8670 -0.8238 -0.3019
 2293TIP3   OH228369   6.553   0.744  14.553  0.0897  0.3637  0.4615
 2293TIP3    H128370   6.536   0.678  14.620 -1.1181  1.5937  1.4367
 2293TIP3    H228371   6.498   0.818  14.578  0.9712  1.5388 -0.8985
 2294TIP3   OH228372   5.323   0.645   0.835  0.1922 -0.1132 -0.2749
 2294TIP3    H128373   5.317   0.563   0.786  1.0310  0.4452 -1.3628
 2294TIP3    H228374   5.389   0.628   0.902  0.4104 -0.3108 -0.5376
 2295TIP3   OH228375   6.748   2.307   3.778  0.7599  0.1804 -0.1060
 2295TIP3    H128376   6.795   2.248   3.837 -0.6484 -0.1929  0.7157
 2295TIP3    H228377   6.703   2.248   3.717 -0.3025  0.3995  0.4431
 2296TIP3   OH228378   1.139   2.771  15.428 -0.2019 -0.5413  0.5848
 2296TIP3    H128379   1.187   2.848  15.456 -0.3367 -0.4534  0.5766
 2296TIP3    H228380   1.103   2.795  15.343  0.8701 -1.0854 -0.0490
 2297TIP3   OH228381   2.972   4.479   4.443 -0.4773 -0.1312 -0.3221
 2297TIP3    H128382   3.014   4.563   4.426 -0.7972 -0.2714 -1.9634
 2297TIP3    H228383   3.044   4.416   4.448 -0.3345  0.0106 -0.6001
 2298TIP3   OH228384   4.250   5.907  14.982 -0.1110 -0.2455 -0.3238
 2298TIP3    H128385   4.314   5.861  14.928  0.5083 -1.9086  1.6726
 2298TIP3    H228386   4.166   5.867  14.958  0.0996 -0.6885 -0.3386
 2299TIP3   OH228387   4.217   3.371  15.037  0.1144  0.0485  0.1878
 2299TIP3    H128388   4.191   3.430  14.966  0.1147  0.4771  0.5409
 2299TIP3    H228389   4.308   3.348  15.016 -0.0842 -0.3316 -0.2860
 2300TIP3   OH228390   4.455   2.104   1.399 -0.4100  0.1258  0.1687
 2300TIP3    H128391   4.434   2.022   1.444  0.1994 -0.5678 -0.7597
 2300TIP3    H228392   4.451   2.171   1.467 -0.9635 -0.6675  0.9387
 2301TIP3   OH228393   2.955   1.930  12.451  0.1870  0.0463  0.2692
 2301TIP3    H128394   2.971   1.875  12.375 -0.3679 -0.9137  0.8340
 2301TIP3    H228395   2.899   2.000  12.418 -2.9815 -2.2122  0.4303
 2302TIP3   OH228396   5.508   3.920  15.992 -0.4912  0.1515  0.2449
 2302TIP3    H128397   5.445   3.925  15.920  1.2584 -2.7206 -1.7184
 2302TIP3    H228398   5.455   3.909  16.070 -2.4541  0.6807 -0.9513
 2303TIP3   OH228399   3.416   6.268  10.790  0.0038  0.2649 -0.2287
 2303TIP3    H128400   3.355   6.249  10.861  0.7285 -0.3248  0.2576
 2303TIP3    H228401   3.412   6.190  10.733 -0.2481  0.5459 -0.5994
 2304TIP3   OH228402   1.886   3.415  14.866  0.1077 -0.2240 -0.2839
 2304TIP3    H128403   1.867   3.434  14.774 -0.0556  0.2068 -0.1622
 2304TIP3    H228404   1.841   3.332  14.883 -0.4334  0.0466 -0.4008
 2305TIP3   OH228405   6.555   5.876   3.256 -0.3888  0.0794 -0.4969
 2305TIP3    H128406   6.591   5.953   3.300  0.2716  0.7637 -2.1671
 2305TIP3    H228407   6.521   5.909   3.173 -3.3449 -0.8421  0.2165
 2306TIP3   OH228408   3.622   4.244  12.559 -0.1161  0.1455  0.1110
 2306TIP3    H128409   3.715   4.221  12.550  0.0703  0.8211  0.2271
 2306TIP3    H228410   3.584   4.222  12.475  0.2768  0.4133 -0.1423
 2307TIP3   OH228411   3.611   3.924  11.404  0.1647  0.0867 -0.6371
 2307TIP3    H128412   3.617   3.920  11.500 -0.3710 -0.6753 -0.6295
 2307TIP3    H228413   3.702   3.920  11.375  0.2855 -0.7282 -0.1841
 2308TIP3   OH228414   0.802   3.633   6.247  0.0131  0.0366  0.3454
 2308TIP3    H128415   0.713   3.668   6.258 -1.1924 -2.6052 -0.1021
 2308TIP3    H228416   0.858   3.698   6.289 -2.1246  1.7274  0.8217
 2309TIP3   OH228417   3.396   2.036   5.923 -0.3916  0.2672  0.0922
 2309TIP3    H128418   3.359   1.961   5.970 -1.6484 -1.2127 -2.9661
 2309TIP3    H228419   3.348   2.111   5.957 -1.9487 -0.8599  0.5393
 2310TIP3   OH228420   2.637   2.526  13.321 -0.2167  0.2393  0.2312
 2310TIP3    H128421   2.590   2.602  13.357 -2.4859  0.1455 -2.1775
 2310TIP3    H228422   2.692   2.563  13.252  1.5453  0.0530  1.4860
 2311TIP3   OH228423   2.489   6.410  16.538 -0.5581 -0.1005 -0.3158
 2311TIP3    H128424   2.546   6.344  16.577  0.5130  1.0494  0.1656
 2311TIP3    H228425   2.409   6.408  16.590 -0.6374 -1.1800 -0.4736
 2312TIP3   OH228426   2.176   3.406  14.190 -0.1712 -0.3060  0.5963
 2312TIP3    H128427   2.142   3.358  14.266 -0.7227  1.5053  1.5453
 2312TIP3    H228428   2.248   3.458  14.224  0.3335 -0.3483 -0.3804
 2313TIP3   OH228429   3.599   0.127   0.032 -0.2041 -0.4069  0.4969
 2313TIP3    H128430   3.565   0.042   0.060  0.9947 -0.6295  1.3599
 2313TIP3    H228431   3.529   0.189   0.054 -0.5805 -1.0092  1.0229
 2314TIP3   OH228432   0.308   2.200   0.905 -0.1219 -0.7679  0.2414
 2314TIP3    H128433   0.380   2.163   0.853  1.0727 -1.6445  2.4169
 2314TIP3    H228434   0.303   2.144   0.982 -1.5974  0.6999  1.2635
 2315TIP3   OH228435   4.396   0.953   3.671 -0.0191 -0.4567  0.1186
 2315TIP3    H128436   4.387   0.868   3.715  1.5697 -1.2781 -1.0195
 2315TIP3    H228437   4.458   1.001   3.725 -0.3095 -0.3093  0.3279
 2316TIP3   OH228438   3.024   2.871  13.763 -0.3506 -0.1959 -0.3889
 2316TIP3    H128439   3.041   2.828  13.847 -3.3880  0.6936  0.8252
 2316TIP3    H228440   3.042   2.803  13.697  0.6642 -1.3965  1.0685
 2317TIP3   OH228441   2.026   3.244   4.015 -0.6622  0.2110 -0.4587
 2317TIP3    H128442   2.024   3.148   4.010 -1.1545  0.2219 -0.4657
 2317TIP3    H228443   2.079   3.270   3.940 -0.3785 -0.0644 -0.3556
 2318TIP3   OH228444   4.436   0.467   4.716  0.1357  0.4865 -0.0372
 2318TIP3    H128445   4.354   0.440   4.675 -1.4463  2.2113  1.7126
 2318TIP3    H228446   4.477   0.525   4.653 -0.0887 -0.2167 -0.8474
 2319TIP3   OH228447   4.848   4.853  14.899 -0.0908  0.0120  0.5777
 2319TIP3    H128448   4.766   4.815  14.868  0.6970 -0.8150 -0.5307
 2319TIP3    H228449   4.912   4.783  14.894  1.2932  1.3066 -1.0715
 2320TIP3   OH228450   2.185   1.094   1.948 -0.0850  0.2586 -0.0133
 2320TIP3    H128451   2.276   1.122   1.946 -0.5381  1.8111 -0.3369
 2320TIP3    H228452   2.143   1.152   2.012 -1.0914  0.3700 -0.7469
 2321TIP3   OH228453   2.569   3.305   1.192 -0.0970  0.2121 -0.2476
 2321TIP3    H128454   2.495   3.308   1.253 -0.2691 -0.4484 -0.4189
 2321TIP3    H228455   2.631   3.243   1.231  0.8683  1.5487  0.4328
 2322TIP3   OH228456   1.055   6.223   3.741 -0.1060 -0.1844 -0.3074
 2322TIP3    H128457   0.967   6.261   3.740 -0.7380 -1.5771 -0.8070
 2322TIP3    H228458   1.071   6.198   3.650  1.0341  0.5238 -0.3136
 2323TIP3   OH228459   1.858   1.087   5.302  0.4871  0.2352 -0.2480
 2323TIP3    H128460   1.884   1.039   5.380  0.4018 -2.2340 -1.6409
 2323TIP3    H228461   1.765   1.108   5.316 -0.0235 -1.7863 -0.4011
 2324TIP3   OH228462   3.485   6.399   1.429 -0.4498  0.5388  0.0330
 2324TIP3    H128463   3.574   6.367   1.442 -0.2858  1.5441  1.6969
 2324TIP3    H228464   3.453   6.353   1.351  0.6516 -1.6521  0.8118
 2325TIP3   OH228465   5.083   4.094   4.217  0.1883 -0.0469 -0.0970
 2325TIP3    H128466   5.033   4.101   4.135 -0.6874  0.8287  0.4911
 2325TIP3    H228467   5.098   4.000   4.227  1.0460 -0.1146 -1.6847
 2326TIP3   OH228468   4.833   4.596  14.540 -0.3735  0.2752  0.5739
 2326TIP3    H128469   4.860   4.647  14.463  0.2218  0.7899  1.1041
 2326TIP3    H228470   4.890   4.628  14.610 -0.4012 -0.7144  1.0586
 2327TIP3   OH228471   6.258   6.722  13.659 -0.1568  0.4441 -1.0419
 2327TIP3    H128472   6.318   6.675  13.602  0.1687  0.7124 -0.9292
 2327TIP3    H228473   6.291   6.812  13.659  1.0467  0.0896  1.0984
 2328TIP3   OH228474   1.740   6.566   2.141  0.2032  0.2126 -0.4835
 2328TIP3    H128475   1.833   6.545   2.133  0.2186 -0.6605  1.4435
 2328TIP3    H228476   1.739   6.660   2.162  0.4596  0.8494 -2.9900
 2329TIP3   OH228477   0.953   6.328   4.608 -0.9517 -0.5030 -0.0860
 2329TIP3    H128478   0.969   6.244   4.651  1.8889 -0.3152 -0.5741
 2329TIP3    H228479   1.001   6.322   4.526  0.8776  2.2038  0.6688
 2330TIP3   OH228480   4.525   4.949  11.287 -0.1279 -0.2326 -0.3486
 2330TIP3    H128481   4.574   4.993  11.356  1.3894  0.8011 -2.0073
 2330TIP3    H228482   4.591   4.924  11.223 -1.5433 -0.7598 -1.6589
 2331TIP3   OH228483   5.984   2.200   3.609 -0.5849  0.6534 -0.4341
 2331TIP3    H128484   6.062   2.180   3.661 -0.5595 -0.6213 -0.9391
 2331TIP3    H228485   5.926   2.245   3.671  0.5491  1.6705 -0.0703
 2332TIP3   OH228486   0.864   3.129   2.394  0.3074  0.0197  0.2222
 2332TIP3    H128487   0.772   3.147   2.374  0.4448  0.8388  0.2768
 2332TIP3    H228488   0.885   3.188   2.466  0.6659 -0.7153  0.7286
 2333TIP3   OH228489   2.191   0.770  14.043 -0.2758  0.3932 -0.4177
 2333TIP3    H128490   2.176   0.809  13.957 -2.5997  0.7338  0.0749
 2333TIP3    H228491   2.277   0.729  14.036 -0.1556  0.9043 -2.7123
 2334TIP3   OH228492   3.281   4.971   1.799  0.5028  0.1535 -0.4296
 2334TIP3    H128493   3.246   4.946   1.884  0.1666 -0.0985 -0.6428
 2334TIP3    H228494   3.348   5.036   1.819 -1.3899  2.1283 -0.1251
 2335TIP3   OH228495   1.933   1.237   0.269  0.9776  0.2636  0.3504
 2335TIP3    H128496   2.006   1.288   0.233  1.0756 -1.5189 -2.2136
 2335TIP3    H228497   1.975   1.163   0.314  0.7754  0.1067  0.2838
 2336TIP3   OH228498   4.920   2.179  12.979  0.0162  0.0521 -0.2940
 2336TIP3    H128499   4.894   2.264  13.016 -1.8787 -0.6516  0.0983
 2336TIP3    H228500   4.925   2.121  13.054  0.2220 -0.4464 -0.6918
 2337TIP3   OH228501   1.522   5.369  16.757  0.4592 -0.2374 -0.2850
 2337TIP3    H128502   1.432   5.337  16.746 -0.1373  0.7342  1.4434
 2337TIP3    H228503   1.517   5.462  16.735  1.1028 -0.2290 -0.4061
 2338TIP3   OH228504   5.819   5.816  13.275  0.2311  0.1553 -0.3606
 2338TIP3    H128505   5.826   5.813  13.370  0.7007  1.5805 -0.3347
 2338TIP3    H228506   5.736   5.860  13.258 -0.2398 -0.7969 -0.6364
 2339TIP3   OH228507   0.490   5.746  11.659  0.7463  0.1920  0.6853
 2339TIP3    H128508   0.395   5.745  11.655  0.7012  1.7270  0.6824
 2339TIP3    H228509   0.519   5.735  11.568  0.4865  2.0919  0.3288
 2340TIP3   OH228510   3.527   6.378   4.161 -0.3238  0.5671 -0.1559
 2340TIP3    H128511   3.603   6.361   4.216 -0.3436 -0.9635 -0.5631
 2340TIP3    H228512   3.545   6.330   4.080 -1.5116  0.5669 -0.4298
 2341TIP3   OH228513   4.981   4.301   3.553 -0.2529 -0.1270  0.2700
 2341TIP3    H128514   4.938   4.342   3.478  0.5585  0.0390 -0.1174
 2341TIP3    H228515   4.986   4.370   3.619 -2.8102 -0.8087  1.3066
 2342TIP3   OH228516   6.055   0.657   6.800 -0.0395 -0.8392 -0.0979
 2342TIP3    H128517   6.063   0.716   6.875  0.6675 -1.8569  0.6503
 2342TIP3    H228518   6.105   0.699   6.731 -1.0070  0.2980 -0.1337
 2343TIP3   OH228519   4.988   1.555   4.098  0.1444  0.2641  0.0457
 2343TIP3    H128520   4.996   1.608   4.019  2.5475 -0.8637 -0.5902
 2343TIP3    H228521   4.947   1.474   4.068  0.9980 -0.1384 -0.0776
 2344TIP3   OH228522   5.295   6.163  15.545 -0.2928 -0.1621  0.7318
 2344TIP3    H128523   5.211   6.202  15.570  0.3437  2.6469 -1.0224
 2344TIP3    H228524   5.360   6.232  15.561  1.1579 -0.9697 -1.1666
 2345TIP3   OH228525   0.484   2.351   5.438 -0.2469  0.4763  0.1813
 2345TIP3    H128526   0.502   2.412   5.509 -0.0480  1.7421 -0.9167
 2345TIP3    H228527   0.562   2.355   5.383  0.1460 -1.4544  0.5226
 2346TIP3   OH228528   5.335   3.667   0.635  0.3699  0.4365  0.4683
 2346TIP3    H128529   5.279   3.732   0.677  0.0434  2.3797 -2.6352
 2346TIP3    H228530   5.423   3.688   0.665  0.2062  2.0301 -0.0959
 2347TIP3   OH228531   6.754   5.231   6.428 -0.3057 -0.7950 -0.1600
 2347TIP3    H128532   6.844   5.251   6.457 -0.4868 -1.2819  0.7782
 2347TIP3    H228533   6.764   5.157   6.369 -0.0378 -0.5389 -0.4382
 2348TIP3   OH228534   0.430   3.608   1.935  0.0901  0.1796  0.2321
 2348TIP3    H128535   0.432   3.686   1.880  0.7964 -0.1973 -0.2949
 2348TIP3    H228536   0.517   3.570   1.926 -0.4742 -1.0854 -0.1164
 2349TIP3   OH228537   6.829   3.964  12.691  0.5088  0.5970 -0.2701
 2349TIP3    H128538   6.811   3.908  12.615 -1.2588 -0.6628  0.9831
 2349TIP3    H228539   6.759   4.029  12.691  1.4779  1.6722 -0.6484
 2350TIP3   OH228540   3.980   5.874   6.010 -0.1049  0.1414 -1.2105
 2350TIP3    H128541   3.904   5.848   6.061  1.3804 -2.2807 -0.0779
 2350TIP3    H228542   4.010   5.955   6.050  0.1475 -0.9255  0.8775
 2351TIP3   OH228543   1.685   4.661   1.086  0.1751 -0.2540  0.2183
 2351TIP3    H128544   1.743   4.737   1.092 -0.6384  0.4408 -0.5592
 2351TIP3    H228545   1.741   4.590   1.055  0.7249  0.2747 -0.0051
 2352TIP3   OH228546   0.534   0.067  16.799 -0.5746 -0.3130 -0.5416
 2352TIP3    H128547   0.608   0.037  16.852 -0.7439 -0.1182 -0.1884
 2352TIP3    H228548   0.525   0.000  16.731 -1.7093 -1.7311  0.9200
 2353TIP3   OH228549   3.615   0.047  16.000 -0.3098 -0.3730 -0.3534
 2353TIP3    H128550   3.558  -0.027  15.981  1.6739 -1.6226 -1.9534
 2353TIP3    H228551   3.601   0.108  15.928 -0.7273  0.0514  0.0785
 2354TIP3   OH228552   1.609   3.149  16.459 -0.0211  0.7278  0.9269
 2354TIP3    H128553   1.632   3.191  16.376  0.3787 -0.0259  0.6500
 2354TIP3    H228554   1.569   3.219  16.511  1.7042  1.7696  0.9309
 2355TIP3   OH228555   5.369   0.519  11.563  0.3991  0.1361  0.3696
 2355TIP3    H128556   5.444   0.460  11.567 -0.1942 -0.6327  0.4335
 2355TIP3    H228557   5.306   0.483  11.626  0.6132  1.6929  1.5314
 2356TIP3   OH228558   0.761   3.295   0.802 -0.2343 -0.2342 -0.0592
 2356TIP3    H128559   0.745   3.237   0.728  0.3754  0.1967 -0.5351
 2356TIP3    H228560   0.797   3.375   0.763  1.1305 -0.4107  0.7885
 2357TIP3   OH228561   3.273   0.024  16.044  0.3104  0.6051  0.1012
 2357TIP3    H128562   3.300   0.078  15.970  1.7627 -0.2876 -0.0649
 2357TIP3    H228563   3.196  -0.023  16.013 -1.5572  3.1952  0.5613
 2358TIP3   OH228564   2.555   4.394  16.167  0.6442 -0.1546 -0.3848
 2358TIP3    H128565   2.558   4.320  16.106 -1.6890 -1.4389  0.9168
 2358TIP3    H228566   2.585   4.469  16.115  1.7199 -1.7292 -2.1661
 2359TIP3   OH228567   2.610   5.967   0.471 -0.4037  0.0840  0.3289
 2359TIP3    H128568   2.678   5.952   0.405 -0.6733  1.6214 -0.3260
 2359TIP3    H228569   2.659   5.996   0.549 -0.1738 -0.6704  0.4745
 2360TIP3   OH228570   4.655   5.463  13.585 -0.4023 -0.3275  0.1100
 2360TIP3    H128571   4.727   5.440  13.526  1.0895 -0.2424  1.8110
 2360TIP3    H228572   4.673   5.554  13.610  0.1906 -0.9775  2.2468
 2361TIP3   OH228573   1.455   0.834  15.320 -0.8292 -0.1906  0.2134
 2361TIP3    H128574   1.458   0.923  15.355  0.2842  0.0909 -0.5293
 2361TIP3    H228575   1.365   0.824  15.289 -1.0619  0.5522  0.6174
 2362TIP3   OH228576   0.012   6.420   0.935  0.2165 -0.2322  0.0366
 2362TIP3    H128577   0.060   6.449   1.013 -1.4321  1.5965  0.4719
 2362TIP3    H228578  -0.051   6.490   0.919  0.2749 -0.7045 -2.7887
 2363TIP3   OH228579   3.623   0.283  16.494  0.7228 -0.3997  0.1680
 2363TIP3    H128580   3.672   0.217  16.444  0.7577 -0.8728  0.8134
 2363TIP3    H228581   3.624   0.250  16.584 -2.6297 -1.5662 -0.0932
 2364TIP3   OH228582   1.988   0.844   2.783  0.5265  0.4533 -0.6908
 2364TIP3    H128583   2.006   0.808   2.869  0.0990 -0.8600 -1.1313
 2364TIP3    H228584   1.993   0.769   2.723 -0.3285  1.1232 -1.6469
 2365TIP3   OH228585   0.224   4.317  14.835 -0.3312  0.0769 -0.0951
 2365TIP3    H128586   0.185   4.371  14.903 -0.9300  1.0082 -1.1414
 2365TIP3    H228587   0.294   4.371  14.798  2.6296 -1.8201  2.2330
 2366TIP3   OH228588   6.297   4.828   2.995  0.5992 -0.1580 -0.6524
 2366TIP3    H128589   6.376   4.822   3.049 -0.6675 -0.9554  1.2479
 2366TIP3    H228590   6.232   4.869   3.052 -1.6106 -3.5174 -0.4656
 2367TIP3   OH228591   1.836   5.478  13.771 -0.2471  0.0832 -0.0646
 2367TIP3    H128592   1.761   5.467  13.713 -0.5521  1.4373  0.0397
 2367TIP3    H228593   1.842   5.394  13.818 -1.5314 -0.1408 -0.2565
 2368TIP3   OH228594   0.450   3.035   4.733  0.7097 -0.1577 -0.3177
 2368TIP3    H128595   0.459   3.070   4.822 -1.7610  0.5030 -0.2523
 2368TIP3    H228596   0.369   2.984   4.735  0.0354  0.6988 -2.4153
 2369TIP3   OH228597   3.850   6.302  13.131 -0.0258  0.0043  0.0665
 2369TIP3    H128598   3.771   6.294  13.078  1.4621  0.4805 -2.3688
 2369TIP3    H228599   3.863   6.215  13.169 -2.0685  0.1076  1.1389
 2370TIP3   OH228600   5.817   1.520   0.203 -0.3337  0.3365 -0.3268
 2370TIP3    H128601   5.829   1.431   0.237 -3.0416  0.3890  1.0061
 2370TIP3    H228602   5.874   1.523   0.126  1.0437 -2.0042  0.4882
 2371TIP3   OH228603   0.190   3.682  10.859  0.3866  0.0432  0.2586
 2371TIP3    H128604   0.133   3.687  10.782 -0.2026 -0.0079  0.6861
 2371TIP3    H228605   0.156   3.608  10.909  2.1952 -1.4231 -0.5594
 2372TIP3   OH228606   2.401   6.290   1.186  0.7440  0.1096  0.4616
 2372TIP3    H128607   2.316   6.317   1.221 -0.7619 -1.4605 -1.7034
 2372TIP3    H228608   2.411   6.340   1.106  1.7961  0.1536  0.6101
 2373TIP3   OH228609   3.876   5.709   5.117  0.4566  0.1325 -0.2956
 2373TIP3    H128610   3.955   5.726   5.168  0.2085 -1.7389  0.7913
 2373TIP3    H228611   3.809   5.690   5.182 -1.3764  3.1811 -1.1081
 2374TIP3   OH228612   4.314   0.232   2.556  0.1499 -0.0369  0.1444
 2374TIP3    H128613   4.271   0.299   2.503 -0.7792  0.4867  1.5236
 2374TIP3    H228614   4.371   0.281   2.615  1.8419 -0.6639 -0.8944
 2375TIP3   OH228615   1.608   3.811  15.208 -0.1247  0.1569  0.8729
 2375TIP3    H128616   1.560   3.830  15.127  1.3687  0.1593 -0.0485
 2375TIP3    H228617   1.551   3.842  15.277 -1.8448 -0.6346 -0.1079
 2376TIP3   OH228618   5.268   0.119  13.408 -0.0548 -0.6307  0.2953
 2376TIP3    H128619   5.223   0.185  13.461 -0.5367 -1.3161  0.7598
 2376TIP3    H228620   5.203   0.093  13.343  0.4144 -0.0596 -0.4206
 2377TIP3   OH228621   0.343   1.460  12.442 -0.5278 -0.1683 -0.7753
 2377TIP3    H128622   0.437   1.450  12.424 -0.4437 -0.3723 -0.2508
 2377TIP3    H228623   0.340   1.502  12.528 -0.9221 -0.2817 -0.7345
 2378TIP3   OH228624   5.998   6.293  14.769 -0.1902 -0.6090 -0.8654
 2378TIP3    H128625   6.091   6.305  14.752 -0.1141  0.1221 -0.0388
 2378TIP3    H228626   5.993   6.268  14.861 -0.8774  0.7128 -0.5130
 2379TIP3   OH228627   1.747   1.692   5.586  0.1685  0.6075  0.2566
 2379TIP3    H128628   1.716   1.718   5.672 -0.7304  0.6108 -0.0650
 2379TIP3    H228629   1.704   1.752   5.525  1.5896  1.2793 -0.1242
 2380TIP3   OH228630   3.984   5.872   3.333  0.0048  0.2288  0.0002
 2380TIP3    H128631   4.008   5.799   3.390 -0.0839  0.3465  0.1887
 2380TIP3    H228632   3.893   5.855   3.309  0.1536 -0.0157 -0.4079
 2381TIP3   OH228633   4.285   2.179  10.493 -0.4982 -0.0750 -0.6602
 2381TIP3    H128634   4.326   2.101  10.454  0.4054  0.3299 -0.5414
 2381TIP3    H228635   4.321   2.184  10.581 -2.5957 -1.0317  0.3203
 2382TIP3   OH228636   3.638   2.086   0.033  0.1880 -0.5323  0.3499
 2382TIP3    H128637   3.625   2.164  -0.021 -2.0475  1.5900  3.5637
 2382TIP3    H228638   3.552   2.044   0.035  1.3072 -3.0570 -1.1244
 2383TIP3   OH228639   5.656   1.871  13.968  0.0932  0.0377  0.0929
 2383TIP3    H128640   5.608   1.790  13.983  1.1131 -0.3012  1.8214
 2383TIP3    H228641   5.601   1.939  14.007  0.1956 -0.1180  0.5169
 2384TIP3   OH228642   3.624   1.486   4.328  0.2105  0.1665  0.5741
 2384TIP3    H128643   3.619   1.470   4.422 -1.6648 -0.8941  0.3431
 2384TIP3    H228644   3.617   1.399   4.288  1.3941  0.5569 -0.5550
 2385TIP3   OH228645   0.826   4.494   2.192 -0.6955  0.2160  0.1045
 2385TIP3    H128646   0.781   4.447   2.121  0.4174  0.1348 -0.5646
 2385TIP3    H228647   0.894   4.433   2.221 -1.3069  0.1383  1.4547
 2386TIP3   OH228648   1.796   0.643   5.130 -0.1342 -0.1611  0.4266
 2386TIP3    H128649   1.887   0.650   5.105 -0.0481  0.5636  0.8941
 2386TIP3    H228650   1.760   0.731   5.116 -0.9032 -0.5753 -0.2849
 2387TIP3   OH228651   0.923   4.607   3.838  0.3237  0.3274  0.1016
 2387TIP3    H128652   0.990   4.540   3.846  0.9749  0.8236 -0.9162
 2387TIP3    H228653   0.866   4.594   3.913  1.3072 -0.3897  0.7418
 2388TIP3   OH228654   2.319   2.461   0.510 -0.3046  0.8473 -0.1365
 2388TIP3    H128655   2.388   2.526   0.516  1.1483 -0.0727 -4.0799
 2388TIP3    H228656   2.243   2.508   0.476  0.4033  0.7761 -1.9012
 2389TIP3   OH228657   0.199   5.844   5.030  0.2951 -0.1827  0.5213
 2389TIP3    H128658   0.250   5.923   5.048  0.2505 -0.2928  1.1439
 2389TIP3    H228659   0.264   5.778   5.006  0.1872  1.1878 -4.9144
 2390TIP3   OH228660   0.218   1.226   2.442 -0.5722 -0.1329  0.3497
 2390TIP3    H128661   0.141   1.213   2.497  0.1861 -0.6666  1.3119
 2390TIP3    H228662   0.245   1.316   2.459 -0.6199 -0.1488  0.5154
 2391TIP3   OH228663   0.116   1.778  12.079  0.3046 -0.0728 -0.0898
 2391TIP3    H128664   0.193   1.814  12.121 -0.2303  0.3050  0.5886
 2391TIP3    H228665   0.104   1.831  12.000  0.0944  0.6067  0.3888
 2392TIP3   OH228666   2.625   2.640  15.758 -0.3569 -0.3355 -0.3758
 2392TIP3    H128667   2.613   2.601  15.845 -0.7815 -1.0656 -0.7517
 2392TIP3    H228668   2.585   2.727  15.765  0.1246 -0.1656  0.3222
 2393TIP3   OH228669   6.050   4.375  13.037 -0.1578  0.0669 -0.2967
 2393TIP3    H128670   5.998   4.303  13.074 -0.7801  0.5134 -0.2831
 2393TIP3    H228671   6.141   4.351  13.056 -0.4253 -0.0036  0.9926
 2394TIP3   OH228672   1.506   3.985  11.954  0.5482 -0.0496 -0.5973
 2394TIP3    H128673   1.510   4.054  11.888 -1.1519  0.7761  0.0998
 2394TIP3    H228674   1.447   3.920  11.918 -2.2944  1.4794  0.9304
 2395TIP3   OH228675   1.036   1.961  12.200 -0.5359 -0.2927  0.4711
 2395TIP3    H128676   1.085   1.944  12.280  2.2112  2.3001 -0.4804
 2395TIP3    H228677   0.976   2.032  12.223  1.8695  2.1130 -0.1169
 2396TIP3   OH228678   0.562   1.146   4.777  0.0151  0.1635 -0.2726
 2396TIP3    H128679   0.605   1.203   4.840 -1.8749  1.6372 -0.2110
 2396TIP3    H228680   0.559   1.060   4.819  0.1152  0.7705  1.0150
 2397TIP3   OH228681   4.294   0.084   4.673  0.1270 -0.2027  0.9186
 2397TIP3    H128682   4.381   0.111   4.646 -0.2946  0.9435  0.6248
 2397TIP3    H228683   4.293   0.097   4.768  0.1994  0.0320  0.8881
 2398TIP3   OH228684   0.851   3.918   2.450  0.7326  0.2238  0.4551
 2398TIP3    H128685   0.940   3.899   2.421  0.7839  1.3232 -0.1570
 2398TIP3    H228686   0.863   3.967   2.532  0.6810  0.0679  0.5561
 2399TIP3   OH228687   4.759   6.046   0.751 -0.0190 -0.3221 -0.3826
 2399TIP3    H128688   4.742   5.954   0.730  0.6005 -0.4612 -0.3145
 2399TIP3    H228689   4.794   6.044   0.840  0.1588 -0.0388 -0.4438
 2400TIP3   OH228690   6.395   1.454  13.634 -0.2111  0.1727 -0.2295
 2400TIP3    H128691   6.327   1.431  13.698 -0.6598  1.5729 -0.1677
 2400TIP3    H228692   6.396   1.380  13.573 -2.1012  0.2624 -0.4528
 2401TIP3   OH228693   3.210   4.715   0.668  0.3055 -0.1325 -0.0200
 2401TIP3    H128694   3.235   4.761   0.748 -1.3083  2.9033 -1.1113
 2401TIP3    H228695   3.117   4.697   0.679  0.5672 -1.8843 -0.2948
 2402TIP3   OH228696   2.646   0.862  12.354  0.0492  0.4168 -0.0199
 2402TIP3    H128697   2.631   0.804  12.428  0.5867  1.1147  0.6490
 2402TIP3    H228698   2.720   0.916  12.380  3.0190 -1.9999 -2.6576
 2403TIP3   OH228699   1.131   5.134  15.675 -0.0632 -0.2576 -0.2322
 2403TIP3    H128700   1.070   5.062  15.694  1.3026 -1.5245 -0.3958
 2403TIP3    H228701   1.205   5.091  15.633 -0.4384  1.6425 -3.1389
 2404TIP3   OH228702   5.061   1.000  11.630  0.0500 -0.0808 -0.6443
 2404TIP3    H128703   5.125   1.062  11.594 -0.2604  0.4189 -0.3459
 2404TIP3    H228704   5.083   0.994  11.723  0.1447 -0.4988 -0.6947
 2405TIP3   OH228705   6.701   2.152  14.784  0.1282  0.1274  0.1782
 2405TIP3    H128706   6.663   2.111  14.706  0.7468 -0.1936  0.0435
 2405TIP3    H228707   6.733   2.237  14.754  1.9552 -0.6954 -0.3478
 2406TIP3   OH228708   6.151   4.644   3.719  0.4754 -0.0899 -0.0064
 2406TIP3    H128709   6.132   4.557   3.755  2.2178 -0.3992  0.2506
 2406TIP3    H228710   6.245   4.654   3.729  0.0720  2.7652  2.0328
 2407TIP3   OH228711   6.480   3.889  15.255 -0.2437  0.1956 -0.0258
 2407TIP3    H128712   6.520   3.806  15.230 -0.2583  0.5900 -1.5013
 2407TIP3    H228713   6.418   3.867  15.324 -0.7159 -1.1265 -0.8459
 2408TIP3   OH228714   0.900   1.486   5.090 -0.1136  0.5637  0.6813
 2408TIP3    H128715   0.981   1.474   5.041 -0.6669  1.8663 -0.6106
 2408TIP3    H228716   0.913   1.435   5.170  1.5694 -0.0643  0.0523
 2409TIP3   OH228717   6.065   0.277   0.148  0.2327 -0.3406 -0.0401
 2409TIP3    H128718   6.114   0.211   0.098  1.3327  0.4673 -0.0682
 2409TIP3    H228719   5.981   0.284   0.103  0.5410 -0.8982 -0.7192
 2410TIP3   OH228720   0.151   2.917  15.937  0.3346 -0.5737 -0.1949
 2410TIP3    H128721   0.067   2.870  15.927 -1.5196  2.4730 -0.0943
 2410TIP3    H228722   0.164   2.923  16.031 -0.0089  0.0574 -0.1869
 2411TIP3   OH228723   0.829   3.227  14.454  0.5566 -0.3699 -0.3972
 2411TIP3    H128724   0.888   3.151  14.454  1.3733  0.1890  1.5075
 2411TIP3    H228725   0.768   3.209  14.525 -0.1782  0.0840 -0.9095
 2412TIP3   OH228726   3.607   4.986  13.293 -0.1830 -0.2623 -0.0733
 2412TIP3    H128727   3.570   5.073  13.304 -0.8617 -0.6201  0.5370
 2412TIP3    H228728   3.580   4.938  13.371  0.1235 -1.0432 -0.4318
 2413TIP3   OH228729   4.197   3.496   1.395 -0.3705  0.0033 -0.4260
 2413TIP3    H128730   4.182   3.589   1.379  0.7536  0.4398  0.7925
 2413TIP3    H228731   4.247   3.494   1.477  1.5306 -1.5301 -1.5244
 2414TIP3   OH228732   0.733   0.801  12.826 -0.4930 -0.2239  0.4944
 2414TIP3    H128733   0.730   0.840  12.739 -0.6866  0.9919  1.0361
 2414TIP3    H228734   0.826   0.804  12.850 -0.4661 -0.3919  0.4186
 2415TIP3   OH228735   1.763   4.799   0.492  0.1601  0.3900 -0.6435
 2415TIP3    H128736   1.706   4.754   0.554  3.1019 -0.9933  1.2929
 2415TIP3    H228737   1.743   4.758   0.407 -0.1644 -1.6648  0.3530
 2416TIP3   OH228738   5.030   5.657   4.877 -0.2820 -0.3837  0.0795
 2416TIP3    H128739   4.969   5.731   4.877  2.0570  1.6783 -0.4706
 2416TIP3    H228740   5.029   5.626   4.968 -1.0835  0.5387  0.4088
 2417TIP3   OH228741   1.584   4.065  14.509 -0.3420  0.2357  0.0869
 2417TIP3    H128742   1.639   4.142  14.502 -0.1130 -0.0108 -1.0108
 2417TIP3    H228743   1.495   4.098  14.504 -0.2415  0.4230 -0.6922
 2418TIP3   OH228744   1.276   3.723   0.447  0.2291 -0.4873  0.1192
 2418TIP3    H128745   1.305   3.633   0.461 -3.2092 -1.4701  2.3528
 2418TIP3    H228746   1.209   3.717   0.379  0.0761  0.4304  0.1684
 2419TIP3   OH228747   2.754   4.054  12.983  0.4589  0.1824  0.1396
 2419TIP3    H128748   2.830   4.080  12.930  0.2475  1.7214  0.5531
 2419TIP3    H228749   2.681   4.056  12.921  0.2262  1.8961  0.4245
 2420TIP3   OH228750   3.577   1.126   4.510 -0.3003 -0.5272  0.0659
 2420TIP3    H128751   3.507   1.136   4.446  0.1477  1.0840 -0.2219
 2420TIP3    H228752   3.559   1.192   4.577  1.3324  0.5111 -0.4335
 2421TIP3   OH228753   5.879   0.744   1.905 -0.4334  0.1764 -0.1954
 2421TIP3    H128754   5.971   0.734   1.928 -0.6731  1.9887  1.9439
 2421TIP3    H228755   5.877   0.819   1.845 -0.2157 -2.2433 -3.4813
 2422TIP3   OH228756   6.737   0.618   6.483  0.3526 -0.1464  0.2975
 2422TIP3    H128757   6.808   0.562   6.514  1.6970  1.3233  0.0083
 2422TIP3    H228758   6.674   0.558   6.445  1.1371 -1.5576  1.1215
 2423TIP3   OH228759   4.433   2.957  15.739  0.2749  0.0086 -0.3022
 2423TIP3    H128760   4.379   3.030  15.708  0.1809  1.0381  2.1104
 2423TIP3    H228761   4.448   2.975  15.832  0.6247 -2.8311  0.2940
 2424TIP3   OH228762   0.724   1.135  11.295 -0.2691  0.2106 -0.1582
 2424TIP3    H128763   0.701   1.226  11.318 -2.2572 -0.1929 -0.3707
 2424TIP3    H228764   0.679   1.082  11.361  0.7330 -0.6356 -0.1430
 2425TIP3   OH228765   5.480   5.331  17.070 -0.6596  0.3448  0.4811
 2425TIP3    H128766   5.450   5.240  17.074 -2.3455  0.8913  1.1570
 2425TIP3    H228767   5.435   5.369  16.995  2.4019 -0.0989 -1.7806
 2426TIP3   OH228768   6.807   2.807  14.472 -0.2483  0.1507  0.2114
 2426TIP3    H128769   6.754   2.748  14.419 -0.2545  0.9212 -0.6599
 2426TIP3    H228770   6.751   2.832  14.545 -1.1316  1.0570 -0.7646
 2427TIP3   OH228771   0.231   3.656   1.418  0.4429  0.4718 -0.0579
 2427TIP3    H128772   0.313   3.679   1.462  0.4586  0.1507  0.0801
 2427TIP3    H228773   0.164   3.663   1.485  0.4033  0.4230 -0.0921
 2428TIP3   OH228774   4.207   5.371  11.181  0.7448  0.1884 -0.1373
 2428TIP3    H128775   4.290   5.408  11.150  0.3895  0.9639 -0.1934
 2428TIP3    H228776   4.179   5.313  11.110  1.6141 -0.6905  0.2178
 2429TIP3   OH228777   1.980   5.420   4.766  0.3467  0.3816 -0.3389
 2429TIP3    H128778   1.956   5.361   4.695  0.3951  0.4205 -0.3880
 2429TIP3    H228779   1.972   5.507   4.728 -0.6738  0.4562  0.0206
 2430TIP3   OH228780   5.958   2.461  15.933  0.1888  0.3913 -0.0933
 2430TIP3    H128781   6.029   2.509  15.891  1.8802 -0.4988  1.5739
 2430TIP3    H228782   5.883   2.521  15.929  1.1970  1.6494 -1.3017
 2431TIP3   OH228783   5.721   4.014  12.611 -0.0646  0.2911 -1.0224
 2431TIP3    H128784   5.757   4.094  12.574  0.4908  0.0734 -0.9639
 2431TIP3    H228785   5.792   3.950  12.602  1.1529  0.8685  2.8625
 2432TIP3   OH228786   3.047   1.383   3.375  0.7152 -0.4608  0.1761
 2432TIP3    H128787   3.056   1.342   3.289 -0.4015 -0.6584  0.1312
 2432TIP3    H228788   2.977   1.447   3.363  1.3771  0.3603  0.6451
 2433TIP3   OH228789   4.796   6.089   5.734  0.6009  0.5722  0.1195
 2433TIP3    H128790   4.742   6.106   5.811  0.0704 -0.2508 -0.0537
 2433TIP3    H228791   4.794   6.170   5.684  2.3436  1.7295  1.7717
 2434TIP3   OH228792   5.623   0.458   4.122  0.0483  0.1852  0.0783
 2434TIP3    H128793   5.604   0.477   4.214 -1.3670 -2.0024  0.3067
 2434TIP3    H228794   5.633   0.545   4.081 -2.2581  1.3097  1.6852
 2435TIP3   OH228795   0.730   2.224  10.812  0.3363  0.2348  0.2605
 2435TIP3    H128796   0.810   2.256  10.853  0.8943  0.3659 -0.8724
 2435TIP3    H228797   0.760   2.152  10.755 -0.5818 -0.7888  1.0383
 2436TIP3   OH228798   0.493   3.130  13.580 -0.1635 -0.2136  0.1253
 2436TIP3    H128799   0.457   3.058  13.632  1.8429 -0.1306  1.7582
 2436TIP3    H228800   0.566   3.163  13.632 -0.1716  2.1473 -1.2093
 2437TIP3   OH228801   4.863   2.273  16.078  0.0620  0.1152 -0.0191
 2437TIP3    H128802   4.853   2.191  16.029 -2.4439  1.8639 -2.8026
 2437TIP3    H228803   4.930   2.321  16.030 -1.9278  1.5634 -1.5386
 2438TIP3   OH228804   2.183   1.670  16.335 -0.3187 -0.4158 -0.1834
 2438TIP3    H128805   2.211   1.582  16.362 -0.4937 -0.2575  0.5396
 2438TIP3    H228806   2.093   1.658  16.305 -0.6531 -0.3439  0.7525
 2439TIP3   OH228807   1.141   5.719   5.087  0.2895  0.0755  0.0699
 2439TIP3    H128808   1.209   5.739   5.151  0.3501  0.6125 -0.1512
 2439TIP3    H228809   1.179   5.649   5.033 -0.1441 -1.0589  1.2011
 2440TIP3   OH228810   1.567   4.832   2.764 -0.0271  0.2027 -0.1915
 2440TIP3    H128811   1.501   4.762   2.766 -0.6167  0.7510 -0.0892
 2440TIP3    H228812   1.523   4.904   2.718  0.5824  0.4959 -0.3166
 2441TIP3   OH228813   5.221   5.052  13.053  0.7914 -0.3793  0.1475
 2441TIP3    H128814   5.278   4.981  13.025  1.2877  0.4008 -0.9307
 2441TIP3    H228815   5.266   5.093  13.126 -0.3126 -2.1872  1.9418
 2442TIP3   OH228816   0.810   2.247  16.687 -0.3841 -0.0584  0.0723
 2442TIP3    H128817   0.868   2.321  16.668 -0.1427 -0.2950 -0.1070
 2442TIP3    H228818   0.868   2.172  16.695 -0.6432 -0.2557  0.1160
 2443TIP3   OH228819   2.076   0.391  11.346  0.0854 -0.1314 -0.1559
 2443TIP3    H128820   2.043   0.355  11.429  1.8287 -0.4671  0.4221
 2443TIP3    H228821   2.138   0.325  11.315  2.2007  1.6281  0.1351
 2444TIP3   OH228822   3.621   2.936   0.406  0.0868 -0.5118 -0.0797
 2444TIP3    H128823   3.639   3.029   0.392  1.8784 -0.7049  0.7084
 2444TIP3    H228824   3.656   2.892   0.329  0.4174 -0.6418  0.1426
 2445TIP3   OH228825   1.612   1.154   3.510 -0.0725 -0.3179  0.1964
 2445TIP3    H128826   1.532   1.171   3.460 -0.4150  0.2976  0.9341
 2445TIP3    H228827   1.628   1.060   3.500 -0.7463 -0.3972 -0.1627
 2446TIP3   OH228828   0.713   3.660   2.442 -0.3155  0.3612 -0.0516
 2446TIP3    H128829   0.694   3.668   2.536  1.7859  0.9583  0.3655
 2446TIP3    H228830   0.761   3.740   2.420  0.6504 -0.5111 -1.2576
 2447TIP3   OH228831   3.308   0.259   4.463 -0.3912  0.1382 -0.2944
 2447TIP3    H128832   3.388   0.265   4.516 -1.7660  0.8198  1.8175
 2447TIP3    H228833   3.311   0.336   4.406  1.5068 -1.0280 -1.8762
 2448TIP3   OH228834   5.666   4.099  12.298  0.2027 -0.5082 -0.1031
 2448TIP3    H128835   5.623   4.032  12.352  1.8220  0.2661  2.3073
 2448TIP3    H228836   5.688   4.169  12.360 -0.2379  1.7116 -2.2860
 2449TIP3   OH228837   2.614   6.584  11.424 -0.1369  0.0568  0.5536
 2449TIP3    H128838   2.604   6.667  11.376 -1.0922  0.6203  1.6814
 2449TIP3    H228839   2.572   6.519  11.368 -0.6381  0.5827  0.3038
 2450TIP3   OH228840   2.521   1.239   1.862 -0.3923  0.3384  0.2642
 2450TIP3    H128841   2.552   1.330   1.866 -0.9926  0.5152  1.0734
 2450TIP3    H228842   2.592   1.187   1.899  0.2320  0.3890 -0.8035
 2451TIP3   OH228843   5.537   2.845  15.296  0.4903  0.1825  0.0278
 2451TIP3    H128844   5.519   2.787  15.371  1.7023 -0.4786 -0.1605
 2451TIP3    H228845   5.602   2.797  15.244  2.8125  2.3774  0.7184
 2452TIP3   OH228846   0.210   6.234   3.184 -0.0194  0.2343 -0.7311
 2452TIP3    H128847   0.151   6.308   3.172  0.0178  0.7189  1.7474
 2452TIP3    H228848   0.296   6.273   3.198 -0.2668 -0.0795  2.3217
 2453TIP3   OH228849   6.823   5.255   2.852 -0.2901 -0.4689 -0.3066
 2453TIP3    H128850   6.835   5.166   2.884 -1.3450 -1.0652 -1.4667
 2453TIP3    H228851   6.886   5.307   2.901  2.5513 -2.3235 -1.7389
 2454TIP3   OH228852   6.519   0.357  16.313  0.1457 -0.0268 -1.1249
 2454TIP3    H128853   6.538   0.391  16.400  1.2867 -0.8801 -1.0232
 2454TIP3    H228854   6.425   0.344  16.312  0.3896 -2.6073  0.9690
 2455TIP3   OH228855   1.761   4.684   0.220 -0.5427 -0.2712 -0.4113
 2455TIP3    H128856   1.827   4.646   0.161  0.1895  0.4887 -0.0897
 2455TIP3    H228857   1.734   4.610   0.275  0.3550 -0.4976 -0.2552
 2456TIP3   OH228858   2.339   0.492  14.681 -0.0384 -0.0359  0.0790
 2456TIP3    H128859   2.331   0.445  14.599  1.7319 -0.0920 -0.0883
 2456TIP3    H228860   2.287   0.440  14.743 -0.6297 -0.4959 -0.7771
 2457TIP3   OH228861   1.066   6.457   1.173 -0.3741 -0.3508 -0.4353
 2457TIP3    H128862   1.089   6.549   1.159  0.5919 -0.5250 -0.0212
 2457TIP3    H228863   1.125   6.427   1.242 -2.6569 -0.4810  1.6228
 2458TIP3   OH228864   2.957   0.165  11.332 -0.9287  1.3029 -0.4677
 2458TIP3    H128865   3.018   0.211  11.390 -1.1440  0.3726  0.5206
 2458TIP3    H228866   2.983   0.193  11.244 -0.2243  2.2951  0.0312
 2459TIP3   OH228867   3.056   5.640   1.881  0.1015 -0.0676  0.3758
 2459TIP3    H128868   3.067   5.718   1.936  1.4485  0.1188 -0.1297
 2459TIP3    H228869   3.141   5.628   1.840 -0.5552 -0.8831 -0.7825
 2460TIP3   OH228870   0.980   2.901   4.444 -0.3393  0.0602 -0.1836
 2460TIP3    H128871   0.921   2.893   4.369 -0.7609 -2.1209  0.3354
 2460TIP3    H228872   1.046   2.965   4.416  0.7905 -2.2656 -3.2929
 2461TIP3   OH228873   1.924   0.110  16.704 -0.1258  0.3015 -0.1354
 2461TIP3    H128874   1.894   0.020  16.716  0.4662  0.2869  1.5033
 2461TIP3    H228875   1.928   0.146  16.792  0.1984  1.7597 -0.7161
 2462TIP3   OH228876   6.406   5.844  11.891  0.5067 -0.4422 -0.0450
 2462TIP3    H128877   6.351   5.890  11.827  0.7425  0.4864  0.4091
 2462TIP3    H228878   6.362   5.759  11.903 -0.4708  0.0320 -0.1710
 2463TIP3   OH228879   1.516   4.608   4.698  0.4174 -0.3397 -0.0484
 2463TIP3    H128880   1.517   4.674   4.629  0.8194 -0.2948 -0.0061
 2463TIP3    H228881   1.492   4.655   4.777  1.2847 -0.1124  0.0974
 2464TIP3   OH228882   1.112   4.905   2.111  0.0939  0.5227 -0.1308
 2464TIP3    H128883   1.030   4.955   2.107  0.1088  0.5449 -0.1551
 2464TIP3    H228884   1.097   4.830   2.054 -0.1891  0.1250  0.4545
 2465TIP3   OH228885   6.849   6.814  15.367  0.1025  0.5961 -0.5469
 2465TIP3    H128886   6.857   6.730  15.413 -2.7737  0.7339  0.4246
 2465TIP3    H228887   6.891   6.877  15.425 -1.7046  0.4448  1.0558
 2466TIP3   OH228888   3.612   5.595   4.343  0.0341 -0.5646  0.4599
 2466TIP3    H128889   3.585   5.685   4.361 -0.6036 -0.3188 -1.4404
 2466TIP3    H228890   3.708   5.599   4.340  0.1408 -0.4975  2.8152
 2467TIP3   OH228891   4.458   2.972  16.016 -0.5241  0.0950 -1.0062
 2467TIP3    H128892   4.534   3.019  16.051 -0.3083 -1.8992  1.4820
 2467TIP3    H228893   4.384   3.032  16.031  0.1161  0.7786 -0.5034
 2468TIP3   OH228894   2.713   5.576  14.864 -0.0119 -0.7630 -0.1063
 2468TIP3    H128895   2.726   5.512  14.794  0.0348 -0.5963 -0.2518
 2468TIP3    H228896   2.624   5.561  14.895  0.3319 -1.5653  0.5355
 2469TIP3   OH228897   2.075   1.829  11.096 -0.1207  0.0970  0.4432
 2469TIP3    H128898   2.039   1.873  11.174  1.0184 -0.1071  1.1017
 2469TIP3    H228899   2.108   1.746  11.129  0.3454 -0.0033 -0.2686
 2470TIP3   OH228900   2.944   3.102  13.578  0.1607  0.2965  0.0027
 2470TIP3    H128901   3.003   3.039  13.620 -1.2117 -1.3364 -0.4048
 2470TIP3    H228902   2.884   3.128  13.648  0.8997  1.4486  0.2469
 2471TIP3   OH228903   2.720   1.123  12.855 -0.0268  0.1931 -0.3475
 2471TIP3    H128904   2.727   1.131  12.760  0.4430  0.2577 -0.3131
 2471TIP3    H228905   2.735   1.212  12.888 -1.0531  0.3437 -0.2483
 2472TIP3   OH228906   0.276   6.048   0.684  0.2790  0.3506 -0.6475
 2472TIP3    H128907   0.241   6.054   0.773  0.4691 -1.0772 -0.4605
 2472TIP3    H228908   0.364   6.014   0.694  0.4300  0.5031 -1.3669
 2473TIP3   OH228909   5.351   6.829  14.708  0.0193 -0.0298  0.7371
 2473TIP3    H128910   5.432   6.872  14.680 -0.8007  1.2807  0.3283
 2473TIP3    H228911   5.282   6.871  14.658 -0.8202 -2.0321  0.1059
 2474TIP3   OH228912   4.570   0.252  15.160 -0.2444 -0.7537  0.4942
 2474TIP3    H128913   4.567   0.188  15.089 -1.5400 -0.7422  0.5029
 2474TIP3    H228914   4.629   0.214  15.225 -0.7664 -1.8163  0.3731
 2475TIP3   OH228915   3.790   5.904   5.525 -0.3710  0.0481 -0.5349
 2475TIP3    H128916   3.714   5.921   5.580 -0.0400  1.2222 -0.4137
 2475TIP3    H228917   3.850   5.976   5.544 -1.0133  1.6246 -3.7789
 2476TIP3   OH228918   5.273   6.344  12.564 -0.2844  0.4390  0.0585
 2476TIP3    H128919   5.291   6.386  12.480  1.4822  1.3623  0.8398
 2476TIP3    H228920   5.333   6.269  12.567  1.2327  1.6324  1.3299
 2477TIP3   OH228921   5.655   1.773   1.192  0.5418 -0.0228 -0.5477
 2477TIP3    H128922   5.586   1.825   1.233 -1.0672 -2.4877  0.1060
 2477TIP3    H228923   5.682   1.823   1.115 -2.5982  0.6770 -1.3187
 2478TIP3   OH228924   2.394   6.169  10.577 -0.0790  0.2234  0.4884
 2478TIP3    H128925   2.320   6.111  10.591  0.7758 -1.6926 -2.0286
 2478TIP3    H228926   2.367   6.225  10.504  0.0925  1.1553  1.1279
 2479TIP3   OH228927   1.383   2.126  10.682 -0.1441  0.5642  0.1175
 2479TIP3    H128928   1.307   2.072  10.660  0.0579 -0.4588  1.7814
 2479TIP3    H228929   1.349   2.215  10.686 -1.1271  0.1955  0.2242
 2480TIP3   OH228930   3.062   2.766  10.354  0.4216  0.2711  0.1692
 2480TIP3    H128931   3.056   2.714  10.433  2.1409 -2.6417 -1.4376
 2480TIP3    H228932   2.978   2.755  10.310  1.0864 -2.1413 -0.6217
 2481TIP3   OH228933   3.064   0.540   4.752  0.0400  0.1300  0.2023
 2481TIP3    H128934   3.026   0.542   4.839  0.9310  0.9323  0.5888
 2481TIP3    H228935   3.093   0.630   4.736 -1.3005  0.3137 -1.4709
 2482TIP3   OH228936   5.091   5.792  14.521 -0.6000  0.1168 -0.5344
 2482TIP3    H128937   5.056   5.729  14.584  0.8084 -0.0091  0.1478
 2482TIP3    H228938   5.092   5.744  14.438  0.3788 -0.7676 -0.0374
 2483TIP3   OH228939   5.645   4.680  15.515 -0.1590  0.3041  0.2686
 2483TIP3    H128940   5.694   4.602  15.489 -1.8328 -1.1928  1.3640
 2483TIP3    H228941   5.685   4.751  15.465  2.1580 -1.0372  0.0530
 2484TIP3   OH228942   2.678   6.176   2.654 -0.1186  0.0964  0.0007
 2484TIP3    H128943   2.635   6.105   2.607  0.2272  0.0283 -0.2109
 2484TIP3    H228944   2.637   6.256   2.619  1.1995  0.1436 -1.5397
 2485TIP3   OH228945   4.796   2.894  13.392 -0.2604 -0.6892 -0.6120
 2485TIP3    H128946   4.749   2.820  13.353  2.3032 -1.8068 -1.8341
 2485TIP3    H228947   4.876   2.855  13.428  0.5514  1.3024 -0.1322
 2486TIP3   OH228948   4.224   2.757   2.881 -0.5730 -0.3582 -0.4689
 2486TIP3    H128949   4.186   2.833   2.837 -0.4202 -0.2617 -0.4350
 2486TIP3    H228950   4.185   2.758   2.969  0.8521  0.7918  0.2003
 2487TIP3   OH228951   5.643   5.285  11.359 -0.2259 -0.5726 -0.1245
 2487TIP3    H128952   5.678   5.368  11.392 -1.0427 -0.4411  0.4245
 2487TIP3    H228953   5.550   5.300  11.347 -0.0846 -0.8414 -1.8618
 2488TIP3   OH228954   0.261   3.817  11.768 -0.2127  0.4088 -0.0722
 2488TIP3    H128955   0.252   3.821  11.673  0.3790 -0.4281 -0.1766
 2488TIP3    H228956   0.199   3.882  11.801 -0.9349  0.2099 -1.0005
 2489TIP3   OH228957   2.457   1.969  13.950 -0.1110 -0.4545  0.1531
 2489TIP3    H128958   2.500   1.960  14.035 -0.3794 -0.6527  0.2691
 2489TIP3    H228959   2.388   2.035  13.965 -1.7831 -2.2519  0.7395
 2490TIP3   OH228960   4.628   0.034  11.088 -0.7155 -0.3824 -0.3103
 2490TIP3    H128961   4.657   0.029  11.179 -0.5005  0.7305 -0.3063
 2490TIP3    H228962   4.577  -0.046  11.075 -1.4224 -0.1862  1.0317
 2491TIP3   OH228963   1.513   1.477   1.489  0.1833  0.7370 -0.2551
 2491TIP3    H128964   1.428   1.490   1.530  0.2684 -3.4070  1.7595
 2491TIP3    H228965   1.577   1.505   1.555  0.3039 -0.1682  0.0379
 2492TIP3   OH228966   4.719   0.547   2.247 -0.6489  0.0869 -0.2079
 2492TIP3    H128967   4.668   0.523   2.324  1.3714 -0.9540  0.8726
 2492TIP3    H228968   4.761   0.465   2.219  1.2851  1.0983 -0.3799
 2493TIP3   OH228969   4.443   4.309   0.583 -0.1536  0.2783 -0.2289
 2493TIP3    H128970   4.491   4.390   0.566 -0.9456  0.8251  0.0550
 2493TIP3    H228971   4.386   4.330   0.657 -1.6926  0.0393 -1.2963
 2494TIP3   OH228972   6.566   0.487  11.163  0.3078 -0.1980 -0.0952
 2494TIP3    H128973   6.620   0.565  11.174 -0.8078  0.7094 -0.7590
 2494TIP3    H228974   6.617   0.430  11.106  1.1856 -0.0024  0.4797
 2495TIP3   OH228975   0.970   2.337  12.743  0.7749  0.0716  0.1194
 2495TIP3    H128976   1.057   2.298  12.733  0.5504 -0.5418  0.4783
 2495TIP3    H228977   0.916   2.291  12.679  0.4394 -0.4292  0.7524
 2496TIP3   OH228978   1.175   2.067   1.329  0.1037  0.1331 -0.2540
 2496TIP3    H128979   1.237   2.004   1.367 -0.6466 -0.8461 -0.6173
 2496TIP3    H228980   1.208   2.084   1.241 -0.6389 -1.1340 -0.8027
 2497TIP3   OH228981   1.588   5.273   3.799  0.0933  0.0880  0.4270
 2497TIP3    H128982   1.647   5.220   3.853 -0.7006  0.1478  1.3918
 2497TIP3    H228983   1.596   5.361   3.836 -2.6789 -0.4029  2.5133
 2498TIP3   OH228984   4.820   2.979  14.042 -0.4919  0.3998 -0.8593
 2498TIP3    H128985   4.848   3.060  14.085 -0.6667  0.5284 -0.9896
 2498TIP3    H228986   4.880   2.969  13.969  0.5658 -0.4392  0.0871
 2499TIP3   OH228987   0.936   3.281  10.090  0.4233 -0.2728  0.6590
 2499TIP3    H128988   0.971   3.228  10.162  2.6583 -1.8184 -1.3971
 2499TIP3    H228989   0.997   3.353  10.080  1.5310 -1.3885 -1.1285
 2500TIP3   OH228990   4.339   4.522   3.151  0.3834  0.1501 -0.1399
 2500TIP3    H128991   4.246   4.522   3.127  0.5915 -0.6509 -0.9739
 2500TIP3    H228992   4.383   4.475   3.080  1.5945  1.4806 -0.3383
 2501TIP3   OH228993   0.450   5.266  16.143  0.1537  0.1668 -0.4211
 2501TIP3    H128994   0.415   5.270  16.232 -0.6888  0.8927 -0.7719
 2501TIP3    H228995   0.512   5.193  16.146 -0.4633 -0.3528  0.5468
 2502TIP3   OH228996   2.130   6.201  17.062 -0.7978  0.4993 -0.2253
 2502TIP3    H128997   2.098   6.198  17.152 -2.4496  2.2178 -0.6940
 2502TIP3    H228998   2.096   6.120  17.022  0.3422 -0.5108  0.7684
 2503TIP3   OH228999   0.109   2.071  15.407 -0.6279  0.1382  0.1955
 2503TIP3    H129000   0.079   2.128  15.336 -1.7928 -0.2804  0.3365
 2503TIP3    H229001   0.087   2.120  15.487 -1.4103 -0.3861  0.3103
 2504TIP3   OH229002   3.946   0.141  14.368 -0.2562  0.1386 -0.4264
 2504TIP3    H129003   4.018   0.201  14.387 -0.1435 -0.0003 -0.4168
 2504TIP3    H229004   3.948   0.131  14.273  2.4297 -3.1693 -0.2044
 2505TIP3   OH229005   4.007   5.801  11.685  0.5350  0.1659 -0.3960
 2505TIP3    H129006   4.089   5.850  11.690  2.0527 -2.2615  4.5618
 2505TIP3    H229007   3.950   5.844  11.749  0.3846 -1.8552  0.9178
 2506TIP3   OH229008   4.342   3.920   3.338 -0.4449  0.2475  0.4606
 2506TIP3    H129009   4.247   3.931   3.330 -0.5399 -0.9585 -0.2900
 2506TIP3    H229010   4.374   3.925   3.247  0.2840  1.1181  0.7426
 2507TIP3   OH229011   2.034   3.892   5.894 -0.2910  0.2337 -0.6401
 2507TIP3    H129012   2.098   3.824   5.876  0.9245  1.3845 -0.8369
 2507TIP3    H229013   2.083   3.958   5.944 -2.1146 -0.2874  2.0617
 2508TIP3   OH229014   2.854   4.610   2.821 -0.5761 -0.5297  0.4818
 2508TIP3    H129015   2.846   4.705   2.829 -0.3770 -0.6355  2.3182
 2508TIP3    H229016   2.844   4.578   2.910  2.5651 -2.0000  0.4238
 2509TIP3   OH229017   3.887   5.225  15.115 -0.2512  0.2345 -0.0801
 2509TIP3    H129018   3.892   5.243  15.021  0.8967 -0.3065 -0.1367
 2509TIP3    H229019   3.858   5.307  15.154  0.0835  0.7154 -0.8245
 2510TIP3   OH229020   2.547   3.925  12.163  0.1698 -0.2675  0.2451
 2510TIP3    H129021   2.562   3.991  12.230  3.0762  0.8834 -1.3257
 2510TIP3    H229022   2.456   3.937  12.136  0.1232  1.9320  1.2199
 2511TIP3   OH229023   1.938   3.512   0.607 -0.0316  0.6507  0.3029
 2511TIP3    H129024   2.024   3.494   0.569  0.1554 -1.0233  1.4219
 2511TIP3    H229025   1.919   3.603   0.582  0.9692  0.2902 -2.0118
 2512TIP3   OH229026   2.045   4.966   4.593  0.1519 -0.1264 -0.6980
 2512TIP3    H129027   1.956   4.939   4.615  0.9428 -0.9486  1.8550
 2512TIP3    H229028   2.102   4.907   4.643  2.0841  1.6174 -0.6751
 2513TIP3   OH229029   6.075   3.463  14.484  0.4260 -0.0019 -0.1681
 2513TIP3    H129030   6.070   3.373  14.517 -0.6064 -0.1892 -0.7846
 2513TIP3    H229031   5.994   3.504  14.514 -0.5381 -0.1703 -2.3453
 2514TIP3   OH229032   2.311   5.042   4.281  0.2763  0.6828  0.1413
 2514TIP3    H129033   2.389   5.017   4.330 -1.0081 -0.8125  1.5366
 2514TIP3    H229034   2.264   5.101   4.339  0.1264  1.2028 -0.4973
 2515TIP3   OH229035   2.635   4.146   1.062  0.4925 -0.1694 -0.0663
 2515TIP3    H129036   2.665   4.153   0.971  1.4949  1.6740  0.3580
 2515TIP3    H229037   2.653   4.055   1.085 -0.2058 -0.8029 -1.8304
 2516TIP3   OH229038   5.536   2.913  12.010  0.1772 -0.0277  0.4212
 2516TIP3    H129039   5.463   2.904  12.072 -0.1291 -0.5665 -0.0142
 2516TIP3    H229040   5.591   2.837  12.028  1.3723  1.0757  1.6914
 2517TIP3   OH229041   3.461   4.799   2.579  0.1028 -0.2417 -0.0995
 2517TIP3    H129042   3.390   4.803   2.643 -0.7424 -1.5408 -0.9099
 2517TIP3    H229043   3.445   4.874   2.522 -2.3056 -1.9592 -1.8921
 2518TIP3   OH229044   3.816   3.072  15.662  0.4700  0.0835 -0.1356
 2518TIP3    H129045   3.803   3.161  15.630 -0.3751  0.3509  0.8723
 2518TIP3    H229046   3.728   3.033  15.660  0.4654 -0.0386  1.3229
 2519TIP3   OH229047   2.079   6.144  14.862  0.0559 -0.3839  0.1187
 2519TIP3    H129048   2.078   6.051  14.841 -3.2581 -0.4421  0.0387
 2519TIP3    H229049   2.130   6.150  14.943  1.3212 -2.0523 -0.5137
 2520TIP3   OH229050   5.243   2.632  15.498 -0.3340 -0.1214  0.1538
 2520TIP3    H129051   5.248   2.540  15.527 -0.6439 -0.5218 -1.0077
 2520TIP3    H229052   5.331   2.667  15.515  0.2354 -1.0626 -0.7426
 2521TIP3   OH229053   6.467   5.189  13.176 -0.5460  0.2719 -0.0275
 2521TIP3    H129054   6.387   5.148  13.211 -2.1155  1.4274 -2.0225
 2521TIP3    H229055   6.482   5.144  13.093  1.5996 -0.6848  0.8125
 2522TIP3   OH229056   0.048   5.573  14.704 -0.9887 -0.1424  0.2097
 2522TIP3    H129057   0.113   5.601  14.639 -1.0892  0.5927  0.4288
 2522TIP3    H229058  -0.007   5.510  14.656 -0.2585 -0.6112 -0.0383
 2523TIP3   OH229059   2.112   5.934   5.392  0.1529 -0.1169  0.0799
 2523TIP3    H129060   2.091   5.841   5.381 -1.9816  0.2350  0.7551
 2523TIP3    H229061   2.137   5.942   5.484  1.5723 -0.1829 -0.2633
 2524TIP3   OH229062   4.619   5.105  10.931 -0.0029  0.0094 -0.5693
 2524TIP3    H129063   4.572   5.045  10.873  0.0666  1.0843 -1.7747
 2524TIP3    H229064   4.557   5.176  10.948  0.8172  0.9433 -1.3731
 2525TIP3   OH229065   1.669   6.508   3.265  0.0687  0.1181 -0.5111
 2525TIP3    H129066   1.675   6.485   3.172  1.0651  2.1348 -0.9989
 2525TIP3    H229067   1.727   6.446   3.309  2.1166  1.0947 -1.6760
 2526TIP3   OH229068   0.813   3.804  16.180  0.0164  0.4588 -0.1291
 2526TIP3    H129069   0.853   3.881  16.220  2.0396 -0.4993 -0.1744
 2526TIP3    H229070   0.780   3.836  16.096 -1.3590  1.7647  0.8465
 2527TIP3   OH229071   2.917   1.164  13.557 -0.2610 -0.1668  1.0367
 2527TIP3    H129072   2.859   1.092  13.532 -1.0494  1.0690 -0.8860
 2527TIP3    H229073   2.860   1.241  13.562  1.1860  1.2094 -1.5114
 2528TIP3   OH229074   3.440   4.158   2.210 -0.7917  0.7574  0.9864
 2528TIP3    H129075   3.423   4.120   2.123 -0.6217  1.2365  0.7402
 2528TIP3    H229076   3.462   4.083   2.265  0.8544  0.6184  0.1791
 2529TIP3   OH229077   3.576   5.681   0.119  0.0612 -0.4217  0.4843
 2529TIP3    H129078   3.515   5.608   0.111  0.0485 -0.7422  2.7108
 2529TIP3    H229079   3.525   5.758   0.091  0.0772 -1.1957 -1.8681
 2530TIP3   OH229080   1.390   4.417  11.380  0.6760  0.2438 -0.1681
 2530TIP3    H129081   1.478   4.421  11.344  0.7960 -0.8632 -0.0289
 2530TIP3    H229082   1.403   4.424  11.475  0.5463  0.8610 -0.1931
 2531TIP3   OH229083   5.027   1.993   2.322  0.1520  0.2009  0.1219
 2531TIP3    H129084   4.964   2.016   2.390  1.4141 -1.9822  2.2107
 2531TIP3    H229085   5.101   2.052   2.337  0.3731 -0.1871  0.6114
 2532TIP3   OH229086   5.366   1.403   3.760  0.1217  0.3784  0.5579
 2532TIP3    H129087   5.296   1.447   3.712  1.4139  1.4891 -0.3756
 2532TIP3    H229088   5.446   1.447   3.732  1.2227 -0.9362  1.5018
 2533TIP3   OH229089   4.098   1.418  13.106  0.0236  0.1407 -0.3057
 2533TIP3    H129090   4.127   1.489  13.164  0.3280  0.1649 -0.4832
 2533TIP3    H229091   4.007   1.402  13.132  0.2208  0.0031  0.3314
 2534TIP3   OH229092   2.944   6.231  13.602 -0.0153 -0.2179 -0.2604
 2534TIP3    H129093   2.918   6.303  13.543  0.2834 -0.5567 -0.8116
 2534TIP3    H229094   3.039   6.230  13.599  0.2529  1.8746  2.7854
 2535TIP3   OH229095   3.033   5.911   4.397 -0.0579 -0.4493 -0.0178
 2535TIP3    H129096   3.121   5.888   4.425  0.7007 -1.7413 -3.0217
 2535TIP3    H229097   2.991   5.828   4.375 -1.3259  0.2761 -0.4846
 2536TIP3   OH229098   2.182   6.555   1.753 -0.3967  0.0862 -0.5744
 2536TIP3    H129099   2.236   6.581   1.678  0.0011  0.9444 -0.0071
 2536TIP3    H229100   2.179   6.633   1.807 -1.3313 -0.2952 -0.0743
 2537TIP3   OH229101   3.713   6.763   1.138  0.3267 -0.1583  0.5398
 2537TIP3    H129102   3.723   6.855   1.113  0.1728  0.4617  2.5856
 2537TIP3    H229103   3.624   6.756   1.172 -0.1373 -1.4185 -0.8143
 2538TIP3   OH229104   1.201   0.229   4.083  0.1225 -0.0273 -0.2021
 2538TIP3    H129105   1.213   0.247   4.176 -1.2828 -1.3739  0.2901
 2538TIP3    H229106   1.106   0.233   4.070  0.2690 -0.2383 -1.4932
 2539TIP3   OH229107   6.616   1.132   5.399  0.1932 -0.2381  0.4394
 2539TIP3    H129108   6.691   1.073   5.412  0.7289  0.7485  2.2035
 2539TIP3    H229109   6.655   1.211   5.360 -0.3337 -0.6158 -0.8691
 2540TIP3   OH229110   5.886   4.234   1.546 -0.4426 -0.2881  0.1653
 2540TIP3    H129111   5.813   4.183   1.580 -0.4539 -0.7837 -0.5615
 2540TIP3    H229112   5.924   4.178   1.478 -0.8963  0.9652 -1.1647
 2541TIP3   OH229113   0.115   6.082  12.059 -0.2716 -0.0288  0.3400
 2541TIP3    H129114   0.170   6.004  12.063 -1.1956 -0.7556 -0.5567
 2541TIP3    H229115   0.026   6.050  12.074 -0.6338  0.8840  0.2037
 2542TIP3   OH229116   6.812   1.714  16.168  0.4299  0.4442  0.2319
 2542TIP3    H129117   6.810   1.623  16.198 -2.6062  0.1614 -0.4462
 2542TIP3    H229118   6.851   1.710  16.081 -0.0820 -0.3151  0.0262
 2543TIP3   OH229119   6.400   2.287   3.566  0.1621 -0.3069 -0.4421
 2543TIP3    H129120   6.330   2.230   3.534 -0.4753 -0.0850  0.5189
 2543TIP3    H229121   6.473   2.271   3.506 -0.6811 -0.6014 -1.4207
 2544TIP3   OH229122   3.521   2.945  17.069 -0.3849 -0.2713  0.4585
 2544TIP3    H129123   3.453   2.975  17.129 -0.6953  0.2887 -0.1696
 2544TIP3    H229124   3.473   2.912  16.992  0.0041 -1.0745  0.5426
 2545TIP3   OH229125   4.658   3.021   3.987 -0.2099  0.1191 -0.0931
 2545TIP3    H129126   4.685   3.094   4.042  0.8333  0.0993 -0.5539
 2545TIP3    H229127   4.576   3.051   3.946 -1.1652  0.0264  1.6243
 2546TIP3   OH229128   1.843   0.533  13.008 -0.2127 -0.7160 -0.1518
 2546TIP3    H129129   1.845   0.611  13.064  1.5852  1.2062 -2.6330
 2546TIP3    H229130   1.751   0.522  12.984 -0.3225  1.8397 -1.1853
 2547TIP3   OH229131   0.916   6.564   3.892  0.0494 -0.3679  0.1731
 2547TIP3    H129132   0.853   6.530   3.956 -0.6458  1.0021  0.2477
 2547TIP3    H229133   0.919   6.658   3.909  3.1185 -0.5263  1.0543
 2548TIP3   OH229134   3.274   5.566   0.397 -0.0396 -0.3250 -0.5009
 2548TIP3    H129135   3.330   5.641   0.414 -1.9394  0.9929  0.3118
 2548TIP3    H229136   3.201   5.602   0.345 -1.1393 -1.5284  0.1619
 2549TIP3   OH229137   6.022   5.038  12.757 -0.1595  0.5200  0.1626
 2549TIP3    H129138   5.973   5.009  12.834 -0.6294  2.7378  0.7717
 2549TIP3    H229139   5.958   5.084  12.704  0.2843 -0.5332 -1.3243
 2550TIP3   OH229140   0.641   0.454  16.221 -0.4091  0.3971  0.1425
 2550TIP3    H129141   0.674   0.502  16.297  2.2751  0.5520 -1.0103
 2550TIP3    H229142   0.639   0.519  16.151 -1.8330  0.0005 -0.2278
 2551TIP3   OH229143   6.362   2.586   1.547 -0.0124  0.5239 -0.8684
 2551TIP3    H129144   6.270   2.596   1.570  0.2044 -1.0729  1.0039
 2551TIP3    H229145   6.371   2.493   1.524  1.1755  0.5973 -0.7532
 2552TIP3   OH229146   1.204   6.627   5.216  0.3757  0.9567 -0.2946
 2552TIP3    H129147   1.261   6.617   5.293 -2.7810 -2.2842  1.9796
 2552TIP3    H229148   1.152   6.705   5.235 -1.5102 -0.6884  1.9471
 2553TIP3   OH229149   2.008   1.437  15.678 -0.6277 -0.2443 -0.3636
 2553TIP3    H129150   1.921   1.410  15.649  0.7922 -3.7170 -1.8447
 2553TIP3    H229151   2.055   1.457  15.597  1.0526 -2.2660  0.0324
 2554TIP3   OH229152   1.948   1.398   3.156  0.3379  0.3571 -0.5473
 2554TIP3    H129153   2.009   1.465   3.187  0.3339  0.3424 -0.5076
 2554TIP3    H229154   1.888   1.384   3.229  1.1916 -0.7028 -0.0189
 2555TIP3   OH229155   6.363   3.346  16.013  0.2830 -0.1427  0.1463
 2555TIP3    H129156   6.300   3.386  15.953 -0.0278 -0.2855  0.3738
 2555TIP3    H229157   6.310   3.313  16.085  0.4848 -1.3264 -0.2153
 2556TIP3   OH229158   3.042   0.249   2.638  0.4239  0.3539 -0.2859
 2556TIP3    H129159   2.969   0.256   2.700  1.2464  0.7015  0.6575
 2556TIP3    H229160   3.072   0.339   2.626  0.3939  0.2652 -1.0514
 2557TIP3   OH229161   3.690   4.933  11.897 -0.4188 -0.4170 -0.0302
 2557TIP3    H129162   3.734   4.991  11.959 -0.7345 -0.7837  0.5436
 2557TIP3    H229163   3.729   4.847  11.913  0.0944 -0.3643 -0.9226
 2558TIP3   OH229164   0.238   0.602  13.809 -0.0128  0.3504  0.1066
 2558TIP3    H129165   0.197   0.688  13.810 -1.1811 -0.1828  0.9187
 2558TIP3    H229166   0.235   0.573  13.900 -0.7722 -1.0636 -0.3397
 2559TIP3   OH229167   5.880   4.121   3.180  0.5108 -0.0624 -0.4150
 2559TIP3    H129168   5.868   4.027   3.166  1.8288 -0.2003 -0.7833
 2559TIP3    H229169   5.958   4.143   3.128  2.5860  0.4332  2.6509
 2560TIP3   OH229170   1.523   6.734  16.433 -0.1725 -0.6020  0.8725
 2560TIP3    H129171   1.504   6.768  16.345  0.7495 -3.2267 -0.4458
 2560TIP3    H229172   1.444   6.686  16.457  0.1585 -1.2043  0.7726
 2561TIP3   OH229173   4.088   4.910  13.844 -0.3451  0.2395 -0.0282
 2561TIP3    H129174   4.074   4.913  13.939 -1.8437  2.1730 -0.2305
 2561TIP3    H229175   4.173   4.953  13.831 -0.1400 -0.0211  0.4220
 2562TIP3   OH229176   6.766   5.875  14.697  0.2405  0.5783  0.2425
 2562TIP3    H129177   6.700   5.811  14.668  0.6044  0.3675 -0.1293
 2562TIP3    H229178   6.835   5.870  14.631  1.5611 -0.6092  1.6387
 2563TIP3   OH229179   3.105   2.240  12.093  1.1638 -0.9428 -0.4623
 2563TIP3    H129180   3.170   2.310  12.088 -0.1510  0.2711 -1.3994
 2563TIP3    H229181   3.032   2.271  12.039 -0.8604 -1.5302  1.7422
 2564TIP3   OH229182   2.090   1.332  13.121  0.2136 -0.6102 -0.4236
 2564TIP3    H129183   2.148   1.277  13.174  2.7909  0.4381 -1.9785
 2564TIP3    H229184   2.064   1.276  13.048 -0.8713 -1.0849  0.2819
 2565TIP3   OH229185   5.816   0.533  16.424  1.0656  0.1290 -0.0856
 2565TIP3    H129186   5.892   0.532  16.366 -0.6209  1.0383 -2.4689
 2565TIP3    H229187   5.793   0.625  16.432 -1.1178 -0.2287 -1.4059
 2566TIP3   OH229188   4.002   0.906  14.072  0.5025  0.0081 -0.1724
 2566TIP3    H129189   3.934   0.944  14.128  0.5076 -0.2945  0.0385
 2566TIP3    H229190   3.995   0.955  13.990  0.2833  0.2378 -0.0184
 2567TIP3   OH229191   0.609   3.657  10.089 -0.0404  0.5176  0.0123
 2567TIP3    H129192   0.623   3.568  10.123 -0.7651  0.9534  1.4955
 2567TIP3    H229193   0.694   3.700  10.100  0.6230 -0.2469 -1.6614
 2568TIP3   OH229194   2.145   2.277  16.349 -0.2221 -0.0707 -0.4230
 2568TIP3    H129195   2.103   2.322  16.423  0.3744  0.3382 -0.3194
 2568TIP3    H229196   2.076   2.270  16.283 -0.2738  1.2680 -0.5511
 2569TIP3   OH229197   4.452   1.190   5.484 -0.1631  0.0585 -0.0040
 2569TIP3    H129198   4.487   1.148   5.406  1.7182 -1.0493  1.3529
 2569TIP3    H229199   4.521   1.250   5.512 -1.0911  0.9474  0.4347
 2570TIP3   OH229200   6.738   2.845   2.069 -1.0446  0.4981 -0.7026
 2570TIP3    H129201   6.765   2.925   2.025 -1.6806  1.6937  0.9406
 2570TIP3    H229202   6.817   2.793   2.077  0.2850  2.6304  1.4503
 2571TIP3   OH229203   2.442   2.750   5.972  0.1587 -0.3844 -0.5227
 2571TIP3    H129204   2.424   2.656   5.977 -0.3804 -0.4202 -2.3041
 2571TIP3    H229205   2.363   2.787   5.931  1.2369  0.5024 -1.8886
 2572TIP3   OH229206   5.225   1.085   5.768 -0.3497 -0.4351 -0.1177
 2572TIP3    H129207   5.312   1.113   5.741 -0.5047  0.2036  0.0238
 2572TIP3    H229208   5.236   1.059   5.860 -0.3869  0.0714  0.0385
 2573TIP3   OH229209   3.179   2.668   2.291 -0.1787  0.0582 -0.0752
 2573TIP3    H129210   3.128   2.695   2.367 -1.0732 -0.3481 -0.5037
 2573TIP3    H229211   3.229   2.745   2.267 -0.6874  0.5153  0.3017
 2574TIP3   OH229212   5.245   3.144   6.425 -0.3264 -0.1933  0.6199
 2574TIP3    H129213   5.292   3.200   6.364  1.5775 -1.8827  0.4171
 2574TIP3    H229214   5.252   3.189   6.509  2.0599 -0.5014  0.6635
 2575TIP3   OH229215   3.518   5.046  13.042 -0.2698 -0.1768  0.2977
 2575TIP3    H129216   3.457   4.976  13.019  0.2219 -0.9990  1.4111
 2575TIP3    H229217   3.555   5.019  13.126  0.0908  1.3262  0.6571
 2576TIP3   OH229218   1.732   0.191  16.039  0.2622 -0.2882 -0.1208
 2576TIP3    H129219   1.689   0.195  16.125  0.1255 -0.5724 -0.1765
 2576TIP3    H229220   1.790   0.268  16.038  0.5105 -0.4658  0.3552
 2577TIP3   OH229221   5.780   0.744   3.413  0.1710  0.0984  0.3185
 2577TIP3    H129222   5.848   0.724   3.478  0.7527  1.1768  0.0570
 2577TIP3    H229223   5.728   0.812   3.454 -0.4493 -0.3557  0.2972
 2578TIP3   OH229224   6.203   6.086   4.983 -0.2800 -0.4651  0.6894
 2578TIP3    H129225   6.212   6.133   4.900  0.9574  1.0589  1.6346
 2578TIP3    H229226   6.259   6.010   4.974 -1.1671 -1.0349 -0.3234
 2579TIP3   OH229227   2.959   3.212  15.825  0.4403  0.3527  0.0578
 2579TIP3    H129228   3.043   3.253  15.805 -0.0812  1.2541 -0.3189
 2579TIP3    H229229   2.980   3.145  15.890  1.2873  1.3469  0.8407
 2580TIP3   OH229230   2.248   5.807  13.348 -0.1564 -0.1598 -0.1771
 2580TIP3    H129231   2.266   5.901  13.348 -1.5801  0.1839  1.9000
 2580TIP3    H229232   2.331   5.767  13.374 -0.3430  0.8204  2.2156
 2581TIP3   OH229233   4.340   5.949   0.118 -0.4577 -0.5253  0.2123
 2581TIP3    H129234   4.366   6.038   0.142 -0.2701 -0.0844 -1.4904
 2581TIP3    H229235   4.244   5.952   0.120 -0.4651 -0.1075 -0.3788
 2582TIP3   OH229236   2.786   1.073  15.260 -0.1476  0.4282 -0.1574
 2582TIP3    H129237   2.815   1.044  15.173  0.9410 -0.1144  0.3614
 2582TIP3    H229238   2.818   1.163  15.268 -0.3733  0.5278 -0.3721
 2583TIP3   OH229239   0.733   2.311   5.897  0.0050 -0.1755 -0.4356
 2583TIP3    H129240   0.645   2.285   5.872  0.3503 -0.3536 -1.5163
 2583TIP3    H229241   0.786   2.233   5.883  0.1968 -0.3516  1.0941
 2584TIP3   OH229242   3.508   3.290   5.559  0.0771 -0.3737 -0.4572
 2584TIP3    H129243   3.577   3.231   5.589 -0.8516 -0.0313  2.6545
 2584TIP3    H229244   3.427   3.249   5.586 -0.6260  1.9633  1.3243
 2585TIP3   OH229245   1.526   0.620   2.788 -0.8250 -0.0844  0.5487
 2585TIP3    H129246   1.474   0.595   2.865 -1.7534  2.0328  0.6742
 2585TIP3    H229247   1.514   0.714   2.781  2.4896  0.4343  0.1593
 2586TIP3   OH229248   0.925   6.146  16.849 -0.4118  0.5620  0.1506
 2586TIP3    H129249   0.844   6.192  16.829 -0.6121 -0.1307 -0.7108
 2586TIP3    H229250   0.896   6.065  16.891 -0.2478 -0.2337 -1.2293
 2587TIP3   OH229251   0.472   1.594   1.616  0.1575 -0.0117  0.4368
 2587TIP3    H129252   0.409   1.542   1.565 -0.4753  1.1330  0.0071
 2587TIP3    H229253   0.557   1.574   1.577 -0.1985  0.0312 -0.3929
 2588TIP3   OH229254   4.614   2.790  15.260  0.1370 -0.0263 -0.3877
 2588TIP3    H129255   4.705   2.763  15.253 -0.2841 -1.3140 -1.3653
 2588TIP3    H229256   4.617   2.883  15.281  1.6698 -0.5332  1.8651
 2589TIP3   OH229257   3.120   3.447   3.529 -0.1627 -0.1570  0.7795
 2589TIP3    H129258   3.027   3.427   3.540  0.0864 -0.9658  1.6002
 2589TIP3    H229259   3.160   3.418   3.611  0.8678 -0.2117  0.2709
 2590TIP3   OH229260   1.175   5.711  15.062 -0.8579  0.5026  0.1068
 2590TIP3    H129261   1.101   5.755  15.019 -0.9868 -0.6887 -0.9679
 2590TIP3    H229262   1.199   5.642  15.001 -0.5890 -0.8418  1.6817
 2591TIP3   OH229263   0.018   5.959   0.587 -0.2452  0.7234 -1.1126
 2591TIP3    H129264   0.099   5.968   0.637 -0.9218 -1.1351  0.4340
 2591TIP3    H229265   0.046   5.930   0.500  0.7749  0.3066 -0.6593
 2592TIP3   OH229266   2.994   3.773   1.111 -0.2234 -0.4105  0.3067
 2592TIP3    H129267   2.927   3.827   1.155 -0.0201  0.2795 -0.2094
 2592TIP3    H229268   2.989   3.688   1.155 -2.0329 -0.6485 -0.2685
 2593TIP3   OH229269   2.914   5.095   3.557 -0.0092  0.4477  0.4010
 2593TIP3    H129270   2.890   5.188   3.551 -0.8094  0.1872 -0.8665
 2593TIP3    H229271   2.924   5.079   3.650 -0.2516  1.7194  0.6666
 2594TIP3   OH229272   3.139   3.817   0.190  0.8037 -0.4695 -0.2421
 2594TIP3    H129273   3.046   3.804   0.207  1.1347 -0.2540  2.0208
 2594TIP3    H229274   3.142   3.878   0.116 -0.9091  1.6214  1.3117
 2595TIP3   OH229275   4.882   1.169   1.348  0.3116 -0.8634 -0.4967
 2595TIP3    H129276   4.842   1.108   1.286 -0.9129 -0.0164 -0.5707
 2595TIP3    H229277   4.853   1.255   1.319 -1.3249 -0.4957  1.9113
 2596TIP3   OH229278   6.613   3.204   0.209 -0.3058  0.4724  0.1031
 2596TIP3    H129279   6.626   3.185   0.302 -1.8526 -0.4257  0.1686
 2596TIP3    H229280   6.601   3.118   0.168  0.2209  0.8651 -0.9106
 2597TIP3   OH229281   3.245   4.537   2.723 -0.2554  0.3908  0.4710
 2597TIP3    H129282   3.261   4.625   2.758  0.3541  0.0705  1.0154
 2597TIP3    H229283   3.166   4.508   2.768  0.4063  0.0657  1.4429
 2598TIP3   OH229284   4.676   6.247  14.712  0.1227  0.1910  0.1776
 2598TIP3    H129285   4.742   6.306  14.749 -0.6623  0.4255  1.2677
 2598TIP3    H229286   4.669   6.177  14.777 -0.7237  0.1873  0.0910
 2599TIP3   OH229287   4.343   0.374   6.593  0.6688 -0.3770  0.1673
 2599TIP3    H129288   4.380   0.367   6.506  1.4703 -0.1642  0.4872
 2599TIP3    H229289   4.414   0.406   6.648 -0.1523  0.6649  0.6704
 2600TIP3   OH229290   1.489   3.531  15.102  0.4184  0.1595  0.0997
 2600TIP3    H129291   1.555   3.510  15.168 -0.8445  0.5862  1.5555
 2600TIP3    H229292   1.537   3.581  15.035  1.6781 -0.0443  0.8291
 2601TIP3   OH229293   5.836   0.146   3.317 -1.0833 -0.0305 -0.3155
 2601TIP3    H129294   5.873   0.084   3.380  0.8412  0.5449 -0.8063
 2601TIP3    H229295   5.871   0.119   3.232  0.5090  2.1545 -0.4483
 2602TIP3   OH229296   4.821   3.052  11.545  0.6280  0.3752 -0.0738
 2602TIP3    H129297   4.823   2.983  11.478  1.1155  0.1845  0.1288
 2602TIP3    H229298   4.744   3.031  11.599 -0.1657  0.9226 -0.9722
 2603TIP3   OH229299   0.585   5.861  12.937 -0.3987 -0.4628 -0.2745
 2603TIP3    H129300   0.658   5.921  12.950  0.2313 -1.2510 -0.0676
 2603TIP3    H229301   0.508   5.917  12.931  0.2765  0.4248 -1.0248
 2604TIP3   OH229302   3.424   3.266  16.037  0.3705  0.3557  0.2459
 2604TIP3    H129303   3.449   3.326  15.966 -0.1504 -0.4917 -0.6802
 2604TIP3    H229304   3.329   3.268  16.038  0.3468  1.9440  2.3563
 2605TIP3   OH229305   3.398   0.054  14.819 -0.3685  0.3429 -0.0517
 2605TIP3    H129306   3.352   0.111  14.880 -0.4268 -1.0143  1.2397
 2605TIP3    H229307   3.472   0.020  14.869  0.5213  0.4487 -1.2699
 2606TIP3   OH229308   0.334   2.711   2.975  0.0155 -0.1927 -0.1890
 2606TIP3    H129309   0.390   2.781   3.011 -1.1145  1.6676 -1.8222
 2606TIP3    H229310   0.394   2.638   2.962  1.5254  0.8487  0.5305
 2607TIP3   OH229311   1.019   3.543  15.188 -0.2923  0.9645 -0.5084
 2607TIP3    H129312   1.086   3.475  15.188 -0.3512  0.8942 -1.4345
 2607TIP3    H229313   1.066   3.624  15.167 -0.7244  0.6309 -3.0850
 2608TIP3   OH229314   5.083   1.948  15.815  1.3027 -0.2296 -0.3740
 2608TIP3    H129315   4.998   1.991  15.827  0.9059 -0.7914 -1.0713
 2608TIP3    H229316   5.062   1.865  15.771  1.8348 -1.9642  2.3707
 2609TIP3   OH229317   5.958   3.520   5.585 -0.3106  0.6484 -0.0786
 2609TIP3    H129318   5.899   3.512   5.510 -1.6429 -1.0326  1.0765
 2609TIP3    H229319   6.015   3.444   5.580  0.5117  1.2488 -0.1095
 2610TIP3   OH229320   3.378   6.792   5.670  0.1837 -0.0866 -0.7851
 2610TIP3    H129321   3.422   6.722   5.718 -1.9440 -1.6926 -1.0604
 2610TIP3    H229322   3.356   6.857   5.737 -0.1723 -0.9326 -0.0748
 2611TIP3   OH229323   0.628   1.412   0.704 -0.5861  0.0075  0.7330
 2611TIP3    H129324   0.722   1.396   0.701 -0.6391 -0.1676 -0.6919
 2611TIP3    H229325   0.620   1.507   0.716 -0.2591 -0.1064  2.0852
 2612TIP3   OH229326   1.585   2.564  15.384  0.0763 -0.1007  0.2000
 2612TIP3    H129327   1.563   2.658  15.384 -1.1800 -0.3777  0.3109
 2612TIP3    H229328   1.679   2.562  15.369  0.1818  1.1993  0.5095
 2613TIP3   OH229329   3.132   0.206  14.524 -0.2033  0.4254 -0.4005
 2613TIP3    H129330   3.158   0.114  14.519 -0.4633  0.1450  2.1255
 2613TIP3    H229331   3.036   0.203  14.529 -0.2681  0.9088 -1.1957
 2614TIP3   OH229332   0.217   4.597  13.071  0.0858 -0.1510 -0.0380
 2614TIP3    H129333   0.288   4.656  13.098  0.8449 -0.2150 -1.7516
 2614TIP3    H229334   0.150   4.608  13.138  0.7889  1.6071  0.4361
 2615TIP3   OH229335   1.848   5.798  14.951  0.5130  0.3164  0.2506
 2615TIP3    H129336   1.795   5.728  14.913 -0.1488  0.6931  0.4551
 2615TIP3    H229337   1.800   5.825  15.029 -0.6914  2.7634 -1.1864
 2616TIP3   OH229338   6.209   3.660   6.406  0.0501 -0.5503 -0.1631
 2616TIP3    H129339   6.303   3.657   6.425 -0.1943 -0.3176  1.2094
 2616TIP3    H229340   6.191   3.752   6.388  0.3042 -0.7899 -1.7708
 2617TIP3   OH229341   3.099   6.090   2.437  0.2455 -0.1419 -0.5558
 2617TIP3    H129342   3.110   6.100   2.343  1.5032  1.1559 -0.3049
 2617TIP3    H229343   3.039   6.161   2.462  0.6197  0.0688 -0.2536
 2618TIP3   OH229344   6.190   0.590   5.546 -0.3627 -0.1049 -0.3236
 2618TIP3    H129345   6.200   0.502   5.510  1.4321  1.0211 -2.8244
 2618TIP3    H229346   6.276   0.613   5.580 -0.2194  1.4410 -1.6332
 2619TIP3   OH229347   3.649   2.108  12.076  0.1664 -0.5649 -0.2344
 2619TIP3    H129348   3.568   2.059  12.069 -0.9257  1.2844 -1.1359
 2619TIP3    H229349   3.681   2.088  12.164 -2.7190  0.7552  1.2515
 2620TIP3   OH229350   2.730   4.808   1.005  0.0446 -0.1627  0.7756
 2620TIP3    H129351   2.739   4.892   1.051  2.0131  0.6114 -0.8998
 2620TIP3    H229352   2.811   4.799   0.955 -1.1534 -1.9141 -0.9871
 2621TIP3   OH229353   1.025   4.425  16.854  0.1917  0.3567  0.0119
 2621TIP3    H129354   1.006   4.341  16.896  2.1948 -0.3196 -0.3372
 2621TIP3    H229355   1.049   4.483  16.926 -3.9084  1.6169  0.6356
 2622TIP3   OH229356   1.540   0.653  14.726 -0.2842 -0.2340 -0.1510
 2622TIP3    H129357   1.482   0.696  14.663 -0.0495 -0.7751 -0.7366
 2622TIP3    H229358   1.517   0.693  14.810  0.0015  1.1151 -0.6914
 2623TIP3   OH229359   1.583   5.738   0.626  0.1443  0.0075 -0.1619
 2623TIP3    H129360   1.571   5.830   0.650 -0.5641  0.0339 -0.5766
 2623TIP3    H229361   1.672   5.733   0.590 -0.5097  0.9871 -2.0722
 2624TIP3   OH229362   3.491   1.759   6.029  0.3378  0.3124 -0.2994
 2624TIP3    H129363   3.476   1.771   5.936  0.0367  0.0063 -0.2945
 2624TIP3    H229364   3.443   1.679   6.051  0.1531  0.5504  0.1789
 2625TIP3   OH229365   3.801   2.922  13.958 -0.1101 -0.7390 -0.1176
 2625TIP3    H129366   3.829   2.960  14.041  0.9410 -2.3215  0.3102
 2625TIP3    H229367   3.827   2.830  13.964  1.1678 -0.6421 -2.6940
 2626TIP3   OH229368   4.627   2.525  15.955  0.2340  0.0096  0.0926
 2626TIP3    H129369   4.718   2.499  15.938  0.8498  1.5228  0.8643
 2626TIP3    H229370   4.612   2.596  15.893 -0.1704  0.2466  0.4603
 2627TIP3   OH229371   5.211   4.346  11.845  0.1005 -0.5934  0.3680
 2627TIP3    H129372   5.169   4.418  11.800 -1.0134 -0.5078  1.4947
 2627TIP3    H229373   5.298   4.339  11.804  0.5939  1.9622  0.8377
 2628TIP3   OH229374   1.150   6.493  13.628 -0.2936 -0.1128  0.3572
 2628TIP3    H129375   1.105   6.498  13.544  1.5168  0.2931 -0.6491
 2628TIP3    H229376   1.234   6.452  13.608  0.5186  0.7371  1.8220
 2629TIP3   OH229377   1.708   5.077   5.412  0.1382 -0.4416 -0.5347
 2629TIP3    H129378   1.696   4.988   5.379  1.7553 -0.9291  0.1087
 2629TIP3    H229379   1.735   5.065   5.503 -0.4376  0.7552 -0.1885
 2630TIP3   OH229380   5.956   0.918  16.835  0.5853  0.6634  0.3521
 2630TIP3    H129381   6.030   0.950  16.783 -0.5857  0.6512 -1.4089
 2630TIP3    H229382   5.961   0.823  16.829  0.7432  0.6470  0.7115
 2631TIP3   OH229383   3.623   3.598  15.382 -0.0888  0.4018  0.3005
 2631TIP3    H129384   3.537   3.572  15.415 -0.9500  2.2974 -0.3295
 2631TIP3    H229385   3.605   3.665  15.317  1.8591  0.4452 -0.2640
 2632TIP3   OH229386   4.379   1.565  12.314  0.2440  0.1700  0.4130
 2632TIP3    H129387   4.298   1.596  12.275  0.5159  0.0453 -0.2711
 2632TIP3    H229388   4.436   1.546  12.239  1.0504  0.6429  0.8903
 2633TIP3   OH229389   1.508   5.738   2.756 -0.1284  0.2984 -0.5046
 2633TIP3    H129390   1.561   5.778   2.687  2.7578  2.8182  2.7496
 2633TIP3    H229391   1.454   5.809   2.790 -0.7753 -0.5929  0.4032
 2634TIP3   OH229392   4.992   6.401   3.387 -0.7408  0.2104  0.7252
 2634TIP3    H129393   5.054   6.409   3.315 -0.2709 -0.7868  0.9886
 2634TIP3    H229394   5.004   6.311   3.418 -2.8487 -0.2606  0.3015
 2635TIP3   OH229395   2.715   6.852  13.324  0.0169  0.3770  0.7699
 2635TIP3    H129396   2.650   6.888  13.264  0.3354  1.6736  1.1733
 2635TIP3    H229397   2.791   6.834  13.269 -0.5749 -0.9760  0.3303
 2636TIP3   OH229398   5.063   2.248  16.535  0.2996 -0.0711 -0.0107
 2636TIP3    H129399   5.153   2.229  16.561  0.8215  0.6123 -1.2416
 2636TIP3    H229400   5.070   2.279  16.444 -1.1243  0.3997  0.0140
 2637TIP3   OH229401   0.467   0.823  14.876  0.0001  0.2491 -0.1382
 2637TIP3    H129402   0.429   0.910  14.891  0.1420  0.4842 -1.0781
 2637TIP3    H229403   0.405   0.780  14.817  0.5498  0.1851 -0.6872
 2638TIP3   OH229404   4.862   5.176  16.393 -0.0243  0.2910  0.3203
 2638TIP3    H129405   4.777   5.141  16.366 -0.7103  0.5265  2.0380
 2638TIP3    H229406   4.904   5.105  16.441  0.2489  0.5476  0.4675
 2639TIP3   OH229407   5.519   2.509  16.838 -0.0496  1.0219 -0.1633
 2639TIP3    H129408   5.487   2.571  16.903  0.0958  0.7997  0.1199
 2639TIP3    H229409   5.462   2.433  16.848  0.5056  0.6586  0.2807
 2640TIP3   OH229410   5.143   3.433  13.019  0.2246  0.2714  0.6439
 2640TIP3    H129411   5.204   3.456  13.089 -0.5756  1.4775  0.9633
 2640TIP3    H229412   5.157   3.498  12.951 -0.5633  0.4556  0.6412
 2641TIP3   OH229413   1.812   0.674  13.736 -0.2961 -0.1554  0.4328
 2641TIP3    H129414   1.883   0.732  13.764 -0.2024 -0.4570  0.8366
 2641TIP3    H229415   1.755   0.666  13.813 -0.0259 -1.0057  0.5609
 2642TIP3   OH229416   4.465   1.191   0.200 -0.1180  0.6311  0.1228
 2642TIP3    H129417   4.474   1.244   0.120 -0.6403  0.7652  0.1518
 2642TIP3    H229418   4.373   1.197   0.223 -0.1820 -0.2687  0.1458
 2643TIP3   OH229419   3.714   5.365   4.769  0.3440 -0.0953 -0.2606
 2643TIP3    H129420   3.732   5.457   4.788 -0.1624 -0.2086  0.7951
 2643TIP3    H229421   3.776   5.344   4.699 -1.4929  1.8442 -2.6684
 2644TIP3   OH229422   4.732   3.299   1.356 -0.3428  0.0900 -0.1091
 2644TIP3    H129423   4.768   3.217   1.323  1.0820  1.3875 -1.9779
 2644TIP3    H229424   4.785   3.367   1.315 -1.0001  1.9649  1.9391
 2645TIP3   OH229425   1.562   6.827  12.912 -0.7744  0.3959  0.0773
 2645TIP3    H129426   1.554   6.922  12.907  2.4779  0.7170 -2.8352
 2645TIP3    H229427   1.516   6.795  12.835 -1.2600 -0.3690  0.6694
 2646TIP3   OH229428   0.154   1.639  11.187  0.1417  0.2607  0.4713
 2646TIP3    H129429   0.247   1.647  11.167  0.4997 -1.1419  1.4310
 2646TIP3    H229430   0.143   1.681  11.272 -0.2725  1.0834  0.0304
 2647TIP3   OH229431   3.692   0.985   1.392 -0.4568  0.4074  0.5229
 2647TIP3    H129432   3.635   1.056   1.421 -1.4126 -0.4102  0.6952
 2647TIP3    H229433   3.633   0.913   1.374  0.2928  0.2204 -1.5027
 2648TIP3   OH229434   3.305   2.030  16.470 -0.0342 -0.0521 -0.2727
 2648TIP3    H129435   3.292   2.096  16.402 -0.3251 -0.0388 -0.2080
 2648TIP3    H229436   3.289   1.946  16.426 -0.4474 -0.0308 -0.1717
 2649TIP3   OH229437   3.326   6.539  14.517  0.1448  0.2665 -0.1640
 2649TIP3    H129438   3.284   6.516  14.434 -1.0513  3.2962 -0.5314
 2649TIP3    H229439   3.282   6.485  14.582 -1.7743  0.6813 -1.0452
 2650TIP3   OH229440   5.564   5.611  16.006  0.1644  0.3443  0.1878
 2650TIP3    H129441   5.489   5.615  16.064 -1.1652 -1.9661 -1.1960
 2650TIP3    H229442   5.539   5.664  15.930  0.9621  1.5132  0.7127
 2651TIP3   OH229443   1.768   0.930   4.405  0.6295 -0.5712 -0.3378
 2651TIP3    H129444   1.795   0.899   4.491 -1.3837  0.2149  0.6518
 2651TIP3    H229445   1.849   0.939   4.356  1.9261 -0.2680  1.7398
 2652TIP3   OH229446   4.741   0.803   0.416  0.4896 -0.7019 -0.0867
 2652TIP3    H129447   4.736   0.877   0.355  0.8115 -0.2565  0.4088
 2652TIP3    H229448   4.805   0.832   0.482  0.8663 -1.5592 -0.0658
 2653TIP3   OH229449   4.307   3.255   4.900  0.1443  0.0669 -0.7043
 2653TIP3    H129450   4.263   3.183   4.856  0.7612 -0.5219 -0.3655
 2653TIP3    H229451   4.366   3.291   4.834  2.0335 -1.6429 -0.0181
 2654TIP3   OH229452   3.940   1.048  16.211  0.5833 -0.1338 -0.0447
 2654TIP3    H129453   4.022   1.043  16.162  0.4659 -0.2382 -0.2338
 2654TIP3    H229454   3.872   1.044  16.143  0.4277  0.3523  0.0720
 2655TIP3   OH229455   4.813   4.366  14.661 -0.3279 -0.8475 -0.0338
 2655TIP3    H129456   4.824   4.457  14.632  2.6161 -1.3250 -0.7383
 2655TIP3    H229457   4.738   4.334  14.611 -0.1564  0.6295 -1.3283
 2656TIP3   OH229458   0.563   4.680  14.737 -0.5877 -0.0504  0.2287
 2656TIP3    H129459   0.573   4.730  14.818 -0.3118 -2.9733  2.1411
 2656TIP3    H229460   0.647   4.691  14.692 -0.6779  1.4556  0.3683
 2657TIP3   OH229461   3.378   4.073  15.402  0.2424 -0.3425 -1.5250
 2657TIP3    H129462   3.405   4.154  15.358 -2.4606  1.3704 -0.3141
 2657TIP3    H229463   3.451   4.052  15.461  1.5727  0.4172 -2.8347
 2658TIP3   OH229464   2.415   3.335   1.837  0.2163  0.3760 -0.0283
 2658TIP3    H129465   2.479   3.385   1.887 -0.2908  0.0464  0.9854
 2658TIP3    H229466   2.459   3.316   1.754  0.4451  2.3999 -0.4077
 2659TIP3   OH229467   0.991   1.166  11.826  0.0094  0.4198 -0.8146
 2659TIP3    H129468   0.917   1.214  11.864 -0.6498 -1.6410  0.6943
 2659TIP3    H229469   0.975   1.169  11.731 -1.8329  0.3264 -0.5428
 2660TIP3   OH229470   1.931   2.658  16.904 -0.1906  0.2598 -0.1702
 2660TIP3    H129471   1.840   2.687  16.906 -0.3038 -0.0608 -0.5789
 2660TIP3    H229472   1.932   2.578  16.957 -0.2295  0.0491 -0.4802
 2661TIP3   OH229473   5.047   6.368   4.976  0.3735  0.0904 -0.2943
 2661TIP3    H129474   4.954   6.378   4.999  0.6475  0.5305  0.6771
 2661TIP3    H229475   5.053   6.397   4.885 -0.7166 -1.4794 -0.9173
 2662TIP3   OH229476   3.128   5.290   0.246  0.4537 -0.3655 -0.1298
 2662TIP3    H129477   3.064   5.355   0.215 -1.0960 -1.0881  1.4076
 2662TIP3    H229478   3.176   5.335   0.315  2.4408  0.5280 -1.9646
 2663TIP3   OH229479   0.424   3.306  14.682 -0.0027  0.3224  0.6085
 2663TIP3    H129480   0.428   3.350  14.597  1.5213 -0.1628  0.4149
 2663TIP3    H229481   0.342   3.338  14.721 -0.6761  0.6207 -0.9883
 2664TIP3   OH229482   1.097   0.897   5.251 -0.1511  0.1827  0.5806
 2664TIP3    H129483   1.143   0.872   5.332  0.5095 -0.5331  0.0043
 2664TIP3    H229484   1.125   0.831   5.187 -0.0217  1.2085 -0.4476
 2665TIP3   OH229485   6.602   1.234  10.191 -0.6678 -0.6314  0.5052
 2665TIP3    H129486   6.604   1.328  10.206 -0.4318 -0.3800 -0.9443
 2665TIP3    H229487   6.667   1.199  10.252  2.0222  0.5802 -1.4611
 2666TIP3   OH229488   3.875   2.108   1.527 -0.7298 -0.5007 -0.4170
 2666TIP3    H129489   3.793   2.100   1.577 -0.1378  0.5369  0.7547
 2666TIP3    H229490   3.930   2.165   1.580  0.7733 -1.1878 -1.1884
 2667TIP3   OH229491   2.423   6.333  13.986 -0.0238 -0.1754  0.6517
 2667TIP3    H129492   2.403   6.420  13.951 -1.0167 -1.3875 -1.9781
 2667TIP3    H229493   2.362   6.322  14.059  0.4418  1.4736  1.3383
 2668TIP3   OH229494   5.280   6.105   3.593 -0.2375  0.0694  0.3457
 2668TIP3    H129495   5.262   6.035   3.530 -3.2789 -1.2406  2.4575
 2668TIP3    H229496   5.314   6.177   3.539 -2.4642 -0.9939 -2.7887
 2669TIP3   OH229497   3.608   4.233  10.635  0.1397 -0.0933 -0.0730
 2669TIP3    H129498   3.560   4.245  10.553 -0.7707 -0.4043  0.4016
 2669TIP3    H229499   3.700   4.250  10.612  0.6541 -4.3336 -2.2657
 2670TIP3   OH229500   2.445   1.556   3.595  0.0549  0.3708 -0.1964
 2670TIP3    H129501   2.367   1.610   3.582  0.6147  1.8378  2.0466
 2670TIP3    H229502   2.500   1.575   3.519 -1.5376 -0.3431 -1.5827
 2671TIP3   OH229503   0.314   0.679  13.275 -0.6699  0.4568 -0.0666
 2671TIP3    H129504   0.315   0.596  13.227  1.8344 -1.6956  3.3016
 2671TIP3    H229505   0.381   0.733  13.233  1.3933 -1.3337  0.7635
 2672TIP3   OH229506   2.002   0.315  12.844 -0.0046 -0.4721 -0.0749
 2672TIP3    H129507   2.012   0.339  12.936  0.7629 -1.6577  0.1693
 2672TIP3    H229508   1.908   0.324  12.827  0.0514  1.2417  0.3735
 2673TIP3   OH229509   2.971   5.331   1.206 -0.4529  0.1769 -0.3816
 2673TIP3    H129510   2.984   5.304   1.296 -0.8643 -1.6252 -0.8270
 2673TIP3    H229511   2.928   5.416   1.212  0.1118  0.3781  1.1044
 2674TIP3   OH229512   1.189   3.378  14.687  0.4231 -0.5926 -0.2026
 2674TIP3    H129513   1.169   3.284  14.691 -2.3283 -0.1762 -1.4596
 2674TIP3    H229514   1.241   3.395  14.765  2.0395 -3.3595 -0.5497
 2675TIP3   OH229515   2.288   6.454  13.251  0.3628 -1.0713 -0.1701
 2675TIP3    H129516   2.236   6.374  13.249  1.0665 -1.5361 -0.3847
 2675TIP3    H229517   2.363   6.435  13.195  0.5726 -0.2810 -0.1724
 2676TIP3   OH229518   1.183   0.477  10.823 -0.1084  0.6538 -0.6597
 2676TIP3    H129519   1.156   0.494  10.733  0.4420  0.6267 -0.8309
 2676TIP3    H229520   1.270   0.514  10.830 -0.1160  0.5901 -0.1565
 2677TIP3   OH229521   6.582   0.245   0.705  0.5648  0.1787 -0.0653
 2677TIP3    H129522   6.555   0.259   0.614  0.0540  2.8918  0.4217
 2677TIP3    H229523   6.513   0.191   0.742  0.9892 -1.3264 -1.3433
 2678TIP3   OH229524   2.566   0.103   3.402 -0.2809 -0.4165  0.0118
 2678TIP3    H129525   2.549   0.161   3.328 -1.4035 -0.6769  0.0489
 2678TIP3    H229526   2.647   0.058   3.378 -0.5377 -0.3754 -0.9889
 2679TIP3   OH229527   1.950   3.016  14.854 -0.3945 -0.2489  0.2192
 2679TIP3    H129528   1.956   3.020  14.758 -0.9269 -2.6527  0.0262
 2679TIP3    H229529   2.041   3.006  14.882 -0.4098 -1.9417 -0.2393
 2680TIP3   OH229530   1.774   4.319   1.368  0.3078  0.0077  0.0492
 2680TIP3    H129531   1.757   4.351   1.456 -0.5676  0.6806 -0.3470
 2680TIP3    H229532   1.844   4.375   1.334  0.0480  0.3086  0.0116
 2681TIP3   OH229533   1.576   5.004   0.463 -0.3652  0.5489  0.2018
 2681TIP3    H129534   1.630   4.931   0.493  2.0557  1.3373 -1.7589
 2681TIP3    H229535   1.522   4.967   0.394 -1.1907  0.0726  1.0907
 2682TIP3   OH229536   5.398   2.194   5.089 -0.5816  0.2315 -0.0149
 2682TIP3    H129537   5.468   2.260   5.089 -1.5112  1.2755  1.3245
 2682TIP3    H229538   5.401   2.156   5.176 -0.8390 -0.6744 -0.3935
 2683TIP3   OH229539   6.830   5.079   2.370  0.1815 -0.3739  0.3179
 2683TIP3    H129540   6.759   5.065   2.308  1.6649  0.2134 -1.6096
 2683TIP3    H229541   6.866   4.991   2.386  0.0209 -0.4833  0.0806
 2684TIP3   OH229542   0.789   6.096   6.064  0.0019 -0.1584 -0.0802
 2684TIP3    H129543   0.820   6.115   6.153 -2.0483  0.0064  0.6563
 2684TIP3    H229544   0.803   6.178   6.016 -1.7395  0.8344  0.9908
 2685TIP3   OH229545   3.431   3.095   0.648 -0.1408  0.3247  0.3350
 2685TIP3    H129546   3.481   3.029   0.600  1.5708  1.5085  0.4268
 2685TIP3    H229547   3.370   3.044   0.702  0.3847 -1.1283 -0.3981
 2686TIP3   OH229548   3.677   3.589  17.013 -0.3854  0.0282  0.2841
 2686TIP3    H129549   3.629   3.669  17.034 -0.5529 -0.3051  1.2048
 2686TIP3    H229550   3.616   3.536  16.963 -0.5836  0.0824  0.4706
 2687TIP3   OH229551   6.577   5.111  14.593  0.5657  0.1084  0.1031
 2687TIP3    H129552   6.647   5.077  14.649 -0.2169  0.3329  1.2622
 2687TIP3    H229553   6.603   5.201  14.574 -0.0252  0.6538  1.6811
 2688TIP3   OH229554   5.518   2.698  15.535  0.4282  0.0959 -0.0629
 2688TIP3    H129555   5.583   2.630  15.516  0.0254 -0.8319  1.7161
 2688TIP3    H229556   5.549   2.739  15.616 -0.7695  0.1948  0.3591
 2689TIP3   OH229557   2.480   5.496   1.852 -0.0855 -0.2140 -0.2176
 2689TIP3    H129558   2.398   5.471   1.895  0.1901 -0.8370 -0.0421
 2689TIP3    H229559   2.546   5.488   1.921  0.0867  0.5203 -0.2943
 2690TIP3   OH229560   4.182   2.657   6.454 -0.6688 -0.3613 -0.1061
 2690TIP3    H129561   4.211   2.666   6.364  0.4200 -0.0639  0.2575
 2690TIP3    H229562   4.101   2.606   6.449 -2.1420  1.9627 -1.4796
 2691TIP3   OH229563   1.699   3.219   1.936  0.1860  0.0060 -0.5706
 2691TIP3    H129564   1.714   3.308   1.968  0.5666  0.1149 -1.0415
 2691TIP3    H229565   1.624   3.226   1.877 -2.1560 -0.6132  2.1204
 2692TIP3   OH229566   2.460   2.544  10.523 -0.3784 -0.0090  0.0570
 2692TIP3    H129567   2.417   2.629  10.514 -0.5637 -0.2507 -1.6470
 2692TIP3    H229568   2.505   2.531  10.440  1.3243 -0.6933  1.0456
 2693TIP3   OH229569   1.196   1.951  12.435  0.3953  0.1492  0.0535
 2693TIP3    H129570   1.130   1.937  12.502 -0.0681  0.4147 -0.3410
 2693TIP3    H229571   1.277   1.968  12.483  0.7459 -2.5100  0.5865
 2694TIP3   OH229572   4.563   1.450   5.314 -0.6227 -0.0444  0.6782
 2694TIP3    H129573   4.525   1.380   5.261  0.3331  0.5545 -0.8842
 2694TIP3    H229574   4.646   1.471   5.270 -0.9743  2.2054  0.9768
 2695TIP3   OH229575   1.283   3.110   6.099 -0.5805 -0.2155  0.0601
 2695TIP3    H129576   1.278   3.035   6.158 -2.0516 -1.6369 -1.7310
 2695TIP3    H229577   1.284   3.186   6.157 -1.3388 -1.5426  1.9150
 2696TIP3   OH229578   2.759   2.598  15.513  0.0595 -0.7363  0.4604
 2696TIP3    H129579   2.707   2.587  15.593  1.4049 -1.9071  1.2325
 2696TIP3    H229580   2.818   2.671  15.534 -0.4154 -0.2320  0.0586
 2697TIP3   OH229581   0.653   3.024  10.380  0.1424  1.2305  0.3427
 2697TIP3    H129582   0.731   3.043  10.327  0.2852  0.2530  0.1814
 2697TIP3    H229583   0.579   3.047  10.324  0.1033 -3.3988 -2.0123
 2698TIP3   OH229584   3.861   0.839   1.232  0.2114  0.3785 -0.0101
 2698TIP3    H129585   3.897   0.887   1.158  0.0647  0.8963  0.2557
 2698TIP3    H229586   3.793   0.896   1.267  1.1442  0.7156  1.3147
 2699TIP3   OH229587   2.118   6.653   4.572 -0.2865 -0.2535 -0.0871
 2699TIP3    H129588   2.201   6.676   4.532  0.4214  0.7690  1.8464
 2699TIP3    H229589   2.052   6.695   4.516  0.6738  1.4587 -0.0019
 2700TIP3   OH229590   1.076   6.382  13.867  0.0290  0.0088 -0.0553
 2700TIP3    H129591   1.006   6.429  13.912 -2.4517 -1.6080 -1.9373
 2700TIP3    H229592   1.084   6.426  13.782  0.7915 -0.2899 -0.1517
 2701TIP3   OH229593   0.510   0.614  15.373 -0.3010 -0.3907  0.6243
 2701TIP3    H129594   0.491   0.670  15.448 -2.0296 -0.4969  0.3194
 2701TIP3    H229595   0.455   0.649  15.302  1.2867 -0.2925 -0.6082
 2702TIP3   OH229596   6.420   5.876  13.412 -0.4186  1.1239  0.1050
 2702TIP3    H129597   6.334   5.869  13.370  0.3264  0.8307 -1.4604
 2702TIP3    H229598   6.460   5.791  13.399  0.6617  1.7020 -0.4805
 2703TIP3   OH229599   4.424   3.547  12.086  0.0820 -0.5771 -0.4301
 2703TIP3    H129600   4.382   3.479  12.138  0.3717 -1.1949 -0.9884
 2703TIP3    H229601   4.511   3.557  12.126 -0.2702  0.0942  0.1931
 2704TIP3   OH229602   4.380   0.028   1.390  0.1113 -0.0159 -0.6618
 2704TIP3    H129603   4.339  -0.057   1.405 -0.5632  0.6767  1.8837
 2704TIP3    H229604   4.307   0.086   1.366  0.5678 -0.0858 -2.3946
 2705TIP3   OH229605   0.339   0.920  13.628 -0.5833 -0.0470 -0.3098
 2705TIP3    H129606   0.381   0.835  13.643  0.4070  0.5957  0.6722
 2705TIP3    H229607   0.309   0.915  13.537  1.3566 -0.6673 -0.9715
 2706TIP3   OH229608   0.856   4.991  14.900  0.3707  0.2088 -0.0166
 2706TIP3    H129609   0.776   4.943  14.921  0.0934  0.0346 -1.3779
 2706TIP3    H229610   0.883   5.031  14.983 -0.5403 -0.5879  0.6853
 2707TIP3   OH229611   3.984   4.578   0.409  0.1871 -0.2970  0.0031
 2707TIP3    H129612   3.940   4.498   0.440 -0.0590  0.5520  1.9768
 2707TIP3    H229613   4.076   4.552   0.399 -0.0347 -1.0387 -0.1901
 2708TIP3   OH229614   0.634   5.274   2.822 -0.4282  0.4107 -0.3585
 2708TIP3    H129615   0.634   5.278   2.918  0.8177  2.9819 -0.3767
 2708TIP3    H229616   0.579   5.199   2.801 -3.8761  1.9227  2.3065
 2709TIP3   OH229617   4.528   2.256   5.096  0.7479 -0.0031  0.3672
 2709TIP3    H129618   4.583   2.237   5.020  1.4755 -3.5740  1.5781
 2709TIP3    H229619   4.589   2.262   5.169 -0.1762  0.3328  1.1378
 2710TIP3   OH229620   1.064   2.662   0.150  0.7958  0.4057 -0.1091
 2710TIP3    H129621   1.030   2.751   0.157 -1.3667 -0.3606 -0.1966
 2710TIP3    H229622   1.088   2.638   0.240  1.1991  0.9845 -0.0556
 2711TIP3   OH229623   6.475   3.838  13.350  0.4936 -0.1716  0.3937
 2711TIP3    H129624   6.561   3.833  13.309  0.6750  0.4749  0.6741
 2711TIP3    H229625   6.420   3.777  13.301  0.3395  1.5307 -1.6602
 2712TIP3   OH229626   4.750   3.078   6.088  0.2151 -0.4096  0.4797
 2712TIP3    H129627   4.710   3.155   6.047  0.7965 -1.1110 -1.5094
 2712TIP3    H229628   4.747   3.097   6.182 -1.1690  1.2822  0.1444
 2713TIP3   OH229629   2.446   1.690   2.396 -0.0972 -0.0698 -0.4894
 2713TIP3    H129630   2.366   1.639   2.410 -0.5662  1.0453  1.1434
 2713TIP3    H229631   2.507   1.627   2.357 -1.6173 -1.0456 -1.4096
 2714TIP3   OH229632   5.660   4.091  13.691 -0.0289  0.1267  0.0732
 2714TIP3    H129633   5.662   4.180  13.656  0.7703  0.2008  0.3018
 2714TIP3    H229634   5.746   4.078  13.730  0.1124 -1.0029 -0.5812
 2715TIP3   OH229635   1.228   3.724  15.184 -0.2611  0.1210  0.2398
 2715TIP3    H129636   1.318   3.696  15.169 -1.0886 -2.6521 -0.1342
 2715TIP3    H229637   1.233   3.781  15.261  2.0019  1.6247 -0.9178
 2716TIP3   OH229638   2.578   0.665   3.739 -0.4288  0.0385 -0.0653
 2716TIP3    H129639   2.547   0.676   3.829 -0.0628  0.0457  0.0590
 2716TIP3    H229640   2.497   0.656   3.688 -0.7235  2.0308 -0.0222
 2717TIP3   OH229641   6.747   1.516  12.723  0.0357  0.1272 -0.0409
 2717TIP3    H129642   6.741   1.499  12.817 -1.8688 -1.6712 -0.4102
 2717TIP3    H229643   6.803   1.594  12.716 -0.6964  1.0031  2.6375
 2718TIP3   OH229644   3.105   5.037  13.474 -0.0638  0.3558 -0.1897
 2718TIP3    H129645   3.064   5.102  13.530  0.7641 -0.3150  1.2482
 2718TIP3    H229646   3.195   5.031  13.506  0.4122 -0.1356 -1.5281
 2719TIP3   OH229647   3.965   2.621  11.401 -0.9035  0.7820  0.2971
 2719TIP3    H129648   4.029   2.676  11.356 -0.1407 -0.3306 -0.0405
 2719TIP3    H229649   3.885   2.628  11.348 -0.9956  1.9745  0.5765
 2720TIP3   OH229650   0.423   6.029  14.719  0.2078  0.1219 -0.7455
 2720TIP3    H129651   0.518   6.041  14.727 -0.0609  3.4293 -1.0840
 2720TIP3    H229652   0.400   5.971  14.792  2.5315 -1.3382 -1.0856
 2721TIP3   OH229653   1.692   6.178   0.839 -0.0950 -0.0999 -0.3650
 2721TIP3    H129654   1.616   6.152   0.891 -0.3189  0.8581 -0.1951
 2721TIP3    H229655   1.757   6.205   0.904 -0.5360  1.5475 -0.5459
 2722TIP3   OH229656   0.721   3.395  10.255  0.1979 -0.2734 -0.0963
 2722TIP3    H129657   0.787   3.449  10.297 -0.7683  1.0153 -0.1952
 2722TIP3    H229658   0.771   3.340  10.193  1.1923  0.5129 -0.0105
 2723TIP3   OH229659   1.472   2.144  11.315  0.5079  0.3647 -0.1231
 2723TIP3    H129660   1.494   2.235  11.334 -0.8100  0.9207 -1.1080
 2723TIP3    H229661   1.437   2.146  11.226  0.7887 -1.1687 -0.2949
 2724TIP3   OH229662   6.584   5.304  16.871  0.0589 -0.1453 -0.2825
 2724TIP3    H129663   6.528   5.265  16.803  0.1473 -1.7504  0.5134
 2724TIP3    H229664   6.526   5.312  16.947  0.3203  0.3576 -0.1326
 2725TIP3   OH229665   2.079   5.558  16.778  0.4136  0.4613  0.4151
 2725TIP3    H129666   2.021   5.542  16.703  1.2594  0.7382 -0.3118
 2725TIP3    H229667   2.019   5.575  16.851 -0.4603 -1.6560  0.2707
 2726TIP3   OH229668   3.329   4.323  13.305  0.2259 -0.2193 -0.0223
 2726TIP3    H129669   3.349   4.371  13.225  0.1554 -2.6461 -1.5940
 2726TIP3    H229670   3.235   4.310  13.303  0.1966 -0.1347  0.5680
 2727TIP3   OH229671   0.755   5.408   1.673  0.8449 -0.4360 -0.3426
 2727TIP3    H129672   0.807   5.339   1.714  0.3816 -1.3068 -1.1927
 2727TIP3    H229673   0.804   5.431   1.594  1.1075  0.3713  0.0456
 2728TIP3   OH229674   4.192   0.238   5.607 -0.4400 -1.1919 -0.1812
 2728TIP3    H129675   4.104   0.203   5.593 -0.7415  0.0149 -1.5265
 2728TIP3    H229676   4.249   0.178   5.559 -0.7250 -1.0192 -0.7444
 2729TIP3   OH229677   0.401   2.273   4.922 -0.1208 -0.0637 -0.1724
 2729TIP3    H129678   0.449   2.203   4.877 -1.6006 -1.1610 -0.1175
 2729TIP3    H229679   0.461   2.302   4.991  1.4541  0.3825 -1.6465
 2730TIP3   OH229680   5.093   6.498  11.205  1.0873 -0.4005  0.5616
 2730TIP3    H129681   5.020   6.556  11.226  1.6573  0.1543  1.0310
 2730TIP3    H229682   5.088   6.429  11.271  1.1822 -0.1891  0.7897
 2731TIP3   OH229683   5.694   1.576  13.730  0.1497  0.0718  0.5367
 2731TIP3    H129684   5.777   1.532  13.709 -0.2587 -0.2635 -0.4686
 2731TIP3    H229685   5.640   1.562  13.652 -1.0145 -0.1088  1.3511
 2732TIP3   OH229686   0.403   1.073  14.860  0.2236 -0.5298 -0.0308
 2732TIP3    H129687   0.390   1.152  14.912  1.5656  0.4261 -1.0767
 2732TIP3    H229688   0.353   1.087  14.780 -1.0152 -1.5649  0.5151
 2733TIP3   OH229689   1.009   4.685   5.239  0.3266  0.2667  0.6772
 2733TIP3    H129690   0.951   4.623   5.284  0.7573 -1.2294 -0.6986
 2733TIP3    H229691   1.038   4.745   5.307 -2.1479  0.5482  1.5691
 2734TIP3   OH229692   0.062   2.789   3.040 -0.3489  0.2259 -0.1048
 2734TIP3    H129693   0.062   2.884   3.049 -1.5561  0.2261  0.0746
 2734TIP3    H229694   0.154   2.764   3.043 -0.0504  1.3481  0.3082
 2735TIP3   OH229695   3.895   5.342  13.784 -0.2179 -0.2471  0.1653
 2735TIP3    H129696   3.828   5.295  13.833  1.3870 -1.1266  1.6281
 2735TIP3    H229697   3.947   5.272  13.743  1.3920  0.2419  1.2681
 2736TIP3   OH229698   3.914   3.554  13.334 -0.2477 -0.3557  0.5404
 2736TIP3    H129699   3.819   3.556  13.320 -0.6468  0.2355  2.8175
 2736TIP3    H229700   3.930   3.472  13.382  0.1454  0.1970  1.3922
 2737TIP3   OH229701   5.943   3.178  16.638 -0.0469 -0.3106 -0.1581
 2737TIP3    H129702   6.036   3.201  16.628  0.0977 -1.5236 -2.1825
 2737TIP3    H229703   5.926   3.188  16.731  2.2882 -0.6534  0.3741
 2738TIP3   OH229704   1.318   3.247  16.906 -0.9362  0.0580  0.0877
 2738TIP3    H129705   1.405   3.274  16.937 -1.9979  1.4474  2.1484
 2738TIP3    H229706   1.323   3.255  16.811  1.4546 -0.8658  0.0624
 2739TIP3   OH229707   3.667   6.678  15.366 -0.3416  0.3434 -0.0816
 2739TIP3    H129708   3.659   6.593  15.410  0.1379 -0.2484 -1.1162
 2739TIP3    H229709   3.622   6.667  15.283 -1.7093  1.6290  0.4466
 2740TIP3   OH229710   5.568   1.463  13.987  0.5017 -0.1426 -0.0808
 2740TIP3    H129711   5.535   1.538  13.938  0.7215 -0.5465 -0.8761
 2740TIP3    H229712   5.495   1.437  14.043  0.7135  1.1785  0.8572
 2741TIP3   OH229713   4.094   1.463  15.667 -0.4083 -0.4935  0.2594
 2741TIP3    H129714   4.178   1.503  15.647 -2.0171  2.1103 -2.0483
 2741TIP3    H229715   4.060   1.515  15.740 -0.2244 -1.2647  0.9054
 2742TIP3   OH229716   6.282   1.454   1.919 -0.0576 -0.7622 -0.0703
 2742TIP3    H129717   6.292   1.400   1.841 -1.0927  0.1415 -0.8698
 2742TIP3    H229718   6.349   1.423   1.980  1.6784 -0.5829 -1.8237
 2743TIP3   OH229719   5.567   0.623   5.966  0.0788  0.4899 -0.1324
 2743TIP3    H129720   5.598   0.548   5.915 -0.2112 -0.8560  1.5738
 2743TIP3    H229721   5.570   0.696   5.905 -0.2607 -1.0262 -2.0568
 2744TIP3   OH229722   2.315   2.813  15.227  0.4122 -0.1074 -0.2731
 2744TIP3    H129723   2.326   2.897  15.184 -1.1187 -0.4934 -1.4915
 2744TIP3    H229724   2.404   2.781  15.240  1.0982  2.2510  1.4343
 2745TIP3   OH229725   1.452   0.307  11.049 -0.2386  0.0749 -0.5624
 2745TIP3    H129726   1.499   0.385  11.078  0.9737 -0.5469 -0.7635
 2745TIP3    H229727   1.469   0.302  10.954 -0.8770 -0.0588 -0.6756
 2746TIP3   OH229728   4.948   5.663  13.849  0.4011 -0.1914  0.1427
 2746TIP3    H129729   5.000   5.650  13.770 -1.2162 -2.3517 -0.6860
 2746TIP3    H229730   4.996   5.728  13.900  1.6166  1.1259 -2.4930
 2747TIP3   OH229731   5.639   3.529  13.194  0.8430 -0.2433  0.5019
 2747TIP3    H129732   5.711   3.482  13.150  1.0745  1.4448 -1.0481
 2747TIP3    H229733   5.672   3.619  13.203 -1.2882  0.7585 -0.9303
 2748TIP3   OH229734   4.110   0.764  14.942  0.3190  0.1464 -0.0150
 2748TIP3    H129735   4.141   0.843  14.897  0.4849 -0.3517 -0.7838
 2748TIP3    H229736   4.152   0.692  14.896 -0.7792 -0.4646 -0.0860
 2749TIP3   OH229737   4.787   1.746  16.045  0.5799 -0.1933  0.5346
 2749TIP3    H129738   4.789   1.685  15.971 -0.8860  2.2843 -1.7255
 2749TIP3    H229739   4.857   1.715  16.103  0.7151 -3.2341 -1.0439
 2750TIP3   OH229740   1.771   2.152  12.795 -0.3039 -0.3275 -0.3445
 2750TIP3    H129741   1.807   2.204  12.723  1.1668 -1.3684 -0.4020
 2750TIP3    H229742   1.816   2.184  12.873 -0.1476 -0.7956 -0.2375
 2751TIP3   OH229743   4.453   6.136   2.491 -0.1308  0.4247  1.0374
 2751TIP3    H129744   4.373   6.145   2.440  0.6316 -2.0117 -0.7629
 2751TIP3    H229745   4.510   6.205   2.457 -0.5971  0.5855  0.5667
 2752TIP3   OH229746   0.252   5.548   2.952 -0.3271  0.3664 -0.5502
 2752TIP3    H129747   0.339   5.534   2.989 -0.8515  2.0399  1.4604
 2752TIP3    H229748   0.257   5.635   2.912 -0.8696  0.1263 -1.1623
 2753TIP3   OH229749   5.843   3.850  12.932  0.4231 -0.0245  0.4340
 2753TIP3    H129750   5.780   3.782  12.907  1.6322 -0.8665 -0.4413
 2753TIP3    H229751   5.844   3.847  13.027 -2.8163  1.8722  0.6550
 2754TIP3   OH229752   0.857   5.217   0.383  0.1446 -0.2807 -0.2832
 2754TIP3    H129753   0.874   5.159   0.309  0.9158  0.3452 -0.6083
 2754TIP3    H229754   0.938   5.216   0.434 -0.8864 -1.9350  1.4486
 2755TIP3   OH229755   6.417   0.122  11.675 -0.2721  0.7645  0.4611
 2755TIP3    H129756   6.446   0.061  11.743 -0.4654  0.6821  0.4713
 2755TIP3    H229757   6.472   0.102  11.599 -2.0885 -1.2980 -0.4379
 2756TIP3   OH229758   1.464   2.875   1.711  0.3660 -0.0113  0.0514
 2756TIP3    H129759   1.549   2.860   1.752  1.3355 -0.4594 -2.0074
 2756TIP3    H229760   1.402   2.834   1.771  1.5409  0.5408  1.7293
 2757TIP3   OH229761   5.177   5.445  15.512 -0.1807  0.7255  0.0886
 2757TIP3    H129762   5.218   5.531  15.505 -0.4893  0.8022 -1.0295
 2757TIP3    H229763   5.150   5.438  15.603  1.2186  1.1718  0.5612
 2758TIP3   OH229764   6.775   4.814  16.829  0.3227 -0.1687  0.2131
 2758TIP3    H129765   6.844   4.768  16.782 -0.1464 -0.7702  0.1003
 2758TIP3    H229766   6.784   4.785  16.920 -0.6430 -1.3511 -0.0388
 2759TIP3   OH229767   3.750   2.181  15.903 -0.0724 -0.3555 -0.2737
 2759TIP3    H129768   3.670   2.138  15.871 -0.4885  1.1168 -1.3222
 2759TIP3    H229769   3.720   2.266  15.934  1.0440  0.0702 -0.3298
 2760TIP3   OH229770   4.381   5.967   1.482 -0.2183  0.3127  0.1917
 2760TIP3    H129771   4.305   5.973   1.425 -0.3295  2.1252  0.4891
 2760TIP3    H229772   4.404   6.058   1.503  0.4066 -0.2615  2.2474
 2761TIP3   OH229773   4.989   6.376  16.185  0.5273  0.3992  0.6280
 2761TIP3    H129774   4.933   6.352  16.112  0.0126  0.8966  0.8486
 2761TIP3    H229775   4.971   6.309  16.252  0.4163  0.3879  0.5877
 2762TIP3   OH229776   2.424   1.418  12.104 -0.1586 -0.1643 -0.0032
 2762TIP3    H129777   2.460   1.418  12.016 -1.5217  0.5769 -0.5880
 2762TIP3    H229778   2.330   1.432  12.092 -0.0956  2.3647  1.6287
 2763TIP3   OH229779   4.446   4.821   1.839 -0.4689  0.2674  0.7282
 2763TIP3    H129780   4.519   4.868   1.879 -0.6117 -0.6935  2.1847
 2763TIP3    H229781   4.484   4.780   1.761  0.3451  0.4322  1.0276
 2764TIP3   OH229782   1.904   1.023   1.159  0.1543 -0.0858 -0.3019
 2764TIP3    H129783   1.815   1.001   1.185 -0.2394  0.1038 -1.4235
 2764TIP3    H229784   1.959   0.963   1.209 -0.6834 -1.0243 -0.4761
 2765TIP3   OH229785   3.882   6.119   3.391  0.2292  0.4142 -0.3760
 2765TIP3    H129786   3.954   6.177   3.365  0.2167  0.7939  0.4158
 2765TIP3    H229787   3.924   6.034   3.404  0.5947  0.6869  0.3124
 2766TIP3   OH229788   2.664   0.693  12.584  0.3159 -0.1176  0.2263
 2766TIP3    H129789   2.606   0.712  12.658  0.6262  0.2561  0.3735
 2766TIP3    H229790   2.733   0.759  12.590 -0.2580  0.6406 -1.0417
 2767TIP3   OH229791   3.623   0.874  13.367  0.3748 -0.1607  0.1532
 2767TIP3    H129792   3.588   0.785  13.372  1.0176 -0.5325 -1.3536
 2767TIP3    H229793   3.633   0.901  13.459  2.5291 -2.6252  0.7817
 2768TIP3   OH229794   2.498   0.065  10.846  0.0917 -1.0565 -0.0067
 2768TIP3    H129795   2.568   0.028  10.792  0.5791  0.2606 -0.3160
 2768TIP3    H229796   2.543   0.100  10.923 -0.2226 -0.3452 -0.1314
 2769TIP3   OH229797   1.970   4.347   0.390 -0.3544 -0.5031 -0.6958
 2769TIP3    H129798   1.933   4.279   0.447  0.8119 -0.4939  0.1088
 2769TIP3    H229799   2.042   4.304   0.344  0.4725  0.2018 -0.0849
 2770TIP3   OH229800   6.208   3.324  12.985  0.1166  0.3377  0.2731
 2770TIP3    H129801   6.162   3.318  13.068 -1.5860  1.6583 -0.5024
 2770TIP3    H229802   6.240   3.414  12.981  0.7485  0.1003 -0.2161
 2771TIP3   OH229803   2.196   1.570  13.527  0.2613 -0.0919 -1.0287
 2771TIP3    H129804   2.183   1.633  13.598  0.5313 -0.6330 -0.4870
 2771TIP3    H229805   2.268   1.607  13.476 -0.1553  0.4677 -1.2217
 2772TIP3   OH229806   6.748   6.605  17.057  0.3787 -0.5342  0.0895
 2772TIP3    H129807   6.745   6.545  16.982  0.5322 -1.8088  1.0723
 2772TIP3    H229808   6.806   6.563  17.119 -1.5107 -0.6634  1.8780
 2773TIP3   OH229809   6.574   0.088   1.940 -0.3222 -0.2533 -0.1808
 2773TIP3    H129810   6.601   0.086   2.031  0.0211 -0.3702 -0.2839
 2773TIP3    H229811   6.649   0.124   1.893  0.2935 -2.0582 -0.6754
 2774TIP3   OH229812   1.503   0.928  11.642 -0.0811 -0.0882 -0.1875
 2774TIP3    H129813   1.454   0.863  11.692 -1.6144  1.1620  0.0191
 2774TIP3    H229814   1.520   0.998  11.705 -0.4857  0.7308 -0.9723
 2775TIP3   OH229815   0.878   6.701   4.744 -0.5651  0.7741  0.0540
 2775TIP3    H129816   0.816   6.740   4.805  0.2067  0.9847  0.7251
 2775TIP3    H229817   0.934   6.645   4.799 -0.4309  0.2560 -0.5987
 2776TIP3   OH229818   5.434   5.412  13.786  0.3244 -0.3960 -0.1084
 2776TIP3    H129819   5.425   5.379  13.696 -0.1507 -0.7998  0.0840
 2776TIP3    H229820   5.440   5.334  13.840  0.7184 -0.1472  0.2017
 2777TIP3   OH229821   1.804   1.591   2.673  0.5899  0.0069 -0.1009
 2777TIP3    H129822   1.773   1.619   2.586  1.2385 -1.0994 -0.7219
 2777TIP3    H229823   1.792   1.496   2.672  1.7720 -0.1606  0.5416
 2778TIP3   OH229824   0.053   0.483  13.099 -0.2758  0.4765  0.1573
 2778TIP3    H129825   0.117   0.551  13.082  1.4060 -0.9087  0.6922
 2778TIP3    H229826   0.036   0.444  13.014 -1.1347  1.4300 -0.1283
 2779TIP3   OH229827   4.282   0.700   4.291 -0.5322 -0.2906  0.0473
 2779TIP3    H129828   4.317   0.651   4.365  1.1577  0.2829 -0.3331
 2779TIP3    H229829   4.292   0.792   4.316  0.0838 -0.0866 -0.8843
 2780TIP3   OH229830   3.836   5.352   5.051 -0.2162 -0.0097 -0.0293
 2780TIP3    H129831   3.741   5.361   5.038 -0.0105  1.3329 -0.7314
 2780TIP3    H229832   3.844   5.298   5.130 -1.5540 -0.8058 -0.4058
 2781TIP3   OH229833   6.245   2.435   1.822 -0.8204  0.2744  0.2178
 2781TIP3    H129834   6.249   2.529   1.836 -0.3567  0.9265 -3.3577
 2781TIP3    H229835   6.337   2.407   1.822 -0.7572  0.3846 -1.4488
 2782TIP3   OH229836   5.734   5.162  15.824  0.6088  0.3307  0.2812
 2782TIP3    H129837   5.806   5.105  15.850  1.8720  1.6416 -0.1641
 2782TIP3    H229838   5.750   5.243  15.873  2.4978  2.5470 -3.5037
 2783TIP3   OH229839   5.874   5.445   1.992  0.0709 -0.1088  0.3365
 2783TIP3    H129840   5.932   5.440   1.916  0.6470 -0.5990  0.7994
 2783TIP3    H229841   5.933   5.456   2.066 -0.5149  0.9405  0.6703
 2784TIP3   OH229842   1.872   4.018  11.242  0.3032  0.2943  0.9370
 2784TIP3    H129843   1.935   3.982  11.180  0.5041  0.7994  0.8436
 2784TIP3    H229844   1.827   3.942  11.278  0.4341 -0.0238  0.4354
 2785TIP3   OH229845   2.762   6.135   1.832  0.0141  0.6435  0.2262
 2785TIP3    H129846   2.850   6.172   1.825  0.7135 -0.1651  3.2088
 2785TIP3    H229847   2.766   6.053   1.783  0.8542  0.7147  0.1657
 2786TIP3   OH229848   4.955   2.960   4.302 -0.3219  0.2300  0.8161
 2786TIP3    H129849   4.908   2.897   4.247 -2.3411  3.0948 -1.0541
 2786TIP3    H229850   5.030   2.987   4.249 -0.8807  1.1636  0.4591
 2787TIP3   OH229851   4.235   5.947   3.826  0.2816  0.0934 -0.0620
 2787TIP3    H129852   4.223   6.036   3.793 -0.2047  0.6392  1.5120
 2787TIP3    H229853   4.324   5.923   3.799 -0.6622 -0.2444 -3.3241
 2788TIP3   OH229854   3.245   6.775  15.495  0.1653 -0.5666  0.0954
 2788TIP3    H129855   3.247   6.837  15.421  0.0252  0.9663  1.3114
 2788TIP3    H229856   3.303   6.704  15.468 -2.8519 -2.1391 -3.1668
 2789TIP3   OH229857   0.308   2.934  10.697  0.3826 -0.8221 -0.1576
 2789TIP3    H129858   0.237   2.921  10.633  1.3954 -0.7909 -1.3295
 2789TIP3    H229859   0.356   3.009  10.663 -0.7001  1.0624  2.2155
 2790TIP3   OH229860   1.925   2.155  16.251 -0.0490  0.3578  0.0663
 2790TIP3    H129861   1.933   2.065  16.219  0.8163  0.6180 -0.4852
 2790TIP3    H229862   1.859   2.194  16.194  0.3613  0.3723 -0.4120
 2791TIP3   OH229863   0.098   4.562  16.759  0.2514  0.5159  0.6487
 2791TIP3    H129864   0.169   4.546  16.821  1.1133 -2.8032 -0.9898
 2791TIP3    H229865   0.139   4.607  16.685  0.4747 -0.5845  0.0937
 2792TIP3   OH229866   3.794   1.922   6.242  0.0920 -0.2366 -0.1734
 2792TIP3    H129867   3.868   1.926   6.303  0.8031  0.8002 -1.0748
 2792TIP3    H229868   3.786   1.829   6.222 -0.1805 -0.6116  1.5030
 2793TIP3   OH229869   0.181   3.673   0.305  0.3647 -0.1355  0.4900
 2793TIP3    H129870   0.094   3.711   0.306  0.4280  0.2993 -2.3429
 2793TIP3    H229871   0.225   3.710   0.382 -2.1272 -1.0416  2.5039
 2794TIP3   OH229872   2.194   5.360  11.467 -0.5582  0.1641  0.2793
 2794TIP3    H129873   2.104   5.389  11.481 -0.6173  0.1030  0.0398
 2794TIP3    H229874   2.200   5.346  11.372 -1.0474 -2.1917  0.5276
 2795TIP3   OH229875   6.012   0.200  13.196 -0.0197 -0.2662 -0.4927
 2795TIP3    H129876   6.002   0.289  13.164 -1.5350  0.4431  1.7595
 2795TIP3    H229877   5.924   0.162  13.190  0.2066 -0.9602  0.3838
 2796TIP3   OH229878   2.391   4.559   0.729  0.1212 -0.2560  0.2384
 2796TIP3    H129879   2.354   4.641   0.697  0.9490 -0.1288 -0.4308
 2796TIP3    H229880   2.372   4.559   0.823 -1.9973 -0.4417 -0.1529
 2797TIP3   OH229881   4.190   1.344   2.986 -0.2416 -0.5812 -0.3091
 2797TIP3    H129882   4.117   1.335   2.925 -1.8832 -1.2414  1.6586
 2797TIP3    H229883   4.173   1.280   3.055  1.7446 -0.1442  0.6820
 2798TIP3   OH229884   2.614   5.308   3.874  0.2681 -0.0713 -0.2923
 2798TIP3    H129885   2.638   5.328   3.783  0.3983 -1.8381 -0.6821
 2798TIP3    H229886   2.684   5.250   3.905  0.6963  1.2054  1.2564
 2799TIP3   OH229887   4.847   2.066  12.729  0.6770  0.2274  0.2706
 2799TIP3    H129888   4.942   2.050  12.729  0.6073 -0.2288 -0.3045
 2799TIP3    H229889   4.833   2.125  12.803  1.4157  0.3328  0.3399
 2800TIP3   OH229890   4.937   1.448   4.546  0.0597  0.5063  0.2812
 2800TIP3    H129891   4.937   1.472   4.638  0.5585  2.3857 -0.1752
 2800TIP3    H229892   4.979   1.362   4.544  0.9916  0.8907  1.6961
 2801TIP3   OH229893   5.553   4.944  14.049  0.0671 -0.5897  0.2412
 2801TIP3    H129894   5.494   4.925  14.122 -0.2352 -1.0862 -0.1232
 2801TIP3    H229895   5.637   4.906  14.075  0.2768  0.2639  0.8339
 2802TIP3   OH229896   0.732   1.194  13.513  0.0146  0.1220  0.8616
 2802TIP3    H129897   0.747   1.132  13.585  0.9507  0.4752  0.9791
 2802TIP3    H229898   0.799   1.261  13.524  0.2667  0.1111 -0.4305
 2803TIP3   OH229899   0.644   5.626  14.164  0.2737  0.0244 -0.0350
 2803TIP3    H129900   0.643   5.721  14.156  1.8988  0.0935  0.2424
 2803TIP3    H229901   0.570   5.597  14.111 -0.0208  1.4125 -0.4386
 2804TIP3   OH229902   4.933   3.370   5.486 -0.2035  0.0730  0.5247
 2804TIP3    H129903   4.933   3.304   5.555 -1.1344  0.9347  1.3761
 2804TIP3    H229904   4.972   3.447   5.526  0.5355  0.1739 -0.3496
 2805TIP3   OH229905   5.624   1.771  16.735  0.1704  0.0251 -0.4221
 2805TIP3    H129906   5.675   1.756  16.655 -1.3435 -1.9882 -1.0919
 2805TIP3    H229907   5.587   1.858  16.724  1.1289  0.3505 -1.2321
 2806TIP3   OH229908   1.330   0.128  11.236 -0.3472  0.3198 -0.4778
 2806TIP3    H129909   1.394   0.062  11.263 -1.0012  0.5166  1.8171
 2806TIP3    H229910   1.381   0.194  11.190  0.8874 -0.1712  0.1344
 2807TIP3   OH229911   3.462   3.713   5.849  0.0379  0.0021 -0.1038
 2807TIP3    H129912   3.491   3.747   5.934  0.4090 -0.0219 -0.2196
 2807TIP3    H229913   3.543   3.689   5.804 -0.1356  0.3540 -0.6085
 2808TIP3   OH229914   6.198   1.673   0.064  0.0485  0.2958 -0.1376
 2808TIP3    H129915   6.219   1.618   0.139 -0.5005  0.2025 -0.0497
 2808TIP3    H229916   6.173   1.757   0.101  2.6682  1.2652 -0.3243
 2809TIP3   OH229917   4.311   4.782  12.347  0.1755 -0.4024 -0.1411
 2809TIP3    H129918   4.396   4.740  12.336  0.9802  1.1064  0.0823
 2809TIP3    H229919   4.272   4.781  12.259  0.6877 -0.5344 -0.3712
 2810TIP3   OH229920   1.707   5.158  11.453  0.1548  0.4061 -0.7700
 2810TIP3    H129921   1.757   5.204  11.386 -0.1560  0.8162 -0.7271
 2810TIP3    H229922   1.641   5.222  11.482 -0.2373 -0.0398 -0.6588
 2811TIP3   OH229923   0.194   1.482  12.214  0.3807  0.2662  0.0689
 2811TIP3    H129924   0.249   1.534  12.154  0.3271 -1.5652 -1.6717
 2811TIP3    H229925   0.248   1.472  12.292  1.0026  1.6068 -0.1487
 2812TIP3   OH229926   2.749   4.431   5.258 -0.0447 -0.0782 -0.0036
 2812TIP3    H129927   2.807   4.493   5.304 -0.5323 -0.1073  0.6780
 2812TIP3    H229928   2.713   4.376   5.328  0.6142 -1.3430 -0.6348
 2813TIP3   OH229929   5.489   1.493   4.102  0.3974 -0.2318  0.0454
 2813TIP3    H129930   5.427   1.486   4.175  0.2300 -0.8514 -0.1471
 2813TIP3    H229931   5.456   1.564   4.048 -1.4920 -1.9980 -1.2965
 2814TIP3   OH229932   1.526   0.181   2.692 -0.4210  0.3235  0.1790
 2814TIP3    H129933   1.618   0.180   2.667  0.2977 -1.2686  2.5192
 2814TIP3    H229934   1.498   0.271   2.676  1.7389  1.0350  0.0545
 2815TIP3   OH229935   6.115   3.832   5.083  0.7048 -0.3461 -0.2693
 2815TIP3    H129936   6.086   3.797   4.998  2.3750  1.4231 -1.6844
 2815TIP3    H229937   6.110   3.758   5.143 -2.1700 -1.2439 -1.4555
 2816TIP3   OH229938   4.626   2.185  13.192 -0.3096 -0.1092  0.3986
 2816TIP3    H129939   4.567   2.111  13.210 -1.1856  0.8951  1.8052
 2816TIP3    H229940   4.612   2.204  13.099  0.3840 -2.0700 -0.1648
 2817TIP3   OH229941   0.354   0.302   0.731  0.0897 -0.6066 -0.3859
 2817TIP3    H129942   0.269   0.286   0.691  0.7494 -1.6277 -1.4763
 2817TIP3    H229943   0.413   0.316   0.656  0.9866 -0.4745  0.3185
 2818TIP3   OH229944   6.435   1.735   4.515  0.2331  0.3299 -0.4027
 2818TIP3    H129945   6.346   1.747   4.484  0.9217  1.1433 -2.2030
 2818TIP3    H229946   6.452   1.641   4.503 -0.8560 -0.1441  1.4318
 2819TIP3   OH229947   1.666   5.310   0.565 -0.0877  0.1366 -0.0124
 2819TIP3    H129948   1.696   5.400   0.555 -0.7706  0.5487  1.4544
 2819TIP3    H229949   1.641   5.302   0.657 -1.5941 -1.0743 -0.4765
 2820TIP3   OH229950   0.531   6.624   2.522  0.0237  0.2352 -0.6690
 2820TIP3    H129951   0.602   6.594   2.465  1.0126  0.2899  0.5077
 2820TIP3    H229952   0.452   6.594   2.478  0.8779 -3.5106 -0.0470
 2821TIP3   OH229953   4.510   4.511   4.163  0.3134 -0.3837  0.4898
 2821TIP3    H129954   4.436   4.541   4.110 -0.4897  0.3337  1.9586
 2821TIP3    H229955   4.469   4.471   4.240  1.3994  1.4406  2.1084
 2822TIP3   OH229956   3.808   4.721   5.519  0.3486  0.2310  0.3315
 2822TIP3    H129957   3.870   4.793   5.524  0.5524  0.0968 -0.2056
 2822TIP3    H229958   3.834   4.672   5.442  1.5172 -1.6542  1.8487
 2823TIP3   OH229959   2.226   5.641   1.018  0.1360 -0.4346  0.1908
 2823TIP3    H129960   2.264   5.637   0.931  0.8716  1.5500  0.3577
 2823TIP3    H229961   2.152   5.581   1.016  2.7025 -3.8467 -0.4119
 2824TIP3   OH229962   3.293   1.729   5.810  0.0998  0.0284 -0.6169
 2824TIP3    H129963   3.256   1.653   5.764  0.2652  0.9082 -2.2661
 2824TIP3    H229964   3.217   1.776   5.844 -0.2148  0.6882 -2.1592
 2825TIP3   OH229965   3.811   4.721  12.751  0.5879  0.2520  0.0800
 2825TIP3    H129966   3.756   4.798  12.764  1.0060  0.3219  1.6624
 2825TIP3    H229967   3.801   4.699  12.658 -1.5340  0.6726  0.1703
 2826TIP3   OH229968   3.723   4.279   5.219  0.1723 -0.0446 -0.2029
 2826TIP3    H129969   3.715   4.289   5.124 -1.1756 -0.4182 -0.1501
 2826TIP3    H229970   3.679   4.356   5.255  0.9524  0.2556  0.1287
 2827TIP3   OH229971   4.201   6.100   5.203 -0.5505  0.5689 -0.4794
 2827TIP3    H129972   4.238   6.058   5.126  0.4414 -2.8903  1.6618
 2827TIP3    H229973   4.166   6.028   5.255 -0.3896  2.5993  2.7071
 2828TIP3   OH229974   3.829   4.251   2.309  0.0067 -0.2959 -0.0214
 2828TIP3    H129975   3.758   4.251   2.373  1.1375  0.7135  1.2986
 2828TIP3    H229976   3.793   4.204   2.234 -2.6146  1.4666 -0.0306
 2829TIP3   OH229977   0.098   4.336   1.769  0.0928 -0.0143  0.0414
 2829TIP3    H129978   0.060   4.274   1.708  1.3132  0.0994 -0.8743
 2829TIP3    H229979   0.033   4.406   1.776 -0.2978 -0.2949 -0.7005
 2830TIP3   OH229980   3.708   4.677   1.651  0.0938  0.5948 -0.0352
 2830TIP3    H129981   3.707   4.581   1.649  1.2110  0.5508  0.4734
 2830TIP3    H229982   3.675   4.700   1.738  0.1303  0.6595 -0.0383
 2831TIP3   OH229983   5.731   5.857  12.948 -0.0363  0.1704 -0.5857
 2831TIP3    H129984   5.809   5.802  12.942 -0.7602 -0.8925 -0.5933
 2831TIP3    H229985   5.658   5.795  12.947 -0.8399  0.9388  1.9689
 2832TIP3   OH229986   6.237   1.947   1.809 -0.1132 -0.5429  0.5860
 2832TIP3    H129987   6.322   1.938   1.764 -1.8047 -0.9796 -2.8778
 2832TIP3    H229988   6.259   1.982   1.895  3.4744  1.1045 -0.7807
 2833TIP3   OH229989   4.225   2.419  16.943 -0.3963  0.1640 -0.2786
 2833TIP3    H129990   4.166   2.488  16.914  0.3489  0.1316 -1.9779
 2833TIP3    H229991   4.192   2.339  16.902  0.1312 -0.0590 -0.2816
 2834TIP3   OH229992   5.705   2.229   1.739  0.0756  0.3073  0.2609
 2834TIP3    H129993   5.760   2.224   1.661  0.9817 -0.2154  0.9244
 2834TIP3    H229994   5.615   2.223   1.705  0.4414  0.3817 -0.7563
 2835TIP3   OH229995   4.999   1.330  13.209 -0.2900 -0.3575 -0.2589
 2835TIP3    H129996   5.016   1.254  13.153  1.8845 -1.7773  2.0980
 2835TIP3    H229997   5.048   1.401  13.168  0.1815 -1.0090 -0.8591
 2836TIP3   OH229998   5.885   5.891  15.620  0.1553  0.3992 -0.0591
 2836TIP3    H129999   5.861   5.804  15.588 -0.3177 -0.0741  1.5116
 2836TIP3    H230000   5.973   5.880  15.657  0.8528  1.0256 -1.4426
 2837TIP3   OH230001   4.614   4.006   5.321  0.0819  0.0560  0.3986
 2837TIP3    H130002   4.611   4.092   5.363  1.1923  0.5396 -0.4793
 2837TIP3    H230003   4.552   4.013   5.248  0.3561  0.1952  0.1786
 2838TIP3   OH230004   5.809   0.816  15.640  0.2867  0.8404 -0.2000
 2838TIP3    H130005   5.764   0.881  15.693 -1.9935 -1.9389  1.5711
 2838TIP3    H230006   5.746   0.792  15.572 -1.4168 -3.1663  2.3592
 2839TIP3   OH230007   6.483   5.305   6.445  0.2635 -0.0255  0.7235
 2839TIP3    H130008   6.484   5.385   6.391 -1.1522  0.6107  1.5739
 2839TIP3    H230009   6.574   5.293   6.471  0.6249  0.8948 -0.0299
 2840TIP3   OH230010   6.092   5.709  15.276  0.2180  0.2452  0.0718
 2840TIP3    H130011   6.069   5.775  15.211  0.5277  0.7831  0.4968
 2840TIP3    H230012   6.014   5.654  15.283 -0.8010  1.7245  1.0989
 2841TIP3   OH230013   5.201   0.747   5.757  0.0698 -0.0793  0.8653
 2841TIP3    H130014   5.189   0.672   5.701  0.0634  0.0369  0.7112
 2841TIP3    H230015   5.133   0.809   5.731 -1.7172 -1.0821  2.8087
 2842TIP3   OH230016   5.869   1.282  16.992 -0.1407 -0.0112  0.6820
 2842TIP3    H130017   5.916   1.229  17.056  1.8318  0.4885 -0.2761
 2842TIP3    H230018   5.872   1.371  17.027  1.2876  0.3314 -0.2397
 2843TIP3   OH230019   4.757   1.990  15.374 -0.6840  0.1350  0.2772
 2843TIP3    H130020   4.812   1.995  15.453  2.0618 -1.8216 -1.3136
 2843TIP3    H230021   4.790   1.913  15.327 -3.7180 -0.0968 -1.7221
 2844TIP3   OH230022   4.045   1.482  13.488 -0.5060  0.8786 -0.1356
 2844TIP3    H130023   3.973   1.505  13.546 -0.4608  0.8677 -0.0748
 2844TIP3    H230024   4.005   1.476  13.401 -0.7578 -0.0735  0.0429
 2845TIP3   OH230025   6.532   1.743   0.033  0.1517 -0.0005 -0.2776
 2845TIP3    H130026   6.592   1.811   0.004  0.2868  0.2540  0.5562
 2845TIP3    H230027   6.450   1.789   0.052  0.5065  0.1065  1.1468
 2846TIP3   OH230028   5.651   0.317   6.449  0.4275 -0.4386 -0.6296
 2846TIP3    H130029   5.689   0.282   6.530 -0.5750 -1.5443 -0.6014
 2846TIP3    H230030   5.630   0.239   6.398 -1.4979  0.1127 -0.7614
 2847TIP3   OH230031   1.573   3.675   2.163  0.4038 -0.8233 -0.0838
 2847TIP3    H130032   1.577   3.580   2.152  0.4989 -0.6732 -1.7333
 2847TIP3    H230033   1.514   3.705   2.093  0.1837  0.3074  0.5592
 2848TIP3   OH230034   1.190   1.708   4.959  0.2929  0.2755  0.1691
 2848TIP3    H130035   1.181   1.799   4.932  0.2129  0.4762  0.8495
 2848TIP3    H230036   1.274   1.680   4.924  0.0872  0.4585 -0.4689
 2849TIP3   OH230037   5.881   1.387  12.476 -0.5102 -0.3502 -0.0106
 2849TIP3    H130038   5.893   1.292  12.477 -1.3285 -0.4600  0.4229
 2849TIP3    H230039   5.828   1.403  12.398  0.3670 -0.1411 -0.5767
 2850TIP3   OH230040   0.665   0.611  13.296  0.2965 -0.1200  0.4313
 2850TIP3    H130041   0.679   0.517  13.286  1.5934 -0.0058  0.9314
 2850TIP3    H230042   0.732   0.651  13.241 -1.9063  0.5812 -1.9388
 2851TIP3   OH230043   1.249   4.250   0.075 -0.3824 -0.2270 -0.2572
 2851TIP3    H130044   1.322   4.273   0.134 -0.2240  1.2986 -0.9892
 2851TIP3    H230045   1.172   4.250   0.131 -0.2187  1.1263  0.0075
 2852TIP3   OH230046   0.643   2.203  14.369 -0.5770 -0.0513  0.3057
 2852TIP3    H130047   0.657   2.283  14.318  1.0659 -0.5625 -0.1228
 2852TIP3    H230048   0.701   2.214  14.445 -0.6874 -0.6330  0.4748
 2853TIP3   OH230049   1.032   2.800  10.433  0.5579  0.6312 -0.2911
 2853TIP3    H130050   0.962   2.734  10.432  0.0901  0.7951  3.7305
 2853TIP3    H230051   1.079   2.786  10.351  0.1430 -4.3306 -0.0005
 2854TIP3   OH230052   6.486   6.742   2.493  0.4159  0.3392 -0.5572
 2854TIP3    H130053   6.490   6.690   2.573  2.2888 -0.4631 -1.1251
 2854TIP3    H230054   6.393   6.758   2.480 -0.0033 -0.4079  1.1934
 2855TIP3   OH230055   3.855   0.468   1.516 -0.6506 -0.3317  0.2006
 2855TIP3    H130056   3.916   0.431   1.452 -0.7590 -0.3422  0.1033
 2855TIP3    H230057   3.769   0.462   1.475 -0.6277  0.3597  0.0313
 2856TIP3   OH230058   2.810   0.699   1.667  0.2353 -0.1743 -0.3004
 2856TIP3    H130059   2.759   0.743   1.735 -0.1517  1.9738 -1.8733
 2856TIP3    H230060   2.901   0.718   1.690  0.1707 -0.5823  0.3114
 2857TIP3   OH230061   3.607   0.399   0.740  0.5100 -0.1443 -0.4909
 2857TIP3    H130062   3.689   0.378   0.695  1.3200 -0.0089  0.8654
 2857TIP3    H230063   3.606   0.494   0.745  0.4618 -0.1601 -0.1744
 2858TIP3   OH230064   6.267   1.100  13.337 -0.0687  0.2825  0.2056
 2858TIP3    H130065   6.192   1.043  13.355 -2.4034  2.6190 -1.3837
 2858TIP3    H230066   6.282   1.089  13.243 -0.7710  2.4094 -0.1981
 2859TIP3   OH230067   4.305   0.630  14.262  0.2378  0.3518  0.7220
 2859TIP3    H130068   4.329   0.699  14.201 -1.1196  0.1913 -0.0412
 2859TIP3    H230069   4.221   0.598  14.229 -0.0093 -0.4562  2.0848
 2860TIP3   OH230070   0.968   5.443   1.023 -0.6641 -0.5626 -0.2914
 2860TIP3    H130071   0.934   5.531   1.037  0.0912  0.2108 -2.7505
 2860TIP3    H230072   0.999   5.443   0.932 -0.4133 -3.2985 -0.3089
 2861TIP3   OH230073   4.987   0.968  14.954 -0.3154  0.0598 -0.1160
 2861TIP3    H130074   5.062   0.932  14.906  2.3040  2.1614  2.0431
 2861TIP3    H230075   4.957   0.896  15.010  0.5991 -0.6258 -0.4837
 2862TIP3   OH230076   2.029   1.294   3.968 -0.2557 -0.1115  0.3589
 2862TIP3    H130077   2.032   1.219   3.909  0.0518  0.6737 -0.6466
 2862TIP3    H230078   2.116   1.334   3.961 -0.3605  0.2452  1.0072
 2863TIP3   OH230079   6.035   1.153   0.060 -0.5199  0.3311  0.1445
 2863TIP3    H130080   6.120   1.153   0.105  0.5266 -1.0019 -1.7041
 2863TIP3    H230081   6.014   1.060   0.051 -3.0720  0.6212  2.0447
 2864TIP3   OH230082   6.769   5.564   3.505  0.2025  0.1104  0.3354
 2864TIP3    H130083   6.782   5.650   3.465 -1.3017  0.9569  1.5592
 2864TIP3    H230084   6.688   5.531   3.466 -0.3312  0.1748  1.3693
 2865TIP3   OH230085   5.223   5.127   2.100 -0.1742  0.0351 -0.0427
 2865TIP3    H130086   5.307   5.096   2.134 -0.7635 -0.3337  1.1100
 2865TIP3    H230087   5.233   5.222   2.096  0.3461 -0.0153 -0.0768
 2866TIP3   OH230088   5.838   0.788  12.914  0.0603  0.0975  0.1988
 2866TIP3    H130089   5.756   0.745  12.938 -0.7401  0.5722 -1.5631
 2866TIP3    H230090   5.824   0.880  12.935  0.8926 -0.0744  1.6951
 2867TIP3   OH230091   1.948   2.622  10.575  0.0327  0.5254  0.0007
 2867TIP3    H130092   1.957   2.558  10.646 -1.3659  0.6794  0.3400
 2867TIP3    H230093   1.862   2.606  10.539  0.1138  1.4806 -0.6529
 2868TIP3   OH230094   1.770   0.375  11.810  0.2298  0.3757  0.0284
 2868TIP3    H130095   1.798   0.391  11.900 -1.0082  0.5652  0.3931
 2868TIP3    H230096   1.690   0.324  11.818 -0.0334  0.6147 -0.9581
 2869TIP3   OH230097   0.585   4.237   5.040  0.1881 -0.1787 -0.4628
 2869TIP3    H130098   0.561   4.320   4.999 -0.4668  0.0038  0.2491
 2869TIP3    H230099   0.598   4.176   4.967 -1.4706 -0.0119 -0.9369
 2870TIP3   OH230100   2.890   4.422  11.788 -0.2896 -0.5591 -0.5197
 2870TIP3    H130101   2.942   4.435  11.709  1.9579 -1.2220  0.7370
 2870TIP3    H230102   2.912   4.333  11.817  0.2289  0.1870  1.6387
 2871TIP3   OH230103   5.629   3.596  15.548  0.2750 -0.2382  0.6100
 2871TIP3    H130104   5.601   3.674  15.498 -1.8352 -0.4298  1.3800
 2871TIP3    H230105   5.718   3.579  15.517 -0.0023  1.1749 -1.1986
 2872TIP3   OH230106   2.502   5.272  12.682  0.0686  0.0546  0.5085
 2872TIP3    H130107   2.485   5.344  12.621 -1.1408 -1.2626 -0.7694
 2872TIP3    H230108   2.593   5.247  12.664 -0.8928 -1.8331 -2.5700
 2873TIP3   OH230109   1.174   2.549   4.636  0.5309  0.5052 -0.1902
 2873TIP3    H130110   1.151   2.476   4.694  1.2635  0.6996  0.3532
 2873TIP3    H230111   1.244   2.596   4.682  1.3128  0.5102 -1.3392
 2874TIP3   OH230112   6.364   4.980   3.539 -0.1307 -0.1789 -0.0353
 2874TIP3    H130113   6.433   5.030   3.583 -1.1687  0.3419  1.0518
 2874TIP3    H230114   6.376   4.890   3.571 -0.2047 -0.0098  0.4794
 2875TIP3   OH230115   1.874   5.796   6.018  0.6347 -0.5271  0.3836
 2875TIP3    H130116   1.923   5.875   5.994 -1.5360  0.7092 -0.3519
 2875TIP3    H230117   1.837   5.816   6.104 -0.0062 -0.6810  0.1513
 2876TIP3   OH230118   3.743   2.744  11.264  0.3192 -1.2868  0.1726
 2876TIP3    H130119   3.783   2.825  11.233 -1.3138  0.1700  1.6666
 2876TIP3    H230120   3.664   2.735  11.211  0.7702 -2.2484 -0.3701
 2877TIP3   OH230121   2.126   2.721   6.345  0.1537  0.0504  0.0483
 2877TIP3    H130122   2.171   2.763   6.418 -1.0047 -2.7849  2.6374
 2877TIP3    H230123   2.189   2.657   6.311  0.0599  0.0918 -0.2082
 2878TIP3   OH230124   1.014   5.703  15.961 -0.1625  0.1259  0.0872
 2878TIP3    H130125   0.982   5.682  15.873  0.1939 -0.9800  0.2148
 2878TIP3    H230126   0.953   5.658  16.019  0.0278  0.2650  0.3919
 2879TIP3   OH230127   3.430   1.678   4.208 -0.2584  0.4942  0.0904
 2879TIP3    H130128   3.496   1.609   4.207 -0.2856  0.3384  2.8262
 2879TIP3    H230129   3.349   1.634   4.233 -0.8170  1.1565 -0.4796
 2880TIP3   OH230130   5.669   1.715   3.931  0.0592 -0.9984  0.1092
 2880TIP3    H130131   5.626   1.730   4.015  0.0369 -1.7844  0.2480
 2880TIP3    H230132   5.763   1.714   3.951  0.1794  0.9181 -0.2257
 2881TIP3   OH230133   5.021   3.340   1.628  0.1382 -0.1999  0.0119
 2881TIP3    H130134   5.076   3.340   1.706  0.5163  2.5642 -0.1324
 2881TIP3    H230135   4.937   3.374   1.659 -0.3545 -0.9897 -0.4355
 2882TIP3   OH230136   3.584   6.431   0.029 -0.0831 -0.1410  0.0879
 2882TIP3    H130137   3.622   6.361  -0.025 -0.1678 -1.6175  1.8508
 2882TIP3    H230138   3.490   6.424   0.016 -0.0212  0.9867 -1.2559
 2883TIP3   OH230139   3.777   2.789   5.403  0.3038 -0.6268  0.5594
 2883TIP3    H130140   3.763   2.711   5.350  0.9087 -1.4555  1.5646
 2883TIP3    H230141   3.865   2.819   5.378 -0.4703  0.5570 -0.8187
 2884TIP3   OH230142   2.107   3.155  12.710 -0.4591 -0.3739  0.6856
 2884TIP3    H130143   2.100   3.067  12.749 -1.2982 -1.0550 -0.9010
 2884TIP3    H230144   2.201   3.171  12.704 -0.3006 -0.9721  1.3671
 2885TIP3   OH230145   6.133   2.799   4.418 -0.0360  0.9678  0.2962
 2885TIP3    H130146   6.184   2.748   4.480 -1.0508  0.4149  0.6893
 2885TIP3    H230147   6.113   2.881   4.464  1.2054  1.5643 -0.1727
 2886TIP3   OH230148   6.615   3.095  15.822  0.0875 -0.0534  0.0379
 2886TIP3    H130149   6.698   3.059  15.792  0.0282  0.8429 -1.2941
 2886TIP3    H230150   6.639   3.165  15.883  0.3797  1.0153 -1.2660
 2887TIP3   OH230151   2.768   4.086  12.334 -0.2007  0.7306 -0.2703
 2887TIP3    H130152   2.843   4.065  12.390  0.1976  2.8468  0.0899
 2887TIP3    H230153   2.798   4.160  12.281 -1.3157  0.1703 -1.7375
 2888TIP3   OH230154   6.797   4.480   5.357 -0.0103  0.0295  0.1163
 2888TIP3    H130155   6.826   4.412   5.296 -1.0652  0.4196 -0.8402
 2888TIP3    H230156   6.702   4.476   5.355 -0.0698  0.1654  1.6362
 2889TIP3   OH230157   3.665   2.176   2.126 -0.3694 -0.7324 -0.4077
 2889TIP3    H130158   3.689   2.230   2.051  2.0233  1.5160  1.7189
 2889TIP3    H230159   3.570   2.169   2.122 -0.3888  0.1388 -3.0635
 2890TIP3   OH230160   4.514   6.722   3.061 -0.0661 -1.0809 -0.1653
 2890TIP3    H130161   4.560   6.700   3.142  0.6516  1.3585  0.1864
 2890TIP3    H230162   4.423   6.701   3.078  0.0415 -0.3927  1.3922
 2891TIP3   OH230163   4.236   3.008   3.282 -0.0165 -0.4062  0.0687
 2891TIP3    H130164   4.195   3.060   3.351 -0.2552 -0.2166 -0.2142
 2891TIP3    H230165   4.198   3.041   3.201 -1.4560 -2.1453 -0.0337
 2892TIP3   OH230166   0.201   2.406  12.222 -0.4188 -0.6751 -0.5241
 2892TIP3    H130167   0.295   2.393  12.235 -0.6301 -1.0707  0.6650
 2892TIP3    H230168   0.176   2.471  12.287 -1.1495 -1.3313 -0.1271
 2893TIP3   OH230169   3.742   0.103   4.837 -0.3037 -0.2792 -0.1406
 2893TIP3    H130170   3.797   0.027   4.856  1.1405  1.0514  1.2834
 2893TIP3    H230171   3.711   0.133   4.922  0.4413  1.6234 -0.4767
 2894TIP3   OH230172   1.382   3.127  13.266 -0.7658 -0.4257 -0.1233
 2894TIP3    H130173   1.458   3.092  13.312  1.5082  0.0323 -3.2366
 2894TIP3    H230174   1.311   3.067  13.289  0.8150 -1.7338  1.7778
 2895TIP3   OH230175   1.679   0.947  10.654 -0.2671 -0.0736  0.5055
 2895TIP3    H130176   1.740   0.936  10.726 -0.4625  0.1177  0.7013
 2895TIP3    H230177   1.616   1.013  10.685 -0.4627 -0.1323  0.2384
 2896TIP3   OH230178   4.912   6.578   0.717  0.7793 -0.1575  0.0199
 2896TIP3    H130179   4.968   6.522   0.771  2.1285 -0.5020 -1.6606
 2896TIP3    H230180   4.907   6.533   0.633 -2.1105 -0.1609  0.0909
 2897TIP3   OH230181   3.285   6.486  14.249  0.5058  0.0113  0.4676
 2897TIP3    H130182   3.359   6.466  14.192 -1.3500  1.1374 -2.6063
 2897TIP3    H230183   3.238   6.403  14.259  0.1494  0.0409 -0.8099
 2898TIP3   OH230184   2.768   2.135  11.969  0.2755  0.1849 -0.4915
 2898TIP3    H130185   2.831   2.064  11.963  1.4282  1.2280 -1.2385
 2898TIP3    H230186   2.765   2.173  11.881 -1.9378 -0.2492 -0.6711
 2899TIP3   OH230187   1.276   4.832   3.094  0.3710  0.2513 -0.2127
 2899TIP3    H130188   1.322   4.748   3.091 -2.6332 -1.5334 -0.7349
 2899TIP3    H230189   1.253   4.849   3.003 -0.7150  0.5891  0.1105
 2900TIP3   OH230190   5.550   1.959  12.211  0.1161 -0.0492 -0.4004
 2900TIP3    H130191   5.458   1.933  12.212  0.3536 -0.9096  0.2300
 2900TIP3    H230192   5.582   1.931  12.125  0.0202 -0.6025 -0.2593
 2901TIP3   OH230193   4.801   5.613   6.035  0.0951 -0.4140 -0.2980
 2901TIP3    H130194   4.740   5.665   5.982  1.5745  0.1558 -1.5123
 2901TIP3    H230195   4.744   5.559   6.089 -1.5661  2.2637  0.8885
 2902TIP3   OH230196   1.450   5.201   1.583 -0.2620 -0.1707 -0.0511
 2902TIP3    H130197   1.529   5.164   1.622 -0.6220  1.0355  1.9187
 2902TIP3    H230198   1.391   5.126   1.574 -0.6170 -0.3641  2.9538
 2903TIP3   OH230199   6.847   4.814   2.379 -0.2801 -0.2863 -0.2222
 2903TIP3    H130200   6.777   4.803   2.444 -0.5877 -0.7456 -0.6233
 2903TIP3    H230201   6.832   4.743   2.316 -0.6893  0.8469 -1.4455
 2904TIP3   OH230202   1.529   1.486  10.674  0.9146 -0.2159 -0.0083
 2904TIP3    H130203   1.510   1.503  10.582  1.4901  0.8481  0.0641
 2904TIP3    H230204   1.612   1.437  10.673  1.8610  1.3263  0.0034
 2905TIP3   OH230205   2.108   1.563  14.493 -0.0308  0.1513  0.4000
 2905TIP3    H130206   2.158   1.590  14.417 -0.0308 -1.1919 -0.1087
 2905TIP3    H230207   2.018   1.558  14.462  0.1547 -1.8449  0.0197
 2906TIP3   OH230208   5.814   4.896  14.112 -0.1304  0.6883  0.2893
 2906TIP3    H130209   5.845   4.985  14.127  1.8583  0.2614 -0.8220
 2906TIP3    H230210   5.887   4.853  14.067 -2.0051 -0.7645 -1.5627
 2907TIP3   OH230211   2.918   0.637  14.785 -0.3365 -0.0158  0.3714
 2907TIP3    H130212   2.920   0.669  14.875 -1.8248  1.3020 -0.0239
 2907TIP3    H230213   2.985   0.569  14.783  0.2179  0.3995  2.2836
 2908TIP3   OH230214   0.599   4.486  15.893 -0.2735 -0.2607 -0.2426
 2908TIP3    H130215   0.632   4.442  15.971  0.6825  1.2040  0.2182
 2908TIP3    H230216   0.677   4.520  15.849 -0.7535 -1.3938 -2.0761
 2909TIP3   OH230217   1.061   4.474   0.005  0.7607 -0.1963 -0.7028
 2909TIP3    H130218   1.056   4.565   0.035  2.1204  0.2571 -1.7927
 2909TIP3    H230219   1.040   4.423   0.083  0.7131  1.0251  0.1185
 2910TIP3   OH230220   3.508   1.669  13.956 -0.1727  0.3364 -0.1926
 2910TIP3    H130221   3.516   1.666  13.860 -0.4263  2.3235 -0.3241
 2910TIP3    H230222   3.564   1.743  13.982  0.8809 -0.9419  1.3459
 2911TIP3   OH230223   6.581   0.751   3.195  0.7564 -0.3044 -0.0080
 2911TIP3    H130224   6.651   0.686   3.180  0.6401 -0.7845  1.3562
 2911TIP3    H230225   6.627   0.825   3.234  0.4892 -0.7287  1.1490
 2912TIP3   OH230226   2.462   1.076  14.603 -0.3191  0.4569  0.3069
 2912TIP3    H130227   2.416   0.993  14.594  0.6714 -0.2917  1.7882
 2912TIP3    H230228   2.395   1.139  14.630 -1.0146  0.0993 -0.5307
 2913TIP3   OH230229   6.773   4.491   3.680  1.3333  0.0121  0.8443
 2913TIP3    H130230   6.745   4.407   3.717 -0.0684 -0.0799 -0.3375
 2913TIP3    H230231   6.760   4.554   3.750 -0.3801 -0.2973  0.8345
 2914TIP3   OH230232   1.876   4.983  14.544 -0.1775 -0.6762 -0.2300
 2914TIP3    H130233   1.783   4.963  14.551 -0.3364  0.1613  0.1827
 2914TIP3    H230234   1.887   5.065  14.594  1.6036 -3.0967  3.8875
 2915TIP3   OH230235   3.164   6.726  15.221 -0.4220  0.0306  0.4239
 2915TIP3    H130236   3.173   6.673  15.300  1.3902 -1.9280 -0.9906
 2915TIP3    H230237   3.121   6.669  15.158 -0.8026  1.1621 -0.3856
 2916TIP3   OH230238   0.257   4.119   2.401 -0.3864 -0.8385  0.6525
 2916TIP3    H130239   0.179   4.159   2.441 -1.2156 -1.4397 -0.3240
 2916TIP3    H230240   0.222   4.060   2.334  0.9456 -0.2527 -0.6049
 2917TIP3   OH230241   4.696   5.519   0.636 -0.1737 -0.3592 -0.0951
 2917TIP3    H130242   4.756   5.509   0.709  0.2432 -1.3226 -0.5618
 2917TIP3    H230243   4.615   5.476   0.664 -1.5018  2.8019  1.4184
 2918TIP3   OH230244   5.170   4.374  12.300  0.7123  0.1332  0.4734
 2918TIP3    H130245   5.244   4.386  12.240  0.8076 -0.2645  0.5079
 2918TIP3    H230246   5.096   4.354  12.242  0.8161 -0.3043  0.4914
 2919TIP3   OH230247   3.044   2.821   6.059 -0.4990  0.1464 -0.8707
 2919TIP3    H130248   3.109   2.754   6.080 -1.3346 -0.7506 -1.0709
 2919TIP3    H230249   3.096   2.898   6.036  0.4717 -0.1805  0.1406
 2920TIP3   OH230250   2.941   3.459   4.150 -0.0795  0.0050 -0.5175
 2920TIP3    H130251   2.985   3.409   4.220 -0.9220  0.4112  0.3281
 2920TIP3    H230252   2.991   3.439   4.071 -0.2331 -2.0073 -0.1726
 2921TIP3   OH230253   5.148   5.442   3.326 -0.6164 -0.0977 -0.0316
 2921TIP3    H130254   5.112   5.493   3.399 -1.6127  0.0263 -0.5918
 2921TIP3    H230255   5.117   5.487   3.248 -1.3536 -1.4429 -0.5371
 2922TIP3   OH230256   3.807   0.265   1.757  0.0763 -0.1818  0.2750
 2922TIP3    H130257   3.740   0.284   1.691 -0.8336 -1.0031  0.9338
 2922TIP3    H230258   3.886   0.307   1.724 -0.9072  1.3449 -0.2165
 2923TIP3   OH230259   1.906   6.113  15.104 -0.2444 -0.2970  0.4311
 2923TIP3    H130260   1.936   6.032  15.145 -2.1968 -1.5033 -0.3788
 2923TIP3    H230261   1.821   6.091  15.067  0.0081  1.6148 -1.4946
 2924TIP3   OH230262   1.609   0.396   1.410 -0.1590 -0.4263  0.6102
 2924TIP3    H130263   1.584   0.350   1.490  1.0260  0.4362  1.5303
 2924TIP3    H230264   1.705   0.393   1.410 -0.1125  0.4878 -0.2157
 2925TIP3   OH230265   0.423   2.007  14.092  0.6614 -0.5046 -0.4452
 2925TIP3    H130266   0.351   1.971  14.144  0.8649 -0.2629  0.0161
 2925TIP3    H230267   0.422   2.101  14.113  2.3385 -0.7781  1.1052
 2926TIP3   OH230268   4.161   3.960   0.419  0.4745 -0.7691 -0.7840
 2926TIP3    H130269   4.163   3.865   0.425 -0.4001 -0.8203 -1.1499
 2926TIP3    H230270   4.112   3.978   0.339 -2.9475 -0.0254  1.2877
 2927TIP3   OH230271   6.807   3.223  13.072  0.0460  0.3819  0.4350
 2927TIP3    H130272   6.777   3.132  13.068  2.1738 -0.3406 -0.3818
 2927TIP3    H230273   6.899   3.219  13.046 -0.2506  2.9951 -1.3711
 2928TIP3   OH230274   4.962   1.230  12.575  0.0345 -0.1768 -0.1471
 2928TIP3    H130275   5.043   1.280  12.564 -0.6934  1.8879  2.8502
 2928TIP3    H230276   4.992   1.139  12.584  1.7647  0.2062 -1.4054
 2929TIP3   OH230277   4.524   0.073   0.641 -0.1966  0.6155 -0.4585
 2929TIP3    H130278   4.461   0.142   0.662  0.0010  0.2049  1.7103
 2929TIP3    H230279   4.499   0.000   0.697  0.0048 -0.8859 -2.2112
 2930TIP3   OH230280   5.337   0.117   1.139 -0.2299 -0.1632  0.2536
 2930TIP3    H130281   5.379   0.169   1.070  0.2256 -1.5217 -0.5358
 2930TIP3    H230282   5.247   0.149   1.141 -0.3500 -0.3190 -1.2274
 2931TIP3   OH230283   0.152   3.662   2.374  0.0272  0.6180  0.1345
 2931TIP3    H130284   0.103   3.744   2.375  1.1357  1.3104 -0.6915
 2931TIP3    H230285   0.188   3.656   2.286  2.6724  0.9115  1.1131
 2932TIP3   OH230286   5.788   3.700   3.979 -0.2526  0.2229 -0.2420
 2932TIP3    H130287   5.861   3.653   3.938 -1.2051 -0.4659 -1.1960
 2932TIP3    H230288   5.778   3.779   3.926  0.3741  0.7778  0.4475
 2933TIP3   OH230289   6.024   5.695   3.573 -0.4710 -0.4303 -0.4527
 2933TIP3    H130290   6.098   5.637   3.589 -0.6399 -0.1347  1.6983
 2933TIP3    H230291   5.951   5.656   3.621 -0.6628  1.3706  0.8132
 2934TIP3   OH230292   2.892   3.105   3.034  0.1448 -0.3956  0.0462
 2934TIP3    H130293   2.882   3.115   3.129  0.9625 -2.1220  0.3667
 2934TIP3    H230294   2.826   3.163   2.996 -0.1108  0.4274  1.6611
 2935TIP3   OH230295   6.560   2.617  12.546  0.5905  0.5105  0.3557
 2935TIP3    H130296   6.553   2.524  12.523 -1.5383  0.3367  1.4066
 2935TIP3    H230297   6.492   2.660  12.494 -0.9704  0.8414  2.5241
 2936TIP3   OH230298   4.055   4.586   5.037 -0.0467 -0.3633  0.0579
 2936TIP3    H130299   4.087   4.500   5.009 -1.1106 -1.0968  1.0277
 2936TIP3    H230300   4.059   4.584   5.132 -1.6942 -0.0119  0.1693
 2937TIP3   OH230301   1.556   3.046  15.774  0.2668  0.0561  0.5187
 2937TIP3    H130302   1.516   3.128  15.745  1.3710  0.9395  1.4263
 2937TIP3    H230303   1.593   3.008  15.694  0.5741  0.9239  0.2374
 2938TIP3   OH230304   1.809   6.099  16.686  0.2186 -0.2230  0.2728
 2938TIP3    H130305   1.852   6.015  16.702 -0.6016 -0.6596  0.2682
 2938TIP3    H230306   1.871   6.148  16.633  1.3877 -0.2081  1.5983
 2939TIP3   OH230307   6.065   2.131   5.205 -0.3907 -0.0318 -0.0996
 2939TIP3    H130308   6.133   2.182   5.160 -0.2376 -0.2350 -0.0998
 2939TIP3    H230309   6.010   2.197   5.248 -1.0954  0.2382 -1.3470
 2940TIP3   OH230310   5.004   0.437  14.600 -0.2377 -0.6120  0.2429
 2940TIP3    H130311   4.991   0.444  14.506 -1.3516 -0.5990  0.3769
 2940TIP3    H230312   5.002   0.527  14.632  0.3437 -0.6020  0.2604
 2941TIP3   OH230313   5.001   6.438   5.290 -0.1008 -0.4763 -0.1781
 2941TIP3    H130314   5.016   6.364   5.232  0.4787 -0.4952 -0.0105
 2941TIP3    H230315   4.974   6.509   5.232  1.1732 -0.2901 -0.5683
 2942TIP3   OH230316   0.809   1.656  11.568 -0.3707  0.0681  0.0102
 2942TIP3    H130317   0.898   1.658  11.604 -0.5510  0.7670  0.4256
 2942TIP3    H230318   0.792   1.746  11.541 -1.2628  0.1174  0.6927
 2943TIP3   OH230319   3.392   2.267  14.796  0.3393  0.0839 -0.3175
 2943TIP3    H130320   3.323   2.320  14.758  1.2193  1.3753 -0.1574
 2943TIP3    H230321   3.358   2.241  14.882 -0.6912 -0.8973 -0.9829
 2944TIP3   OH230322   0.037   0.193  11.781 -1.1664 -0.5666 -0.6658
 2944TIP3    H130323  -0.008   0.153  11.856  0.0651  1.8287  1.4786
 2944TIP3    H230324   0.113   0.137  11.767 -0.5144 -0.1696  1.0109
 2945TIP3   OH230325   3.068   3.070   3.430 -0.2596 -0.2734 -0.4788
 2945TIP3    H130326   3.062   2.977   3.451  0.2469 -0.1352  0.3105
 2945TIP3    H230327   3.162   3.087   3.423 -0.3199  0.3378  0.1174
 2946TIP3   OH230328   1.394   6.372  12.937 -0.4540  0.1177 -0.2632
 2946TIP3    H130329   1.469   6.430  12.945 -0.6515  0.2297  0.8222
 2946TIP3    H230330   1.432   6.284  12.933 -0.1922  0.2591 -1.3406
 2947TIP3   OH230331   5.586   6.592   6.191 -0.1402  0.1541 -0.0965
 2947TIP3    H130332   5.602   6.500   6.168 -0.0109 -0.0226  0.6662
 2947TIP3    H230333   5.540   6.628   6.115  0.3524 -0.3777 -0.6640
 2948TIP3   OH230334   4.522   6.606   0.287 -0.0117 -1.0636  0.0608
 2948TIP3    H130335   4.577   6.556   0.228 -0.0172 -0.1730 -0.7262
 2948TIP3    H230336   4.563   6.597   0.373 -0.0191 -2.3938 -0.0537
 2949TIP3   OH230337   1.161   4.845  15.882 -0.1713  0.1803  0.9161
 2949TIP3    H130338   1.203   4.914  15.933  0.5683 -0.2323  0.8831
 2949TIP3    H230339   1.069   4.847  15.909  0.2042 -0.0414  2.2859
 2950TIP3   OH230340   1.699   3.123   4.628  0.4767  0.5272 -0.7934
 2950TIP3    H130341   1.635   3.161   4.568 -0.0947  0.1687 -0.4231
 2950TIP3    H230342   1.753   3.067   4.572 -2.6510 -3.2459 -0.4968
 2951TIP3   OH230343   1.697   3.442  11.006 -0.0128 -0.2990  0.1001
 2951TIP3    H130344   1.630   3.478  11.064 -0.6823  0.1727 -0.9333
 2951TIP3    H230345   1.661   3.357  10.978  0.9692 -1.2183  1.4910
 2952TIP3   OH230346   4.169   3.674  10.987 -0.5946 -0.4943  0.2825
 2952TIP3    H130347   4.216   3.593  11.004 -1.0482 -0.5613  1.3255
 2952TIP3    H230348   4.095   3.648  10.931  0.7953 -0.3102 -1.7613
 2953TIP3   OH230349   1.492   4.058   5.870  0.1211  0.1531  0.0791
 2953TIP3    H130350   1.411   4.051   5.920 -0.4309  2.0587 -0.4488
 2953TIP3    H230351   1.528   3.969   5.869 -1.5553 -0.5790  0.9795
 2954TIP3   OH230352   5.947   3.153  11.974 -0.5289 -0.2038  0.3279
 2954TIP3    H130353   5.950   3.079  12.035 -3.3082 -0.3836  0.3741
 2954TIP3    H230354   6.005   3.218  12.012  0.7144 -1.7300  1.1510
 2955TIP3   OH230355   0.181   5.669  16.092 -0.3248  0.5875  0.7269
 2955TIP3    H130356   0.275   5.680  16.108 -0.6524  0.8568  2.8541
 2955TIP3    H230357   0.159   5.736  16.028  0.9859  0.2298 -0.1407
 2956TIP3   OH230358   1.104   5.307  15.443  0.6270 -0.6580 -0.0507
 2956TIP3    H130359   1.142   5.259  15.516 -0.1072 -1.5411 -0.2384
 2956TIP3    H230360   1.170   5.300  15.374  1.1294 -0.1928  0.3739
 2957TIP3   OH230361   5.314   0.413  13.704 -0.2506 -0.0277  0.1260
 2957TIP3    H130362   5.254   0.369  13.764 -0.5176 -1.1979 -0.9523
 2957TIP3    H230363   5.400   0.401  13.743 -0.5540  0.3207  0.9097
 2958TIP3   OH230364   1.013   5.624   2.750 -0.1414  1.1268  0.2455
 2958TIP3    H130365   1.093   5.574   2.756 -1.0993 -0.2442  2.6201
 2958TIP3    H230366   0.945   5.559   2.732 -1.2706  1.6431  2.3730
 2959TIP3   OH230367   4.656   2.519   1.913  0.2879 -0.5320 -0.2782
 2959TIP3    H130368   4.619   2.447   1.965  0.8038  1.0354  2.4594
 2959TIP3    H230369   4.741   2.486   1.885 -0.1114 -1.5294 -0.3710
 2960TIP3   OH230370   4.133   3.352  11.208 -0.5238  0.1337  0.2653
 2960TIP3    H130371   4.059   3.292  11.207  0.3206 -0.9805 -1.6055
 2960TIP3    H230372   4.119   3.407  11.284 -1.8634 -1.8052  1.5062
 2961TIP3   OH230373   6.224   3.515   1.350 -0.0975 -0.3073  0.1757
 2961TIP3    H130374   6.263   3.602   1.340 -0.8114 -0.1737 -1.8958
 2961TIP3    H230375   6.130   3.532   1.363 -0.0025 -0.7382  1.6203
 2962TIP3   OH230376   3.591   5.875   6.763 -0.3857  0.2533  0.6015
 2962TIP3    H130377   3.586   5.954   6.818 -0.7926  0.3155  0.4770
 2962TIP3    H230378   3.633   5.810   6.819  2.8056  1.3836 -0.2525
 2963TIP3   OH230379   6.543   1.789   2.630 -1.0878 -0.5657 -0.1811
 2963TIP3    H130380   6.533   1.825   2.718 -1.2154 -0.1956 -0.3474
 2963TIP3    H230381   6.471   1.826   2.580 -0.1181  0.4991 -0.8510
 2964TIP3   OH230382   6.217   2.144   3.329  0.1720  0.5812 -0.1241
 2964TIP3    H130383   6.255   2.207   3.268  0.9814 -1.3662 -1.6904
 2964TIP3    H230384   6.125   2.137   3.302  0.1713  0.7697 -0.1768
 2965TIP3   OH230385   6.010   0.942  15.981  0.3029  0.6662 -0.5168
 2965TIP3    H130386   6.034   0.985  15.899  2.3847  1.1093  0.2565
 2965TIP3    H230387   5.984   1.013  16.039 -1.6873  0.3075 -0.8986
 2966TIP3   OH230388   0.881   6.431  11.192  0.1898 -0.0235 -0.1285
 2966TIP3    H130389   0.881   6.513  11.143 -0.0616 -0.5235 -0.9935
 2966TIP3    H230390   0.957   6.436  11.250 -1.1590  1.8602  1.6460
 2967TIP3   OH230391   2.287   4.261  13.657  0.0009  0.8462 -0.6157
 2967TIP3    H130392   2.319   4.195  13.717 -2.3414 -1.0852 -1.3192
 2967TIP3    H230393   2.193   4.266  13.675 -0.0805  3.3128 -1.2749
 2968TIP3   OH230394   1.741   3.643   5.443 -0.0148 -0.0464  0.7642
 2968TIP3    H130395   1.823   3.599   5.463  0.2370 -0.2720 -0.7149
 2968TIP3    H230396   1.674   3.587   5.483  0.3914 -1.0862  0.0185
 2969TIP3   OH230397   1.668   3.629  14.890  0.6423  0.3764  0.2799
 2969TIP3    H130398   1.681   3.714  14.848  1.6939  0.0709 -0.0481
 2969TIP3    H230399   1.756   3.593  14.898  0.0989 -1.4101 -1.1263
 2970TIP3   OH230400   3.836   5.130   5.819 -0.0545  0.1861 -0.2580
 2970TIP3    H130401   3.781   5.122   5.897 -0.8662  0.1176 -0.8239
 2970TIP3    H230402   3.920   5.090   5.844 -1.3975 -3.0974 -0.5056
 2971TIP3   OH230403   1.687   3.625   2.426  0.0839 -0.4744 -0.0353
 2971TIP3    H130404   1.654   3.659   2.343  0.5650 -0.0147 -0.0448
 2971TIP3    H230405   1.666   3.532   2.424 -2.0846 -0.0595  0.3794
 2972TIP3   OH230406   2.643   2.975   0.048 -0.8109  0.0488 -0.0059
 2972TIP3    H130407   2.722   2.940   0.007 -0.3728  0.9942  0.0222
 2972TIP3    H230408   2.637   2.926   0.131  0.5101  0.8907  0.6286
 2973TIP3   OH230409   0.871   0.324  11.093  0.1183  0.2306 -1.2256
 2973TIP3    H130410   0.820   0.244  11.098 -0.1722  0.4420 -0.8064
 2973TIP3    H230411   0.810   0.389  11.058 -0.3710  0.8595  0.6749
 2974TIP3   OH230412   5.584   1.986  10.862 -0.0115  0.4473  0.7872
 2974TIP3    H130413   5.542   2.071  10.850  0.5546  0.8429  1.4587
 2974TIP3    H230414   5.645   2.000  10.935 -0.8215 -0.8610  1.7684
 2975TIP3   OH230415   5.573   2.582  14.275  0.9022  0.1837 -0.5284
 2975TIP3    H130416   5.505   2.529  14.315 -0.3106  0.6012 -1.9509
 2975TIP3    H230417   5.580   2.659  14.330 -0.2266  0.4206 -0.7075
 2976TIP3   OH230418   1.994   3.438  10.645 -0.2541 -0.1099  0.5367
 2976TIP3    H130419   2.007   3.497  10.570  1.8103 -2.5242 -1.1784
 2976TIP3    H230420   2.044   3.479  10.716 -2.2949  2.2607  0.7540
 2977TIP3   OH230421   4.523   3.340   4.747 -0.2326  0.0286  0.1019
 2977TIP3    H130422   4.611   3.304   4.740  0.3420  1.3756  0.0014
 2977TIP3    H230423   4.523   3.415   4.687 -1.1160  0.6672  0.8625
 2978TIP3   OH230424   4.770   3.729  11.078 -1.0668 -0.2236 -0.3672
 2978TIP3    H130425   4.755   3.635  11.070 -0.6810 -0.3444  0.2363
 2978TIP3    H230426   4.829   3.751  11.007 -1.9549 -0.2452 -1.1250
 2979TIP3   OH230427   3.075   1.884  12.700  0.2599 -0.2065 -0.2434
 2979TIP3    H130428   3.002   1.882  12.762  0.1458  2.6083 -0.1538
 2979TIP3    H230429   3.035   1.911  12.617  0.8316 -1.2711 -0.8812
 2980TIP3   OH230430   3.618   2.313  14.621  0.4114 -0.0608 -0.1800
 2980TIP3    H130431   3.689   2.295  14.683  0.3015 -2.2680 -0.5947
 2980TIP3    H230432   3.542   2.271  14.661  0.4800 -2.1097 -2.0267
 2981TIP3   OH230433   4.509   2.937  11.420  0.1813 -0.1287 -0.2145
 2981TIP3    H130434   4.511   2.870  11.489 -3.2391  0.7792  0.9343
 2981TIP3    H230435   4.503   3.020  11.467  1.2324  0.8117 -1.6414
 2982TIP3   OH230436   5.241   1.441   0.670 -0.3281 -0.0192 -0.6316
 2982TIP3    H130437   5.292   1.379   0.618 -1.3644 -0.3101 -1.3489
 2982TIP3    H230438   5.246   1.523   0.621  0.8646  0.4319  0.2058
 2983TIP3   OH230439   0.737   6.680  10.692  0.2916 -0.1604 -0.1254
 2983TIP3    H130440   0.753   6.590  10.719  0.8185 -0.0239  0.0232
 2983TIP3    H230441   0.814   6.705  10.641 -0.3682 -0.1743 -1.1788
 2984TIP3   OH230442   0.468   6.029  16.501  0.3284 -0.0653  0.4727
 2984TIP3    H130443   0.418   5.948  16.487 -0.9712  1.0125 -1.7965
 2984TIP3    H230444   0.532   6.030  16.430  1.8619 -0.1402  1.8081
 2985TIP3   OH230445   1.106   5.410  14.024  0.3231  0.4961 -0.0976
 2985TIP3    H130446   1.059   5.340  13.978 -2.0104  0.4236  2.1501
 2985TIP3    H230447   1.045   5.439  14.092  3.2661  1.0245  2.5516
 2986TIP3   OH230448   4.394   0.818   0.594  0.0176  0.3823 -0.2936
 2986TIP3    H130449   4.302   0.815   0.619  0.2365 -0.7603  0.4408
 2986TIP3    H230450   4.401   0.894   0.536 -1.4276  0.3376 -0.5522
 2987TIP3   OH230451   6.236   6.722   5.966  0.2806 -0.3116 -0.0440
 2987TIP3    H130452   6.164   6.777   5.935  1.3065 -0.2581 -2.5591
 2987TIP3    H230453   6.288   6.780   6.022 -1.1080 -0.0964  1.0567
 2988TIP3   OH230454   4.572   3.514  11.017  0.2559 -0.1595 -0.7978
 2988TIP3    H130455   4.477   3.509  11.016  0.2883 -0.8017 -0.9694
 2988TIP3    H230456   4.598   3.470  11.098  0.2887  2.6532  0.8535
 2989TIP3   OH230457   0.892   0.494  13.000 -0.1466 -0.3756  0.1789
 2989TIP3    H130458   0.846   0.461  13.077  0.5601 -0.2836  0.6489
 2989TIP3    H230459   0.909   0.586  13.020 -0.5107 -0.1937 -0.3527
 2990TIP3   OH230460   1.413   0.541   4.133  0.3167 -0.3216  0.6146
 2990TIP3    H130461   1.416   0.467   4.073  0.1760 -0.6091  0.9606
 2990TIP3    H230462   1.443   0.615   4.081  0.7726 -0.6822  0.3625
 2991TIP3   OH230463   3.096   0.301  15.808  0.4348  0.4371 -0.1669
 2991TIP3    H130464   3.029   0.234  15.820  1.1633 -1.2484 -4.0055
 2991TIP3    H230465   3.048   0.377  15.774  0.1243  0.4535  0.2913
 2992TIP3   OH230466   5.618   2.734   5.086  0.2909 -0.0039  0.1660
 2992TIP3    H130467   5.577   2.664   5.136  1.2931 -0.0948  0.8894
 2992TIP3    H230468   5.703   2.698   5.058  0.3440  0.5361 -0.3963
 2993TIP3   OH230469   5.325   3.477   2.383  0.3027  0.0375  0.6131
 2993TIP3    H130470   5.308   3.389   2.417  0.4976 -0.4566 -0.5200
 2993TIP3    H230471   5.238   3.517   2.377  0.1305 -0.3580  0.4128
 2994TIP3   OH230472   2.438   2.047   1.396  0.7673 -0.2362 -0.1951
 2994TIP3    H130473   2.450   1.959   1.432  0.2230 -0.5961 -0.8785
 2994TIP3    H230474   2.442   2.105   1.472  0.0283 -0.9464  0.3984
 2995TIP3   OH230475   3.941   4.900  16.042 -0.2509  0.4118 -0.6641
 2995TIP3    H130476   3.990   4.915  16.123 -4.0329 -1.5539  2.2308
 2995TIP3    H230477   3.918   4.988  16.012  0.9774  1.1653  0.4808
 2996TIP3   OH230478   2.217   1.435   3.821  0.3668  0.6910 -0.5000
 2996TIP3    H130479   2.209   1.349   3.780  2.6586  0.7127 -1.1319
 2996TIP3    H230480   2.194   1.497   3.752 -0.7118  0.6196 -0.2178
 2997TIP3   OH230481   4.401   0.617  12.374  0.4825 -0.3046 -0.1205
 2997TIP3    H130482   4.417   0.529  12.340 -0.5660 -0.4950 -0.1519
 2997TIP3    H230483   4.333   0.606  12.441  0.8951  0.3801  0.4306
 2998TIP3   OH230484   4.186   6.126   0.702 -0.2560  0.1950 -0.2399
 2998TIP3    H130485   4.252   6.184   0.665  0.2597 -0.8713 -1.0496
 2998TIP3    H230486   4.214   6.038   0.676 -0.6475 -0.4812  1.5207
 2999TIP3   OH230487   0.880   0.621  10.495  0.0059  0.4215  0.2166
 2999TIP3    H130488   0.966   0.590  10.464  0.7052  1.2453  1.2525
 2999TIP3    H230489   0.821   0.548  10.478  1.0738 -0.4658  0.1763
 3000TIP3   OH230490   2.080   2.022   5.744  0.6217  0.0237 -0.7119
 3000TIP3    H130491   2.102   2.029   5.837  0.6689  1.5559 -0.8142
 3000TIP3    H230492   2.127   1.944   5.714 -1.2424 -1.8991  1.0233
 3001TIP3   OH230493   3.402   0.547  11.749  0.9234 -0.1433  0.4789
 3001TIP3    H130494   3.477   0.553  11.808  1.1586 -1.0971  0.2879
 3001TIP3    H230495   3.437   0.572  11.663  0.9562 -0.2921  0.4484
 3002TIP3   OH230496   6.635   2.643   1.320  0.1050 -0.1422  0.0849
 3002TIP3    H130497   6.560   2.690   1.284 -0.0985 -1.1691 -0.8659
 3002TIP3    H230498   6.639   2.672   1.411  0.4990  2.3380 -0.6614
 3003TIP3   OH230499   4.401   1.815   6.516  0.1957  0.5162 -0.3320
 3003TIP3    H130500   4.326   1.769   6.478 -0.7288  0.7715  1.1106
 3003TIP3    H230501   4.368   1.902   6.538  1.5423  1.4229 -1.6981
 3004TIP3   OH230502   6.170   5.940   3.862 -0.2677 -0.8361 -0.0023
 3004TIP3    H130503   6.261   5.967   3.854 -0.6463  0.4441 -0.1716
 3004TIP3    H230504   6.172   5.846   3.846  0.8205 -0.5767 -1.6837
 3005TIP3   OH230505   0.695   4.251  11.578 -0.2890  0.2270 -0.2314
 3005TIP3    H130506   0.726   4.175  11.529 -1.7934 -0.8335  0.3726
 3005TIP3    H230507   0.683   4.219  11.668 -0.9930  1.1616  0.0287
 3006TIP3   OH230508   2.718   5.202  11.669 -0.0884  0.4953 -0.0807
 3006TIP3    H130509   2.797   5.159  11.635  1.5682  1.5125  2.1438
 3006TIP3    H230510   2.743   5.294  11.679 -0.9339  0.5571  2.1948
 3007TIP3   OH230511   5.158   4.627   2.635  0.2627 -0.0544 -0.0638
 3007TIP3    H130512   5.213   4.552   2.613  0.8997  1.2153 -3.3025
 3007TIP3    H230513   5.220   4.694   2.663  0.3342  0.9150 -2.3466
 3008TIP3   OH230514   4.728   6.172  11.535 -0.1889 -0.3465  0.0533
 3008TIP3    H130515   4.795   6.129  11.589 -2.6232 -1.8730  2.0379
 3008TIP3    H230516   4.655   6.188  11.594 -1.0904  2.7050 -1.6628
 3009TIP3   OH230517   2.847   5.645  12.625  0.3936  0.5503 -0.2432
 3009TIP3    H130518   2.937   5.660  12.653  0.2219  0.5908  0.3012
 3009TIP3    H230519   2.816   5.574  12.681  0.5650 -0.5269 -1.4626
 3010TIP3   OH230520   6.566   2.670   5.593  0.4421  0.2047 -0.1616
 3010TIP3    H130521   6.502   2.721   5.543 -0.2627 -0.5925 -0.0849
 3010TIP3    H230522   6.517   2.594   5.624  1.2347 -0.0248  0.5533
 3011TIP3   OH230523   0.623   6.286   3.780  0.0949 -0.0106 -0.0510
 3011TIP3    H130524   0.664   6.236   3.710 -0.1943 -1.7534  0.9784
 3011TIP3    H230525   0.541   6.241   3.798  1.0270 -0.7895  2.6841
 3012TIP3   OH230526   2.631   0.825  15.913 -0.4660 -0.0314 -0.2519
 3012TIP3    H130527   2.699   0.885  15.944 -1.1973  0.8408 -0.2955
 3012TIP3    H230528   2.634   0.832  15.818 -1.2647  0.7655 -0.2295
 3013TIP3   OH230529   2.449   2.093  14.523 -0.3406 -0.0906 -0.2789
 3013TIP3    H130530   2.396   2.026  14.567 -0.0212  1.4166  2.6652
 3013TIP3    H230531   2.533   2.091  14.568  0.7895  0.2063 -2.2580
 3014TIP3   OH230532   4.484   5.338  13.204  0.1868  0.3408 -0.5402
 3014TIP3    H130533   4.528   5.346  13.288 -2.1992  0.8999  0.7442
 3014TIP3    H230534   4.516   5.255  13.168  0.6735 -0.3201  1.3036
 3015TIP3   OH230535   5.739   4.571  12.532 -0.2501 -0.2870  0.0034
 3015TIP3    H130536   5.745   4.655  12.578 -0.8537 -0.3143  0.1470
 3015TIP3    H230537   5.722   4.594  12.441  1.7288 -0.2127 -0.3917
 3016TIP3   OH230538   0.589   4.873  14.956 -0.0428  0.6222  0.0319
 3016TIP3    H130539   0.622   4.834  15.037 -1.5357 -1.3302 -0.2101
 3016TIP3    H230540   0.532   4.944  14.984 -0.3259  0.1458  0.6888
 3017TIP3   OH230541   6.195   6.736  12.309  0.3534  0.4062 -0.2355
 3017TIP3    H130542   6.192   6.650  12.268  1.8688  0.2133  0.0074
 3017TIP3    H230543   6.106   6.750  12.342 -0.3201 -0.3734 -1.6446
 3018TIP3   OH230544   4.244   0.734   3.748 -0.6532  0.2153 -0.1589
 3018TIP3    H130545   4.220   0.734   3.841 -2.1023  1.1843 -0.5055
 3018TIP3    H230546   4.192   0.805   3.710  0.1088 -0.0103 -1.6674
 3019TIP3   OH230547   1.512   3.429  13.949  0.0945 -0.2609 -0.2379
 3019TIP3    H130548   1.583   3.435  13.885 -1.0762  0.3681 -1.5245
 3019TIP3    H230549   1.494   3.335  13.956  1.2482 -0.4555  0.3555
 3020TIP3   OH230550   5.473   5.708   2.090  0.1373 -0.7588  0.1026
 3020TIP3    H130551   5.530   5.683   2.017  1.0916  0.9587  0.1897
 3020TIP3    H230552   5.498   5.650   2.161  1.5338 -0.3292  0.0002
 3021TIP3   OH230553   6.725   5.212  10.753  0.0500 -0.4274 -0.3130
 3021TIP3    H130554   6.819   5.228  10.741  0.2322 -0.6571  0.7533
 3021TIP3    H230555   6.713   5.209  10.848 -1.8609  4.6072 -0.0584
 3022TIP3   OH230556   6.309   0.590   5.848 -0.0139 -0.4044  0.9342
 3022TIP3    H130557   6.358   0.646   5.788 -0.8510 -1.0775 -0.4132
 3022TIP3    H230558   6.366   0.583   5.925  0.0424  2.4465  1.2753
 3023TIP3   OH230559   0.899   3.758  16.596  0.4804 -0.2476 -0.0467
 3023TIP3    H130560   0.966   3.791  16.657  0.4686  0.5079 -0.4354
 3023TIP3    H230561   0.947   3.703  16.534  0.2919 -2.3366  1.5291
 3024TIP3   OH230562   4.861   4.270  13.346  0.3830  0.1260  0.0826
 3024TIP3    H130563   4.916   4.223  13.409 -0.1452  0.3847  0.7458
 3024TIP3    H230564   4.881   4.228  13.262 -0.0725 -1.3099  0.6508
 3025TIP3   OH230565   5.303   2.636   3.242 -0.0094 -0.3164  0.0474
 3025TIP3    H130566   5.367   2.702   3.265  0.5165 -0.6743 -0.3589
 3025TIP3    H230567   5.264   2.668   3.160  0.3540 -0.5689 -0.2326
 3026TIP3   OH230568   2.826   0.844   0.031  0.0866 -0.4580 -0.1903
 3026TIP3    H130569   2.774   0.844   0.111 -0.9099 -0.2117 -0.8278
 3026TIP3    H230570   2.867   0.758   0.029 -2.0980 -1.5479 -0.8153
 3027TIP3   OH230571   5.534   4.035  12.837 -0.0455  0.2267  0.7574
 3027TIP3    H130572   5.607   4.015  12.778  0.4150 -1.4778  1.8239
 3027TIP3    H230573   5.456   4.034  12.781  0.2746 -2.1491  0.2201
 3028TIP3   OH230574   2.281   2.095  15.805 -0.2560 -1.0776  0.3385
 3028TIP3    H130575   2.315   2.184  15.796 -0.8542 -0.5883  2.3285
 3028TIP3    H230576   2.240   2.076  15.721 -0.6468  0.7661  0.0748
 3029TIP3   OH230577   5.574   1.287  16.622  0.2374 -0.0919  0.4176
 3029TIP3    H130578   5.498   1.230  16.609 -1.2636  2.0753 -1.0298
 3029TIP3    H230579   5.574   1.305  16.716  0.3328 -1.8559  0.7897
 3030TIP3   OH230580   2.071   2.799  11.381  0.6057  0.1587  0.0724
 3030TIP3    H130581   2.161   2.827  11.399  0.0715  2.1186 -0.1136
 3030TIP3    H230582   2.057   2.820  11.289 -0.3365  0.7588  0.3416
 3031TIP3   OH230583   2.900   3.873  12.134 -0.2800 -0.3373  0.3420
 3031TIP3    H130584   2.883   3.959  12.172  0.3155 -0.0096 -0.1111
 3031TIP3    H230585   2.871   3.881  12.043 -0.1735 -0.5992  0.2839
 3032TIP3   OH230586   3.625   6.357  11.257  0.1036  0.1623  0.0273
 3032TIP3    H130587   3.653   6.424  11.195 -0.2675  0.3185  0.0279
 3032TIP3    H230588   3.573   6.295  11.205  0.3070 -0.0377  0.0593
 3033TIP3   OH230589   1.462   3.720  14.229 -0.5992  0.0906  0.0036
 3033TIP3    H130590   1.537   3.774  14.254  0.1630 -0.6315 -0.6679
 3033TIP3    H230591   1.418   3.771  14.161  0.5298 -0.4108 -1.1466
 3034TIP3   OH230592   1.695   4.041   1.289  0.5280 -0.1354 -0.4557
 3034TIP3    H130593   1.763   4.051   1.223  0.8204 -1.1186 -0.3284
 3034TIP3    H230594   1.688   4.127   1.330 -0.3293  0.7732 -2.3764
 3035TIP3   OH230595   5.246   3.131   1.094 -0.4927 -0.2256  0.3226
 3035TIP3    H130596   5.282   3.053   1.136  2.6764  0.7090 -0.4038
 3035TIP3    H230597   5.269   3.203   1.152 -1.3143  0.4579 -0.1680
 3036TIP3   OH230598   2.014   4.252   5.227 -0.2889  0.4028  0.1256
 3036TIP3    H130599   1.931   4.296   5.210 -0.3832  0.5998  1.0489
 3036TIP3    H230600   2.037   4.210   5.144 -0.5019  1.6795 -0.6065
 3037TIP3   OH230601   0.947   0.726  16.576 -0.3138 -0.4556 -0.2739
 3037TIP3    H130602   0.925   0.819  16.584  1.6559  0.2496 -2.0855
 3037TIP3    H230603   0.991   0.704  16.658  1.1358  0.8324 -0.6707
 3038TIP3   OH230604   2.327   4.751  16.624 -0.3589 -0.1369  0.2120
 3038TIP3    H130605   2.325   4.713  16.711 -1.6662  0.9459  0.6845
 3038TIP3    H230606   2.266   4.825  16.628 -0.7915 -0.3294 -1.7361
 3039TIP3   OH230607   2.293   6.103  13.304  0.7017 -0.2670 -0.0792
 3039TIP3    H130608   2.371   6.049  13.316  1.4922  0.3837 -2.0196
 3039TIP3    H230609   2.307   6.148  13.221 -1.7100 -0.0445 -0.4236
 3040TIP3   OH230610   3.038   2.183  12.623 -0.6035  0.1661  0.3641
 3040TIP3    H130611   2.995   2.102  12.595 -0.9821  0.7104 -0.6897
 3040TIP3    H230612   3.107   2.154  12.682 -1.6192 -0.8188  1.1033
 3041TIP3   OH230613   6.076   2.244  11.122 -0.3288  0.4879  0.1716
 3041TIP3    H130614   5.998   2.242  11.067 -0.6747  1.0190  0.6396
 3041TIP3    H230615   6.048   2.208  11.206  0.2901 -0.6775 -0.0822
 3042TIP3   OH230616   0.911   4.907  14.512 -0.4083 -0.2073  0.4154
 3042TIP3    H130617   0.939   4.943  14.428  0.7411  1.5763  1.4952
 3042TIP3    H230618   0.883   4.983  14.562 -0.0353 -1.0944  2.0365
 3043TIP3   OH230619   1.488   2.786  12.705 -0.5392  0.1530 -0.2193
 3043TIP3    H130620   1.502   2.875  12.675  1.5922 -0.1823 -0.3576
 3043TIP3    H230621   1.534   2.731  12.641 -2.8034 -1.1760 -0.8230
 3044TIP3   OH230622   3.608   2.326   4.886 -0.3306 -0.5347 -0.6585
 3044TIP3    H130623   3.653   2.291   4.963  1.1081 -0.9378 -1.6370
 3044TIP3    H230624   3.516   2.332   4.913  0.0294 -1.2429  0.8708
 3045TIP3   OH230625   0.834   1.049   1.111  0.7379 -0.2155  0.5872
 3045TIP3    H130626   0.797   1.042   1.199 -2.1875  1.7490 -0.3716
 3045TIP3    H230627   0.855   1.142   1.102 -2.5851  0.4581 -1.9756
 3046TIP3   OH230628   2.339   6.183   1.894 -0.0647  0.5653 -0.2383
 3046TIP3    H130629   2.396   6.117   1.854  1.2036  2.4012 -1.6662
 3046TIP3    H230630   2.327   6.154   1.984  1.5850 -0.8780 -0.4345
 3047TIP3   OH230631   3.181   3.858   0.942  0.1011 -0.3328  0.0077
 3047TIP3    H130632   3.108   3.801   0.967  0.4009 -0.3017  1.0000
 3047TIP3    H230633   3.199   3.910   1.021  0.5978  0.3076 -0.5140
 3048TIP3   OH230634   2.634   6.545  15.517 -0.6602 -0.5221 -0.6525
 3048TIP3    H130635   2.697   6.480  15.548 -1.8295 -1.1888  0.4176
 3048TIP3    H230636   2.549   6.501  15.523 -1.4806  1.0485 -0.0150
 3049TIP3   OH230637   0.107   6.607  15.543  0.1912 -0.2425 -0.0061
 3049TIP3    H130638   0.135   6.525  15.501 -0.5128 -0.4842 -0.0218
 3049TIP3    H230639   0.179   6.630  15.602  0.6268 -0.5892 -0.3953
 3050TIP3   OH230640   5.467   4.071   5.664  0.4856  0.8542 -0.5095
 3050TIP3    H130641   5.500   3.997   5.613 -1.2348 -0.1830 -0.1883
 3050TIP3    H230642   5.503   4.058   5.751  1.9505  1.6390 -0.9517
 3051TIP3   OH230643   0.306   1.497   2.067  0.0512 -0.6020 -0.1110
 3051TIP3    H130644   0.364   1.549   2.010  0.1483 -0.3688  0.1991
 3051TIP3    H230645   0.351   1.494   2.151  0.5470 -2.0754 -0.3934
 3052TIP3   OH230646   4.185   6.439  12.529  0.0872  0.0096 -0.1095
 3052TIP3    H130647   4.248   6.367  12.519  0.3581  0.2769 -0.3519
 3052TIP3    H230648   4.239   6.518  12.528 -0.0154  0.1547  1.9075
 3053TIP3   OH230649   4.052   0.410  11.734 -0.0235  0.0741 -0.4323
 3053TIP3    H130650   3.959   0.421  11.755 -0.0822 -0.2467 -0.5240
 3053TIP3    H230651   4.063   0.461  11.653  0.3807  1.9751  0.7533
 3054TIP3   OH230652   1.722   1.986  15.775  0.3832 -0.0343  0.1821
 3054TIP3    H130653   1.803   2.036  15.789 -0.4726  1.7333 -0.7566
 3054TIP3    H230654   1.717   1.972  15.681 -0.9744  0.9880  0.0630
 3055TIP3   OH230655   2.504   6.326   3.743 -0.7683 -0.4247 -0.1527
 3055TIP3    H130656   2.529   6.244   3.784 -0.2391 -1.0974 -1.7394
 3055TIP3    H230657   2.494   6.388   3.815  0.3834 -1.4786  0.9381
 3056TIP3   OH230658   1.839   5.178  16.349  0.0575 -0.0641 -0.8122
 3056TIP3    H130659   1.752   5.178  16.388 -0.1266  2.1684 -1.0604
 3056TIP3    H230660   1.828   5.227  16.268  1.1932 -1.3871 -1.8025
 3057TIP3   OH230661   4.154   6.755   2.250 -0.1390 -0.3816  0.5229
 3057TIP3    H130662   4.190   6.668   2.269  0.2606 -0.6188 -1.1238
 3057TIP3    H230663   4.229   6.805   2.219 -0.3298  0.6391  1.6490
 3058TIP3   OH230664   5.746   6.771   2.804  0.0927 -0.5105  0.1844
 3058TIP3    H130665   5.814   6.726   2.855  1.1489 -0.9237 -1.4889
 3058TIP3    H230666   5.674   6.709   2.800  0.0573 -0.5373  1.0104
 3059TIP3   OH230667   6.749   1.362  12.975 -0.5024 -0.0554  0.0630
 3059TIP3    H130668   6.730   1.409  13.057  1.3600  1.2193 -0.1591
 3059TIP3    H230669   6.718   1.273  12.990 -0.7498  0.3065  1.9407
 3060TIP3   OH230670   1.078   0.879   3.523 -0.1007  0.6063  0.4436
 3060TIP3    H130671   1.060   0.825   3.600  0.8721 -1.1897 -0.5457
 3060TIP3    H230672   0.991   0.904   3.491 -0.7552 -2.4555 -0.4786
 3061TIP3   OH230673   4.850   6.250   4.148  0.5834  0.5063 -0.3809
 3061TIP3    H130674   4.777   6.214   4.099  2.3605  0.2168 -3.0366
 3061TIP3    H230675   4.907   6.175   4.164  0.1893  0.6459  2.0217
 3062TIP3   OH230676   5.399   3.424   4.939  0.3047  0.1599  0.0447
 3062TIP3    H130677   5.410   3.335   4.905 -1.2413 -0.7381  1.7427
 3062TIP3    H230678   5.442   3.423   5.024  0.0506  0.9649  0.1965
 3063TIP3   OH230679   6.442   4.450  10.474  0.3451  0.4861  0.4869
 3063TIP3    H130680   6.428   4.458  10.380 -0.0196  0.2914  0.5227
 3063TIP3    H230681   6.357   4.471  10.513 -0.0176 -1.2106  0.6863
 3064TIP3   OH230682   6.216   2.359  14.167  0.8096 -0.0722 -0.2460
 3064TIP3    H130683   6.279   2.302  14.124 -0.1217 -0.8366 -0.6531
 3064TIP3    H230684   6.263   2.440  14.182  1.9572 -0.7079 -0.3034
 3065TIP3   OH230685   0.036   6.524   5.251  0.0224  0.2574  0.4669
 3065TIP3    H130686  -0.034   6.492   5.309 -1.4358  1.3164 -0.6254
 3065TIP3    H230687   0.111   6.468   5.271 -1.4761 -1.7450  0.8564
 3066TIP3   OH230688   4.184   3.244   2.721  0.3521 -0.7069  0.7072
 3066TIP3    H130689   4.217   3.304   2.654  1.0655 -1.7494  0.0937
 3066TIP3    H230690   4.179   3.298   2.800 -0.1388  0.4489 -0.0730
 3067TIP3   OH230691   2.218   1.495   0.888  0.0251 -0.0970  0.0356
 3067TIP3    H130692   2.134   1.475   0.929 -0.6853  0.0791 -1.2815
 3067TIP3    H230693   2.238   1.584   0.917 -0.5922  0.1196 -0.1877
 3068TIP3   OH230694   5.049   0.989  12.684  0.0281 -0.0491 -0.1260
 3068TIP3    H130695   5.101   0.927  12.735  0.6505  0.6137  0.0539
 3068TIP3    H230696   4.971   1.005  12.738  0.8595  0.9408  0.8051
 3069TIP3   OH230697   4.503   5.130  12.204  0.4183  0.7858  0.3953
 3069TIP3    H130698   4.413   5.135  12.170  0.4181 -1.2712 -0.0374
 3069TIP3    H230699   4.493   5.141  12.299 -0.3933  0.0123  0.4170
 3070TIP3   OH230700   6.022   0.109   3.947 -0.7178 -0.0984  0.0322
 3070TIP3    H130701   6.053   0.177   4.007  0.7762  0.9454 -1.7915
 3070TIP3    H230702   6.068   0.030   3.974 -0.9567  0.0795  0.9746
 3071TIP3   OH230703   3.899   5.100   3.833 -0.0339  0.0528 -0.0177
 3071TIP3    H130704   3.984   5.132   3.802  0.7156 -1.2611  0.5780
 3071TIP3    H230705   3.887   5.143   3.918 -1.0627  1.9707 -1.0725
 3072TIP3   OH230706   3.856   5.185  15.476 -0.2943 -0.0029 -0.3997
 3072TIP3    H130707   3.792   5.251  15.452  0.2428  0.4054 -0.7443
 3072TIP3    H230708   3.903   5.223  15.550  0.4906  0.3251 -1.0473
 3073TIP3   OH230709   1.006   6.092  14.664  0.1570  0.3942  0.1104
 3073TIP3    H130710   0.940   6.074  14.598  0.1158 -0.5499  0.3963
 3073TIP3    H230711   1.068   6.152  14.620  0.8720 -1.2513 -1.2688
 3074TIP3   OH230712   0.884   4.572  14.357 -0.3567 -0.5474 -0.4199
 3074TIP3    H130713   0.794   4.600  14.343 -0.1604 -0.0139 -0.6330
 3074TIP3    H230714   0.919   4.558  14.269 -0.1667 -0.5399 -0.3469
 3075TIP3   OH230715   2.931   0.657   4.102 -0.1376 -0.3303 -0.5069
 3075TIP3    H130716   3.010   0.636   4.152 -0.8780 -1.5304  0.2226
 3075TIP3    H230717   2.954   0.734   4.051  2.5882 -2.4932 -2.8180
 3076TIP3   OH230718   4.671   1.857  14.456  0.6552  0.0385  0.1355
 3076TIP3    H130719   4.717   1.815  14.529  1.1064 -0.9689 -0.6874
 3076TIP3    H230720   4.586   1.882  14.492  0.5234 -1.2432  0.7928
 3077TIP3   OH230721   5.073   3.143   2.652  0.4527 -0.3949 -0.0364
 3077TIP3    H130722   5.085   3.100   2.737 -1.8758 -1.3221 -0.0769
 3077TIP3    H230723   5.058   3.071   2.591 -0.0279  0.3400 -0.8094
 3078TIP3   OH230724   2.334   4.567  16.846  0.1905  0.4158 -0.0472
 3078TIP3    H130725   2.254   4.560  16.898 -1.3129  2.9137 -1.8345
 3078TIP3    H230726   2.317   4.515  16.767 -0.0034  1.5503 -0.7699
 3079TIP3   OH230727   1.787   1.121  13.219  0.1530  0.4420 -0.2633
 3079TIP3    H130728   1.769   1.063  13.145  1.0874  1.4978 -1.3546
 3079TIP3    H230729   1.876   1.098  13.246  0.6163  1.4707 -0.8450
 3080TIP3   OH230730   1.307   3.993   1.801  0.1911  0.2849  0.0044
 3080TIP3    H130731   1.368   4.003   1.727 -1.1286 -0.8930 -1.3051
 3080TIP3    H230732   1.261   3.911   1.784 -0.1303 -0.0609  2.2004
 3081TIP3   OH230733   6.047   1.479  11.023 -0.0134  0.1880 -0.5812
 3081TIP3    H130734   6.027   1.464  10.930 -1.0343 -0.8339 -0.2225
 3081TIP3    H230735   5.963   1.467  11.068  0.8344 -1.3965  0.6888
 3082TIP3   OH230736   6.431   6.195   3.544  0.3181  0.0653  0.3666
 3082TIP3    H130737   6.433   6.272   3.600  0.1151 -0.9566  1.8143
 3082TIP3    H230738   6.412   6.122   3.603  1.5968 -1.2598 -0.7858
 3083TIP3   OH230739   4.558   0.343   1.988 -0.1787 -0.3789  0.0221
 3083TIP3    H130740   4.485   0.375   2.040 -1.2624 -0.0115 -1.6419
 3083TIP3    H230741   4.602   0.422   1.956 -2.2312 -0.3639 -3.2286
 3084TIP3   OH230742   1.774   5.815   6.292 -0.3919  0.1616  0.0846
 3084TIP3    H130743   1.781   5.764   6.373  1.4940 -1.4440 -0.9770
 3084TIP3    H230744   1.776   5.906   6.320  2.2695 -0.3073  1.8265
 3085TIP3   OH230745   3.637   6.769   4.109 -0.4885 -0.3722  0.2009
 3085TIP3    H130746   3.674   6.726   4.186  0.6506 -0.2990 -0.2825
 3085TIP3    H230747   3.682   6.853   4.104 -0.0495 -0.6526 -0.9172
 3086TIP3   OH230748   4.125   3.054  10.872 -0.1288  0.3467 -0.6410
 3086TIP3    H130749   4.186   2.982  10.854  0.4677  0.6397  0.1570
 3086TIP3    H230750   4.048   3.034  10.818 -0.4480 -1.5167  0.4063
 3087TIP3   OH230751   0.228   2.519   6.342 -0.4341 -0.2505 -0.1696
 3087TIP3    H130752   0.269   2.605   6.355  1.2275 -1.1976  1.1853
 3087TIP3    H230753   0.159   2.515   6.409  0.5011 -0.5641  0.7889
 3088TIP3   OH230754   4.949   4.323   2.499 -0.1036 -0.0122  1.0280
 3088TIP3    H130755   4.943   4.381   2.575  1.1523 -0.5064  1.5340
 3088TIP3    H230756   4.899   4.368   2.430  0.0098  1.1857  1.6959
 3089TIP3   OH230757   2.694   5.015  13.546 -0.4577 -0.6123  0.5808
 3089TIP3    H130758   2.633   4.988  13.478 -2.2855 -0.7993  2.2320
 3089TIP3    H230759   2.756   4.942  13.554 -0.6712 -0.9059 -0.3196
 3090TIP3   OH230760   1.750   1.349  15.215 -0.1299 -0.4234  0.2097
 3090TIP3    H130761   1.730   1.432  15.173 -0.5258  0.0853  1.3558
 3090TIP3    H230762   1.816   1.309  15.159 -3.0367 -1.4185 -2.8948
 3091TIP3   OH230763   3.621   1.289   0.175  0.0075 -0.1005 -0.2040
 3091TIP3    H130764   3.561   1.221   0.144  1.2158  0.1897 -3.5203
 3091TIP3    H230765   3.587   1.370   0.138  1.1549  0.4157 -0.1552
 3092TIP3   OH230766   4.067   6.084   2.146 -0.2867  0.3271 -0.1771
 3092TIP3    H130767   4.099   6.158   2.095 -0.8075  0.5418 -0.2045
 3092TIP3    H230768   3.972   6.084   2.131 -0.1351 -1.2624 -1.3865
 3093TIP3   OH230769   1.149   3.121  14.676  0.1185 -0.0867  0.5751
 3093TIP3    H130770   1.143   3.029  14.649  0.2583 -0.6837  2.4752
 3093TIP3    H230771   1.089   3.129  14.750 -0.7828  1.6747 -0.2999
 3094TIP3   OH230772   4.639   0.086   1.948 -0.3198 -0.4775 -0.6744
 3094TIP3    H130773   4.601   0.173   1.961 -1.1054 -0.5957 -1.9632
 3094TIP3    H230774   4.730   0.094   1.978 -0.5936  0.5650 -0.0719
 3095TIP3   OH230775   0.537   3.108  10.600 -0.1332 -0.3879 -0.2041
 3095TIP3    H130776   0.601   3.174  10.626 -0.1703 -0.7577  0.8814
 3095TIP3    H230777   0.581   3.057  10.532  0.9168 -0.9012  0.8099
 3096TIP3   OH230778   5.735   0.497  15.307  0.5199  0.0842 -0.4519
 3096TIP3    H130779   5.802   0.552  15.347  0.8108  0.1168 -0.9662
 3096TIP3    H230780   5.760   0.407  15.329 -0.0890  0.1554  0.5938
 3097TIP3   OH230781   3.168   1.912  12.005 -0.4369 -0.2368 -0.1054
 3097TIP3    H130782   3.217   1.874  11.932  2.6614  0.9048  1.2279
 3097TIP3    H230783   3.124   1.988  11.967 -0.8232 -0.9836 -1.2289
 3098TIP3   OH230784   3.756   5.804   0.500 -0.0188 -0.0471 -0.5254
 3098TIP3    H130785   3.845   5.819   0.533 -0.2032  0.2997 -0.1607
 3098TIP3    H230786   3.709   5.769   0.576 -0.0992 -0.5866 -0.8248
 3099TIP3   OH230787   4.544   3.413   2.379 -0.3829 -0.0214 -0.2554
 3099TIP3    H130788   4.526   3.385   2.469 -1.7738 -0.3076 -0.5973
 3099TIP3    H230789   4.557   3.332   2.331  0.7765  0.1465 -0.2479
 3100TIP3   OH230790   1.253   0.007  13.350 -0.6579  0.5387  0.0629
 3100TIP3    H130791   1.205   0.029  13.269 -1.0031 -0.2900  0.0395
 3100TIP3    H230792   1.303  -0.071  13.328 -2.1557 -0.7990  1.1640
 3101TIP3   OH230793   4.851   5.876   4.945  0.1921 -0.4619  0.4612
 3101TIP3    H130794   4.759   5.854   4.928  0.6279 -0.9868 -1.5832
 3101TIP3    H230795   4.864   5.960   4.901  0.3262  0.4133  2.1079
 3102TIP3   OH230796   2.372   6.330   0.614 -0.2127 -0.0217  0.2133
 3102TIP3    H130797   2.454   6.336   0.565  0.2390 -3.2839  0.3308
 3102TIP3    H230798   2.353   6.236   0.616 -2.6971  0.4300  2.2864
 3103TIP3   OH230799   2.152   4.243   1.626 -0.0930  0.4857  0.2845
 3103TIP3    H130800   2.099   4.184   1.572  0.2101  0.8240 -0.3835
 3103TIP3    H230801   2.108   4.242   1.711 -0.6263  0.0214  0.0129
 3104TIP3   OH230802   3.508   3.530   3.936 -0.2019 -0.0363  0.2864
 3104TIP3    H130803   3.575   3.555   3.872 -1.6031 -0.9669 -1.6453
 3104TIP3    H230804   3.426   3.536   3.887 -1.5323  0.7057  2.4667
 3105TIP3   OH230805   0.741   3.937   3.062 -0.9754 -0.3856 -0.3493
 3105TIP3    H130806   0.689   4.016   3.075 -0.7788 -0.2122 -0.6249
 3105TIP3    H230807   0.678   3.871   3.034 -1.1555 -0.3557 -0.0233
 3106TIP3   OH230808   4.867   0.890   6.034  0.0156  0.2022 -0.0288
 3106TIP3    H130809   4.922   0.920   6.106  0.0680  0.5537 -0.2146
 3106TIP3    H230810   4.777   0.910   6.062  0.1678  2.8333 -1.1901
 3107TIP3   OH230811   2.243   1.694  14.307  0.7920  0.3770  0.0327
 3107TIP3    H130812   2.331   1.658  14.310  1.2352  1.0492 -2.4122
 3107TIP3    H230813   2.195   1.636  14.247 -0.7397 -0.4839  1.9717
 3108TIP3   OH230814   5.734   6.092   3.424  0.0853 -0.1408  0.4103
 3108TIP3    H130815   5.730   6.001   3.455  0.8023  0.3613  2.0790
 3108TIP3    H230816   5.759   6.143   3.501 -0.5346  1.5227 -0.4323
 3109TIP3   OH230817   0.169   4.213   0.451 -0.4912  0.3402  0.2187
 3109TIP3    H130818   0.214   4.275   0.393 -0.8203  0.1703 -0.2218
 3109TIP3    H230819   0.117   4.268   0.510 -0.7950  0.4876 -0.1828
 3110TIP3   OH230820   6.640   2.312   0.243  0.2662 -0.5479  0.4506
 3110TIP3    H130821   6.615   2.228   0.282  1.6042 -1.4386 -0.5339
 3110TIP3    H230822   6.724   2.334   0.284 -0.6036  0.9242  1.5479
 3111TIP3   OH230823   2.584   6.459  11.868  0.1436 -0.4986 -0.1625
 3111TIP3    H130824   2.626   6.403  11.934 -2.5789 -1.8862  0.5731
 3111TIP3    H230825   2.536   6.524  11.919 -0.3921 -0.3580 -0.8270
 3112TIP3   OH230826   0.756   1.026  12.138 -0.6013 -0.1325  0.1348
 3112TIP3    H130827   0.767   1.116  12.108 -0.4424 -0.0069  0.5567
 3112TIP3    H230828   0.791   0.972  12.068 -0.6108  0.1372 -0.0791
 3113TIP3   OH230829   1.460   1.162  15.750  0.1454 -0.2640  0.4788
 3113TIP3    H130830   1.471   1.138  15.842  1.0095 -0.0236  0.4454
 3113TIP3    H230831   1.388   1.225  15.751  2.2457  2.2749  1.4464
 3114TIP3   OH230832   3.151   0.321  16.847  0.0698  0.5103 -0.3733
 3114TIP3    H130833   3.090   0.247  16.841 -0.9797  1.1745  1.2037
 3114TIP3    H230834   3.224   0.287  16.899  0.8225 -0.1353 -1.8164
 3115TIP3   OH230835   1.715   3.354  13.768  0.3852 -0.6843 -0.0377
 3115TIP3    H130836   1.801   3.396  13.774 -0.6305  1.4469  0.8710
 3115TIP3    H230837   1.682   3.377  13.681  0.1793 -0.3040  0.1382
 3116TIP3   OH230838   5.430   3.495  15.855 -0.1284 -1.0031  0.0158
 3116TIP3    H130839   5.352   3.545  15.878 -0.1439 -1.1735  0.3358
 3116TIP3    H230840   5.420   3.475  15.762  0.1955  0.1533 -0.2796
 3117TIP3   OH230841   3.911   2.807   4.118  0.3657  0.1552 -0.5648
 3117TIP3    H130842   3.910   2.900   4.093 -2.2583 -0.0878 -1.6407
 3117TIP3    H230843   3.955   2.764   4.045 -0.8274  0.2837 -1.3863
 3118TIP3   OH230844   5.707   2.686   5.950  0.1884 -0.0568  0.2205
 3118TIP3    H130845   5.636   2.717   6.005  0.5100  0.0859  0.5625
 3118TIP3    H230846   5.719   2.755   5.884  0.1196 -0.0049  0.2628
 3119TIP3   OH230847   2.533   3.465  15.308 -0.0649 -0.3706  0.4154
 3119TIP3    H130848   2.620   3.476  15.269 -0.5443  0.4835 -0.4870
 3119TIP3    H230849   2.546   3.481  15.401  0.5637  0.9967  0.1304
 3120TIP3   OH230850   5.955   6.614  14.044  0.2116 -0.6665  0.5715
 3120TIP3    H130851   6.029   6.674  14.048 -0.3471  0.0664  0.2002
 3120TIP3    H230852   5.956   6.581  13.954 -0.5098  0.1311  0.2623
 3121TIP3   OH230853   3.795   4.860   4.360 -0.4748  0.0819 -0.2739
 3121TIP3    H130854   3.855   4.789   4.338 -0.2965  0.4165 -0.8724
 3121TIP3    H230855   3.806   4.872   4.454 -1.3383 -1.4528  0.0742
 3122TIP3   OH230856   2.162   1.560  10.126  0.1144 -0.1181 -0.3081
 3122TIP3    H130857   2.219   1.483  10.131 -0.8499 -0.9581 -1.5829
 3122TIP3    H230858   2.220   1.634  10.140  0.9737 -1.0766  1.5706
 3123TIP3   OH230859   3.552   4.610  13.658  0.5120 -0.0587  0.4736
 3123TIP3    H130860   3.642   4.587  13.632  0.5984  0.6914  0.0786
 3123TIP3    H230861   3.508   4.525  13.668  1.4030 -0.4517  1.2083
 3124TIP3   OH230862   3.428   2.005   3.314 -0.2426  0.2480 -0.4006
 3124TIP3    H130863   3.350   2.027   3.263 -1.3728 -0.6617  0.8570
 3124TIP3    H230864   3.500   2.048   3.268 -1.5765  1.7372 -1.1991
 3125TIP3   OH230865   3.712   4.269   0.273  0.0023 -0.0186  0.0407
 3125TIP3    H130866   3.668   4.285   0.356  0.5597 -0.6621  0.4723
 3125TIP3    H230867   3.720   4.355   0.233 -1.0131  0.1872  0.2748
 3126TIP3   OH230868   4.118   2.035  14.565  0.3142  0.2191 -0.1392
 3126TIP3    H130869   4.184   1.990  14.512 -1.4048 -1.8871 -0.6455
 3126TIP3    H230870   4.163   2.113  14.599  2.2135  0.3763 -2.6925
 3127TIP3   OH230871   3.939   6.529   2.023 -0.2121 -0.3399  0.0435
 3127TIP3    H130872   3.913   6.519   1.931 -1.9495 -0.8442  0.5640
 3127TIP3    H230873   3.927   6.623   2.040 -2.0399 -0.6049  0.3486
 3128TIP3   OH230874   4.995   6.654  16.156  0.1406 -0.2860 -0.1812
 3128TIP3    H130875   5.088   6.668  16.169  0.1388 -0.9478  0.6357
 3128TIP3    H230876   4.985   6.559  16.148 -0.4446 -0.2128 -0.4292
 3129TIP3   OH230877   1.919   2.865   2.011  0.5312  0.1370  0.3706
 3129TIP3    H130878   1.893   2.774   1.996  1.1565  0.0256 -0.0490
 3129TIP3    H230879   1.885   2.885   2.099 -3.7363  1.0011 -1.2309
 3130TIP3   OH230880   2.961   6.057   3.292 -0.0497 -0.2099  0.3651
 3130TIP3    H130881   2.950   6.053   3.197  1.4214 -0.7090  0.1880
 3130TIP3    H230882   2.903   6.127   3.320  0.5928  0.9652 -1.1015
 3131TIP3   OH230883   5.099   2.196   4.885  0.6047  0.1526  0.4226
 3131TIP3    H130884   5.064   2.189   4.796  2.5918 -1.0765 -0.3400
 3131TIP3    H230885   5.029   2.163   4.941 -0.3538  0.0786 -0.7808
 3132TIP3   OH230886   5.341   4.983  14.244  0.3022 -0.0216  0.3599
 3132TIP3    H130887   5.276   4.919  14.272 -1.1398  1.8419  1.4838
 3132TIP3    H230888   5.292   5.047  14.193  1.8616 -0.2077 -1.5081
 3133TIP3   OH230889   4.389   4.214   1.010 -0.6203 -0.1780  0.3434
 3133TIP3    H130890   4.403   4.284   0.946  1.7947 -0.2850  0.6364
 3133TIP3    H230891   4.328   4.154   0.968  1.7512 -0.8765 -2.4697
 3134TIP3   OH230892   0.141   0.314  12.850 -0.6259 -0.0852 -0.1834
 3134TIP3    H130893   0.210   0.345  12.909 -2.1278  1.2181  0.9402
 3134TIP3    H230894   0.158   0.220  12.841  0.5434 -0.0279  1.0888
 3135TIP3   OH230895   5.596   0.048   1.624 -0.1335 -0.3951 -0.1738
 3135TIP3    H130896   5.641   0.043   1.708 -0.9861 -0.7450  0.2696
 3135TIP3    H230897   5.560   0.136   1.620  1.9183  0.4643 -1.2477
 3136TIP3   OH230898   3.292   3.123   1.893  0.2094  0.8387  0.6058
 3136TIP3    H130899   3.288   3.029   1.878  0.6341  0.9412 -0.1904
 3136TIP3    H230900   3.200   3.149   1.907  0.1308  0.2610  1.1837
 3137TIP3   OH230901   1.495   4.438  16.478  0.2141  0.0002 -0.2451
 3137TIP3    H130902   1.584   4.463  16.451  0.5633 -1.7955 -0.8813
 3137TIP3    H230903   1.439   4.503  16.437  1.1193  0.1174 -1.3444
 3138TIP3   OH230904   0.467   2.177   2.208 -0.2595 -0.0571  0.8663
 3138TIP3    H130905   0.510   2.263   2.209 -0.8346  0.2555  2.6223
 3138TIP3    H230906   0.402   2.184   2.138 -0.4306  1.0226  1.1098
 3139TIP3   OH230907   1.034   6.737  12.042  0.1609 -0.1620  0.2594
 3139TIP3    H130908   1.049   6.756  12.134  2.6688  0.2480 -0.1697
 3139TIP3    H230909   1.112   6.689  12.014 -0.5682 -0.3316 -1.6382
 3140TIP3   OH230910   3.673   1.498  15.384  0.0350  0.0016 -0.0513
 3140TIP3    H130911   3.693   1.422  15.329  2.1740 -1.4811  2.5526
 3140TIP3    H230912   3.592   1.473  15.430  0.1537 -0.2340  0.0294
 3141TIP3   OH230913   3.972   4.568   2.974 -0.2892 -0.5285  0.3586
 3141TIP3    H130914   4.003   4.633   2.911 -0.1959 -1.1893 -0.2946
 3141TIP3    H230915   3.990   4.484   2.931 -0.4026 -0.9808  1.1892
 3142TIP3   OH230916   2.235   6.135   5.606 -0.1125  0.1161  0.1460
 3142TIP3    H130917   2.222   6.109   5.515 -0.9790  1.1258 -0.0346
 3142TIP3    H230918   2.217   6.055   5.656 -1.3335 -0.0270 -0.4751
 3143TIP3   OH230919   6.383   1.941   2.226 -0.6439  0.8693 -0.0216
 3143TIP3    H130920   6.306   1.996   2.213 -0.4226  1.1771 -0.0662
 3143TIP3    H230921   6.388   1.888   2.146 -1.4362  0.0488  0.4592
 3144TIP3   OH230922   5.527   5.273   4.894  0.3277 -0.2575  0.1731
 3144TIP3    H130923   5.575   5.351   4.868  1.4317 -0.4568  1.4734
 3144TIP3    H230924   5.529   5.274   4.990 -2.4037 -0.2252  0.3178
 3145TIP3   OH230925   1.455   1.127  14.869  0.7662 -0.0237 -0.4513
 3145TIP3    H130926   1.480   1.056  14.809 -1.6959 -1.3954  0.0213
 3145TIP3    H230927   1.465   1.088  14.957 -2.8961 -0.7799 -0.2181
 3146TIP3   OH230928   4.593   4.736  14.343 -0.3766 -0.1237 -0.1246
 3146TIP3    H130929   4.657   4.750  14.274 -0.3039 -1.9187 -0.4802
 3146TIP3    H230930   4.523   4.799  14.325 -0.0422 -0.1050 -1.4526
 3147TIP3   OH230931   6.662   4.289   2.084 -0.1997  0.8605 -0.4023
 3147TIP3    H130932   6.630   4.364   2.135 -0.9192  0.5929 -0.4536
 3147TIP3    H230933   6.617   4.297   2.000 -0.4156  0.2659 -0.3424
 3148TIP3   OH230934   2.833   1.513   5.510  0.2370  0.4961 -0.0298
 3148TIP3    H130935   2.898   1.522   5.441 -1.1346  0.2192 -1.4137
 3148TIP3    H230936   2.845   1.590   5.565  1.9747  0.2419  0.0013
 3149TIP3   OH230937   5.934   0.706   4.217  0.1019  0.3038 -0.3618
 3149TIP3    H130938   5.933   0.775   4.151  2.4385  0.3868 -0.3842
 3149TIP3    H230939   5.980   0.633   4.176 -0.2105 -0.3909  0.4824
 3150TIP3   OH230940   0.427   4.621   1.833 -0.5038  0.0658  0.3156
 3150TIP3    H130941   0.343   4.667   1.840  1.0633  3.1956  0.4509
 3150TIP3    H230942   0.487   4.672   1.888  1.8822 -0.9820 -1.1298
 3151TIP3   OH230943   0.816   5.573  16.096 -0.4246 -0.4903  0.3911
 3151TIP3    H130944   0.764   5.602  16.171 -0.8439 -0.3145  0.0416
 3151TIP3    H230945   0.759   5.511  16.051 -0.7160  0.4029 -0.5180
 3152TIP3   OH230946   4.722   5.663  16.413 -0.3390  0.0236 -0.3280
 3152TIP3    H130947   4.767   5.581  16.428  0.3193  0.6367  1.3137
 3152TIP3    H230948   4.661   5.645  16.341  0.6718 -1.5256 -0.8313
 3153TIP3   OH230949   1.704   2.639  11.847  0.5851 -0.2167 -0.5535
 3153TIP3    H130950   1.752   2.693  11.909 -1.8496  1.3572  0.1331
 3153TIP3    H230951   1.751   2.649  11.764  0.7897  2.2223 -0.2007
 3154TIP3   OH230952   2.235   3.720  14.590  0.5918 -0.2872  0.2778
 3154TIP3    H130953   2.180   3.764  14.655  2.2709  0.8959  0.9544
 3154TIP3    H230954   2.193   3.635  14.578 -0.1850 -0.2609  2.3761
 3155TIP3   OH230955   1.264   5.933   3.067  0.1357  0.1775  0.2297
 3155TIP3    H130956   1.317   5.853   3.061  1.1727  0.8442  0.2168
 3155TIP3    H230957   1.216   5.925   3.149  1.4704  0.2687  1.0383
 3156TIP3   OH230958   4.178   1.166  12.127  0.4580 -0.2956 -0.1503
 3156TIP3    H130959   4.103   1.132  12.078  0.7880  1.2833 -1.8594
 3156TIP3    H230960   4.158   1.258  12.142  0.8452 -0.4793  1.8741
 3157TIP3   OH230961   1.139   3.304  14.430 -0.0550 -0.4048  0.1153
 3157TIP3    H130962   1.170   3.317  14.520 -1.2514 -0.2712  0.5290
 3157TIP3    H230963   1.044   3.310  14.437 -0.1182  1.1098 -1.3951
 3158TIP3   OH230964   5.876   6.070  13.481  0.4407  0.0132  0.4366
 3158TIP3    H130965   5.920   6.009  13.421  0.1178 -0.1027  0.3083
 3158TIP3    H230966   5.820   6.123  13.424 -1.3335 -1.3602  0.7945
 3159TIP3   OH230967   3.555   3.204   5.960 -0.7515 -0.5755 -0.3159
 3159TIP3    H130968   3.509   3.139   6.014 -0.2184 -0.7675 -0.0852
 3159TIP3    H230969   3.636   3.221   6.007 -1.8433  2.0011  0.8454
 3160TIP3   OH230970   1.037   1.752   5.218 -0.0546  0.0499 -0.4098
 3160TIP3    H130971   1.046   1.724   5.127 -0.6691 -0.4707 -0.3201
 3160TIP3    H230972   1.118   1.723   5.260  1.8315  3.2789 -1.4865
 3161TIP3   OH230973   2.905   5.452   1.811  0.0406 -0.1240  0.2740
 3161TIP3    H130974   2.927   5.456   1.718  0.5468 -2.3429  0.2374
 3161TIP3    H230975   2.965   5.513   1.853  0.2264  0.4485 -0.7942
 3162TIP3   OH230976   3.853   2.922  16.779 -0.0899  0.0528 -0.2958
 3162TIP3    H130977   3.796   2.864  16.728 -0.0719 -2.4233  2.2265
 3162TIP3    H230978   3.863   2.877  16.863 -0.1849  3.8891  1.9649
 3163TIP3   OH230979   5.222   5.491   0.617  0.0391 -0.1515 -0.0501
 3163TIP3    H130980   5.247   5.566   0.672 -0.7755 -1.1883  1.8493
 3163TIP3    H230981   5.304   5.445   0.600  0.3934  0.5624 -0.2947
 3164TIP3   OH230982   2.868   0.737  11.186  0.4978  0.6106 -0.0219
 3164TIP3    H130983   2.784   0.692  11.181  0.9060 -0.3353  1.1055
 3164TIP3    H230984   2.922   0.695  11.119  0.7873 -0.4435  0.8374
 3165TIP3   OH230985   6.210   5.529  17.039  0.5570  0.4415  0.4961
 3165TIP3    H130986   6.266   5.607  17.034 -0.2723  1.1347  1.6549
 3165TIP3    H230987   6.123   5.560  17.017  0.5691 -0.6227 -1.2117
 3166TIP3   OH230988   2.546   6.393   0.106  0.9109 -0.1790  1.0723
 3166TIP3    H130989   2.601   6.320   0.080 -0.1701 -0.0672 -1.8617
 3166TIP3    H230990   2.578   6.467   0.055 -1.5651 -0.0178 -0.4326
 3167TIP3   OH230991   1.603   1.346  14.758 -0.0289  0.2960  0.0343
 3167TIP3    H130992   1.571   1.346  14.668  0.3533  2.7582 -0.1638
 3167TIP3    H230993   1.536   1.300  14.808 -1.2395  0.6617 -1.2040
 3168TIP3   OH230994   0.759   0.426   2.347 -0.1969 -0.3596 -0.5472
 3168TIP3    H130995   0.775   0.520   2.334  0.6434 -0.5539 -1.0191
 3168TIP3    H230996   0.678   0.408   2.299 -0.0458  0.0170 -0.9500
 3169TIP3   OH230997   3.228   5.286  10.498 -0.1046  0.4063 -0.0585
 3169TIP3    H130998   3.313   5.250  10.523 -0.2582 -0.5824 -0.8790
 3169TIP3    H230999   3.250   5.367  10.452  0.3786  0.3383  0.0418
 3170TIP3   OH231000   3.497   4.382   2.691  0.7774 -0.2462 -0.4684
 3170TIP3    H131001   3.478   4.327   2.767 -0.7670 -0.3219 -0.8613
 3170TIP3    H231002   3.419   4.436   2.681  2.2163  1.9987 -0.1514
 3171TIP3   OH231003   5.542   2.273  16.121  0.2210 -0.0305  0.5357
 3171TIP3    H131004   5.453   2.258  16.151 -0.4284  0.0800 -1.2237
 3171TIP3    H231005   5.540   2.360  16.082  0.5787 -0.7967 -1.2855
 3172TIP3   OH231006   6.760   5.183   3.316  0.1385  1.2524 -0.3722
 3172TIP3    H131007   6.756   5.203   3.223  1.4793 -0.4333 -0.8476
 3172TIP3    H231008   6.669   5.191   3.346 -0.5443  0.5804 -2.1122
 3173TIP3   OH231009   1.339   3.314   5.298 -0.3994  0.1699  0.4338
 3173TIP3    H131010   1.252   3.353   5.298 -0.5249 -0.0943  1.1846
 3173TIP3    H231011   1.366   3.316   5.390 -0.3627 -1.4052  0.4817
 3174TIP3   OH231012   2.049   5.963   3.893  0.1332 -0.1091 -0.3648
 3174TIP3    H131013   2.142   5.982   3.882  0.2710 -1.4990 -1.9767
 3174TIP3    H231014   2.007   6.001   3.816 -0.7358  0.8974  0.5658
 3175TIP3   OH231015   1.031   5.011  12.117  0.2857 -0.6070 -0.0802
 3175TIP3    H131016   1.029   5.104  12.136  0.2073 -0.6097 -0.0730
 3175TIP3    H231017   1.093   4.975  12.180  0.0899 -0.6040  0.1155
 3176TIP3   OH231018   0.923   1.325  15.197 -0.6049 -0.2206  0.4565
 3176TIP3    H131019   0.910   1.417  15.219  0.6420  0.3491 -1.0428
 3176TIP3    H231020   0.836   1.293  15.172 -1.4858 -0.0986  3.0664
 3177TIP3   OH231021   2.715   5.842  16.272  0.6946 -0.2422 -0.0241
 3177TIP3    H131022   2.751   5.792  16.345  0.2320  1.7585  1.6565
 3177TIP3    H231023   2.630   5.873  16.303  1.5542  2.7686 -0.3777
 3178TIP3   OH231024   6.341   0.656  16.726  0.5469  0.0605  0.2827
 3178TIP3    H131025   6.262   0.691  16.683  0.9864  0.4509 -0.2310
 3178TIP3    H231026   6.381   0.733  16.766  1.6332  0.2158 -1.0288
 3179TIP3   OH231027   3.041   1.344  15.339 -0.1006  0.5012  0.3800
 3179TIP3    H131028   2.963   1.399  15.350 -0.6581  0.0238 -0.9555
 3179TIP3    H231029   3.112   1.397  15.375 -1.0300  0.9579  1.6003
 3180TIP3   OH231030   3.327   5.281  14.172  0.5520 -0.2015 -0.1761
 3180TIP3    H131031   3.415   5.312  14.195  0.1307  0.1560  1.0590
 3180TIP3    H231032   3.292   5.246  14.255 -1.1352  1.3059 -0.1893
 3181TIP3   OH231033   3.137   5.495  17.067  0.3862  0.8960  0.2052
 3181TIP3    H131034   3.157   5.552  16.993  0.5048  1.6112  0.7768
 3181TIP3    H231035   3.102   5.415  17.027  1.3283  0.8976 -0.6612
 3182TIP3   OH231036   1.694   2.384  13.968  0.3236  0.4390 -0.1721
 3182TIP3    H131037   1.631   2.315  13.951 -2.1999  2.5310  0.0054
 3182TIP3    H231038   1.765   2.342  14.017 -1.4214 -1.8434  0.5295
 3183TIP3   OH231039   3.674   2.407  13.209  0.0829 -0.3196  0.1246
 3183TIP3    H131040   3.753   2.425  13.158  0.3271  1.8415  1.1582
 3183TIP3    H231041   3.628   2.491  13.214 -1.9353 -1.3692  0.1582
 3184TIP3   OH231042   5.407   0.322   5.222  0.1452  0.7351 -0.8467
 3184TIP3    H131043   5.375   0.411   5.205 -0.7727  0.9274  1.5069
 3184TIP3    H231044   5.457   0.330   5.303  1.3679 -0.6474 -1.4209
 3185TIP3   OH231045   2.508   1.325  15.014 -0.1759 -0.2694  0.3758
 3185TIP3    H131046   2.437   1.386  14.993  0.5544  0.7388  0.7460
 3185TIP3    H231047   2.561   1.322  14.934 -0.2479 -0.4717  0.3357
 3186TIP3   OH231048   1.701   2.947   1.855 -0.5741 -0.7328  0.4356
 3186TIP3    H131049   1.718   3.038   1.879  2.3478 -0.0787 -3.2363
 3186TIP3    H231050   1.743   2.896   1.925  1.2721  0.8368  0.5645
 3187TIP3   OH231051   5.471   4.552   0.684 -0.2618 -0.0954  0.0810
 3187TIP3    H131052   5.460   4.646   0.672  1.1406  0.0062 -0.5943
 3187TIP3    H231053   5.478   4.517   0.596 -2.0663 -1.0417  0.2712
 3188TIP3   OH231054   1.125   4.302  14.968  0.3945  0.4037  0.1525
 3188TIP3    H131055   1.062   4.369  14.993 -1.5061 -1.4324  0.5653
 3188TIP3    H231056   1.078   4.248  14.904  1.3541 -1.2911  0.8235
 3189TIP3   OH231057   2.618   2.772  13.428  0.4474  0.3989 -0.0136
 3189TIP3    H131058   2.573   2.792  13.510  2.4002  0.9763  0.9729
 3189TIP3    H231059   2.586   2.840  13.367 -0.2644  0.5777  0.5420
 3190TIP3   OH231060   1.705   3.292   5.545  0.6215 -0.4684  0.2274
 3190TIP3    H131061   1.673   3.317   5.632  0.6362 -1.8998  0.6671
 3190TIP3    H231062   1.796   3.321   5.544  1.2122 -2.1061  1.4537
 3191TIP3   OH231063   4.033   4.671   1.574  0.0916 -0.6973  0.2078
 3191TIP3    H131064   3.971   4.598   1.576  0.4754 -1.0817  3.0453
 3191TIP3    H231065   3.987   4.742   1.619  0.9302 -0.3285  0.5009
 3192TIP3   OH231066   6.239   5.240   5.558  0.5676  0.1953 -0.2193
 3192TIP3    H131067   6.237   5.212   5.466 -0.6129 -1.6958  0.3164
 3192TIP3    H231068   6.192   5.171   5.605  2.7864  0.1300  2.0986
 3193TIP3   OH231069   4.222   4.678   1.842  0.5384 -0.3363  0.1727
 3193TIP3    H131070   4.308   4.718   1.838 -0.4621  2.1299  1.4594
 3193TIP3    H231071   4.166   4.743   1.884 -2.1810 -1.4811 -1.3589
 3194TIP3   OH231072   0.131   1.527   3.203 -0.5461 -0.0166 -0.6746
 3194TIP3    H131073   0.197   1.483   3.256 -0.4137  0.3198 -0.5607
 3194TIP3    H231074   0.121   1.613   3.243 -2.0217 -0.5138  0.1326
 3195TIP3   OH231075   1.569   1.922   0.093  0.1255 -0.0431 -0.1795
 3195TIP3    H131076   1.640   1.943   0.154  0.2315  0.1085 -0.3548
 3195TIP3    H231077   1.580   1.829   0.074  1.1913  0.2866 -1.3703
 3196TIP3   OH231078   4.759   2.737   3.703  0.0611  0.3224  0.0672
 3196TIP3    H131079   4.776   2.673   3.773 -0.5960  0.1514  0.0721
 3196TIP3    H231080   4.667   2.725   3.681 -0.0953  1.3378  0.1319
 3197TIP3   OH231081   1.928   0.827   1.876  0.1702 -0.1631  0.2389
 3197TIP3    H131082   2.002   0.791   1.827 -0.6581 -2.2286  0.3999
 3197TIP3    H231083   1.885   0.886   1.814  0.7199 -0.6041 -0.5867
 3198TIP3   OH231084   3.344   4.405   0.390 -0.4971  0.3504  0.0709
 3198TIP3    H131085   3.366   4.387   0.298 -0.5221  0.8193 -0.0321
 3198TIP3    H231086   3.265   4.459   0.385 -1.9940 -1.7122  0.4544
 3199TIP3   OH231087   4.044   2.763  11.721 -0.1328  0.1176  0.0746
 3199TIP3    H131088   4.110   2.694  11.725  0.0880  0.2466 -1.0053
 3199TIP3    H231089   3.996   2.745  11.640  0.2782  1.5330 -0.5130
 3200TIP3   OH231090   2.990   4.169   3.337  0.4410  0.1834 -0.0218
 3200TIP3    H131091   3.052   4.138   3.271  1.0507 -1.9150  1.4008
 3200TIP3    H231092   3.043   4.179   3.416 -0.8219 -0.6034  0.9593
 3201TIP3   OH231093   5.018   1.382   1.959 -0.4029  0.1716 -0.0944
 3201TIP3    H131094   4.997   1.363   1.868  1.6694  1.2849 -0.8719
 3201TIP3    H231095   4.949   1.441   1.989 -2.0571 -1.5447 -0.3428
 3202TIP3   OH231096   1.009   3.670  13.973 -0.4332 -0.0307 -0.0317
 3202TIP3    H131097   0.960   3.752  13.984  0.1980  0.5355 -1.2464
 3202TIP3    H231098   0.973   3.630  13.894 -2.0208 -1.9149  1.5444
 3203TIP3   OH231099   4.504   1.877  13.683  0.4478 -0.2550  0.4292
 3203TIP3    H131100   4.576   1.855  13.624 -0.2342 -1.3193 -0.0285
 3203TIP3    H231101   4.432   1.821  13.655  0.5780 -2.0378  3.3337
 3204TIP3   OH231102   0.410   5.044   4.566  0.4313  0.0031 -0.1858
 3204TIP3    H131103   0.354   4.967   4.572 -0.3484  0.6121  0.5911
 3204TIP3    H231104   0.384   5.086   4.484 -0.8948  0.7421  0.5785
 3205TIP3   OH231105   6.441   1.277  13.447 -0.1379 -0.2013  0.1703
 3205TIP3    H131106   6.376   1.230  13.395  0.6770 -2.0220  0.7128
 3205TIP3    H231107   6.516   1.217  13.451  1.4585  1.6594 -0.1197
 3206TIP3   OH231108   2.422   4.969   5.805 -0.2410  0.0607 -0.1384
 3206TIP3    H131109   2.347   4.975   5.745 -0.7701 -0.9533  0.3944
 3206TIP3    H231110   2.486   4.917   5.757 -0.7669 -0.9748  0.2593
 3207TIP3   OH231111   4.380   2.581  12.935 -0.0096 -0.6066 -0.2665
 3207TIP3    H131112   4.475   2.595  12.937  0.0496 -0.9935  0.9945
 3207TIP3    H231113   4.344   2.658  12.979 -0.4583  0.4643 -2.3717
 3208TIP3   OH231114   3.938   1.600   0.577 -0.6285  0.3384 -0.2728
 3208TIP3    H131115   4.007   1.553   0.623 -0.1269 -0.1794 -1.5054
 3208TIP3    H231116   3.857   1.563   0.610 -0.3713  1.2870  1.5509
 3209TIP3   OH231117   1.088   0.107   1.984 -0.0337  0.1705 -0.2785
 3209TIP3    H131118   1.139   0.051   2.043  1.1863  0.5724 -0.9162
 3209TIP3    H231119   1.068   0.184   2.036  1.9051  0.9784 -0.6312
 3210TIP3   OH231120   2.197   3.524  10.839  0.0178  0.0597  0.3375
 3210TIP3    H131121   2.254   3.457  10.800  0.3524  0.2005  0.5804
 3210TIP3    H231122   2.255   3.573  10.898 -0.3197  0.3058  0.4648
 3211TIP3   OH231123   3.948   5.686  13.672 -0.1232  0.5769  0.4312
 3211TIP3    H131124   3.994   5.609  13.640 -1.1432 -0.6400  1.7529
 3211TIP3    H231125   4.017   5.752  13.685  0.5180  0.6087 -2.5555
 3212TIP3   OH231126   4.912   6.780  14.833  0.0886 -0.1676  0.5388
 3212TIP3    H131127   4.988   6.818  14.791  1.4424 -2.5548  0.6687
 3212TIP3    H231128   4.841   6.792  14.770  1.4156 -1.0973 -1.2202
 3213TIP3   OH231129   2.559   5.533  15.807  0.5576  0.2244 -0.3737
 3213TIP3    H131130   2.539   5.568  15.894  1.1166  2.1321 -0.9810
 3213TIP3    H231131   2.609   5.453  15.824  0.6554  0.5709  1.0543
 3214TIP3   OH231132   3.687   5.927  12.734 -0.1994 -0.4841  0.3183
 3214TIP3    H131133   3.779   5.920  12.760  0.1924  0.1176 -0.8474
 3214TIP3    H231134   3.646   5.976  12.805  0.5689  0.0042  0.4468
 3215TIP3   OH231135   1.257   0.329   1.060 -0.4713 -0.2805 -0.0004
 3215TIP3    H131136   1.204   0.288   1.127  1.1694 -1.6711  0.5139
 3215TIP3    H231137   1.307   0.396   1.106 -1.2438  0.5638 -0.3563
 3216TIP3   OH231138   6.403   5.902  13.710  0.1651  0.3773  0.0329
 3216TIP3    H131139   6.335   5.907  13.643 -1.2569 -0.5056  1.3585
 3216TIP3    H231140   6.471   5.848  13.671 -1.4222 -1.6144 -0.1023
 3217TIP3   OH231141   3.488   0.447  16.921  0.6762 -1.0760  0.6581
 3217TIP3    H131142   3.538   0.429  17.000 -0.5123 -0.4616  1.5802
 3217TIP3    H231143   3.526   0.389  16.855  1.0722 -2.2818  1.8986
 3218TIP3   OH231144   2.738   3.956   5.881  0.9821 -0.7183  0.2064
 3218TIP3    H131145   2.809   3.891   5.887  1.2808 -0.3590  0.5928
 3218TIP3    H231146   2.740   4.001   5.965  1.1881  0.2170 -0.2939
 3219TIP3   OH231147   1.458   1.818   4.318 -0.2482  0.2951  0.1018
 3219TIP3    H131148   1.387   1.754   4.319 -0.9624  1.0656  0.0404
 3219TIP3    H231149   1.531   1.772   4.277 -0.8815 -0.3427 -0.3417
 3220TIP3   OH231150   6.816   0.180  16.025  0.2157  0.1367  0.1818
 3220TIP3    H131151   6.811   0.092  15.989  1.1370  0.0299  0.2842
 3220TIP3    H231152   6.900   0.214  15.994  1.3337 -0.1569  2.6711
 3221TIP3   OH231153   1.659   0.292  11.342  0.2571 -0.0228  1.0019
 3221TIP3    H131154   1.595   0.361  11.360 -1.0222 -1.0220  0.4447
 3221TIP3    H231155   1.681   0.303  11.249 -1.1316 -1.2707  0.4901
 3222TIP3   OH231156   4.016   6.796   5.838  0.3222 -0.1702  0.2113
 3222TIP3    H131157   3.930   6.818   5.874  0.2353  0.4549 -0.3724
 3222TIP3    H231158   4.078   6.835   5.899  0.1998 -0.5320  0.5765
 3223TIP3   OH231159   3.252   0.477  17.073 -0.6648 -0.2697 -0.0071
 3223TIP3    H131160   3.272   0.569  17.086  1.0149 -0.6183  0.1780
 3223TIP3    H231161   3.312   0.449  17.004 -1.3553 -1.1603 -0.2740
 3224TIP3   OH231162   4.672   0.494   1.427  0.7223  0.1942 -0.3004
 3224TIP3    H131163   4.586   0.453   1.425  0.5301  0.5305  0.5616
 3224TIP3    H231164   4.680   0.537   1.342  0.9088 -1.5457 -1.2123
 3225TIP3   OH231165   2.061   5.070  11.852  0.0819  0.3472 -0.1266
 3225TIP3    H131166   2.104   4.986  11.835 -0.1468  0.7021 -3.0645
 3225TIP3    H231167   2.133   5.132  11.860  0.2530 -0.0781  2.1019
 3226TIP3   OH231168   1.375   5.291  16.399  0.1119 -0.1251  0.1626
 3226TIP3    H131169   1.464   5.263  16.423  0.3292 -0.2638 -0.7597
 3226TIP3    H231170   1.318   5.220  16.429 -0.0052  1.0615  3.0216
 3227TIP3   OH231171   4.182   6.026  16.573 -0.4614 -0.4239  0.4418
 3227TIP3    H131172   4.208   6.081  16.647 -1.8166 -0.4443  0.9596
 3227TIP3    H231173   4.200   6.080  16.496  0.8582 -0.3602  0.7682
 3228TIP3   OH231174   6.232   3.026  12.567  0.5323  0.0739  0.0305
 3228TIP3    H131175   6.262   3.075  12.643  1.1529 -1.4421  0.8078
 3228TIP3    H231176   6.304   3.032  12.504  0.3809  0.6009 -0.0934
 3229TIP3   OH231177   0.811   1.279   3.232 -0.2049  0.0541 -0.9343
 3229TIP3    H131178   0.867   1.349   3.265 -0.0202 -0.0251 -1.0783
 3229TIP3    H231179   0.722   1.311   3.247 -0.1365 -0.2195  0.1476
 3230TIP3   OH231180   6.765   4.790   0.612  0.0741  0.5900 -0.3196
 3230TIP3    H131181   6.685   4.820   0.655  0.3910  0.9246  0.0382
 3230TIP3    H231182   6.753   4.695   0.604 -0.3965  0.6482 -0.3524
 3231TIP3   OH231183   3.977   2.831  15.793 -0.0011  0.8638  0.0893
 3231TIP3    H131184   3.986   2.909  15.739  0.2084  1.2212  0.6380
 3231TIP3    H231185   4.007   2.858  15.880 -0.4412  0.3285  0.4138
 3232TIP3   OH231186   0.244   0.397  15.151 -0.7391  0.0774  0.1933
 3232TIP3    H131187   0.240   0.464  15.082 -1.5554 -0.0353  0.1214
 3232TIP3    H231188   0.159   0.354  15.147  0.0534 -1.4973 -0.2681
 3233TIP3   OH231189   6.291   3.789   3.802  0.2128 -0.0244  0.1617
 3233TIP3    H131190   6.279   3.705   3.758 -1.6592 -0.7963  2.0024
 3233TIP3    H231191   6.320   3.766   3.890  0.7873  1.3310  0.3580
 3234TIP3   OH231192   3.446   2.872  10.678  0.3405  0.9101  0.2582
 3234TIP3    H131193   3.445   2.784  10.715 -0.3690 -0.2125 -2.2019
 3234TIP3    H231194   3.527   2.876  10.628  0.9563  2.1268  1.3171
 3235TIP3   OH231195   0.346   5.904  14.485 -0.0450 -0.2837 -0.1646
 3235TIP3    H131196   0.382   5.951  14.560  0.6131 -0.4246 -0.3884
 3235TIP3    H231197   0.375   5.813  14.497 -0.3832 -0.4137 -0.3119
 3236TIP3   OH231198   1.595   1.673  15.586 -0.1531  0.4152 -0.1961
 3236TIP3    H131199   1.533   1.724  15.535  0.5164 -0.0196 -1.4980
 3236TIP3    H231200   1.560   1.583  15.583  0.4481  0.1893 -0.8433
 3237TIP3   OH231201   6.781   6.351   4.308 -0.1886  0.3027 -0.1556
 3237TIP3    H131202   6.867   6.375   4.273 -0.4213  1.6945  0.1717
 3237TIP3    H231203   6.728   6.430   4.297 -1.3830 -0.4783 -0.1928
 3238TIP3   OH231204   0.768   5.047   3.949  0.2589  0.2756 -0.4930
 3238TIP3    H131205   0.802   5.020   4.035 -1.4875  0.8795  0.4273
 3238TIP3    H231206   0.815   4.991   3.887 -0.3533 -2.0950  1.0314
 3239TIP3   OH231207   4.076   3.470  12.034 -0.1612 -0.0421 -0.0553
 3239TIP3    H131208   4.106   3.383  12.062 -0.8387 -0.3160 -0.1722
 3239TIP3    H231209   4.037   3.455  11.948 -2.0208  0.0182  0.7315
 3240TIP3   OH231210   3.935   2.951   5.268 -0.1251  0.3203 -0.0412
 3240TIP3    H131211   3.924   2.932   5.174 -0.1087  1.2609 -0.2370
 3240TIP3    H231212   3.870   3.018   5.287  1.3645  1.7759  0.1011
 3241TIP3   OH231213   5.743   3.606  16.330 -0.1665 -0.7099  0.0804
 3241TIP3    H131214   5.652   3.634  16.324  0.1703  0.7898  1.1367
 3241TIP3    H231215   5.742   3.534  16.393 -0.6057 -0.5565  0.2517
 3242TIP3   OH231216   6.569   1.276   0.148 -0.1325  0.0675 -0.1276
 3242TIP3    H131217   6.631   1.265   0.219 -1.4639 -0.9669  0.9242
 3242TIP3    H231218   6.572   1.369   0.127  1.5757  0.0755  0.0391
 3243TIP3   OH231219   4.357   5.824  15.217  0.6484 -0.7072 -0.0417
 3243TIP3    H131220   4.329   5.857  15.132  0.3606  1.0405  0.6967
 3243TIP3    H231221   4.299   5.750  15.234 -0.0250 -0.3902 -0.8752
 3244TIP3   OH231222   3.604   6.342  13.283  0.2722 -0.0745  0.0642
 3244TIP3    H131223   3.605   6.325  13.189  1.1337 -0.4184  0.1219
 3244TIP3    H231224   3.641   6.430  13.291  0.7990 -0.2974  0.1180
 3245TIP3   OH231225   5.955   6.299  11.767 -0.3937 -0.2166  0.2539
 3245TIP3    H131226   6.051   6.299  11.761 -0.3277 -2.1099  0.6776
 3245TIP3    H231227   5.927   6.361  11.699  1.1034 -0.5140 -0.6917
 3246TIP3   OH231228   2.545   4.097  11.757 -0.1359 -0.2909 -0.1493
 3246TIP3    H131229   2.583   4.095  11.845  2.5725 -1.8087 -1.2209
 3246TIP3    H231230   2.495   4.016  11.751 -0.6904  0.0291  0.1375
 3247TIP3   OH231231   6.436   0.686   0.868  0.1956  0.6194 -0.0521
 3247TIP3    H131232   6.364   0.646   0.917  1.0108 -0.6001  0.1934
 3247TIP3    H231233   6.515   0.652   0.910  0.9171  1.1905 -0.9201
 3248TIP3   OH231234   4.307   4.993   3.274  0.5012  0.5165  0.4522
 3248TIP3    H131235   4.381   5.039   3.234  1.0508 -1.3507 -0.8296
 3248TIP3    H231236   4.338   4.903   3.285 -0.6671  0.3112  2.4823
 3249TIP3   OH231237   1.846   5.004   3.550  0.5826 -0.3269 -0.1070
 3249TIP3    H131238   1.914   4.937   3.548  0.5477 -0.3846  0.5580
 3249TIP3    H231239   1.894   5.087   3.551  0.6269 -0.3379 -0.6811
 3250TIP3   OH231240   2.927   2.952   5.010 -0.2735 -0.0559 -1.0156
 3250TIP3    H131241   2.833   2.955   5.029 -0.1672  0.3400 -0.4971
 3250TIP3    H231242   2.950   3.043   4.990  0.0502 -0.0970 -0.8462
 3251TIP3   OH231243   4.172   3.664   0.691 -0.1291 -0.5433  0.2308
 3251TIP3    H131244   4.076   3.661   0.687 -0.1905  1.1015 -0.0500
 3251TIP3    H231245   4.194   3.609   0.767 -1.2209 -1.6071 -0.1795
 3252TIP3   OH231246   2.014   0.295  13.165  0.2141 -0.0151 -0.1216
 3252TIP3    H131247   2.038   0.202  13.168 -1.6852 -0.6956 -2.8150
 3252TIP3    H231248   1.920   0.296  13.182  0.4228  1.6219  1.1973
 3253TIP3   OH231249   6.746   0.112  16.551 -0.9581 -0.6820  0.2185
 3253TIP3    H131250   6.773   0.157  16.471 -1.9572  0.4087  0.4772
 3253TIP3    H231251   6.729   0.182  16.614 -0.4435 -1.5111  1.3218
 3254TIP3   OH231252   2.399   4.781   6.116 -0.1922 -0.2760  0.2590
 3254TIP3    H131253   2.449   4.860   6.134  0.1249 -0.5936  0.7923
 3254TIP3    H231254   2.370   4.750   6.202 -0.2237 -0.7929  0.0685
 3255TIP3   OH231255   2.763   6.240  11.964  0.4227  0.3031 -0.3646
 3255TIP3    H131256   2.775   6.173  12.032  6.2846  0.6793 -0.4568
 3255TIP3    H231257   2.768   6.192  11.882  0.6314  0.4720 -0.4525
 3256TIP3   OH231258   3.488   5.876  14.860  0.0865  0.4758 -0.4145
 3256TIP3    H131259   3.449   5.940  14.800 -2.6201 -0.6874 -0.0180
 3256TIP3    H231260   3.463   5.791  14.824  1.4147 -0.3326  0.4982
 3257TIP3   OH231261   4.980   4.529  16.615  0.9072 -0.2193  0.7667
 3257TIP3    H131262   5.010   4.445  16.581  1.2825 -0.2459  1.1484
 3257TIP3    H231263   4.925   4.565  16.546  1.4430 -0.3873  0.2500
 3258TIP3   OH231264   3.440   0.791   3.389  0.2959 -0.3973 -0.4968
 3258TIP3    H131265   3.512   0.729   3.402 -0.3442 -0.9672  0.5079
 3258TIP3    H231266   3.362   0.743   3.418 -0.1909  0.9238  0.4864
 3259TIP3   OH231267   0.404   3.050   5.033  0.5971  0.2830  0.6561
 3259TIP3    H131268   0.495   3.050   5.064  0.3069  0.6908  1.5396
 3259TIP3    H231269   0.354   3.013   5.106  0.2131 -1.2548 -0.3405
 3260TIP3   OH231270   0.935   0.725  13.114  0.0817 -0.1822  0.7057
 3260TIP3    H131271   0.921   0.778  13.192  2.2408 -1.3112  1.9340
 3260TIP3    H231272   0.993   0.777  13.059 -0.7868  0.2681  0.1999
 3261TIP3   OH231273   2.156   2.053   3.361  0.2056  0.2937  0.2992
 3261TIP3    H131274   2.112   2.137   3.345 -0.6759  0.0023  1.0740
 3261TIP3    H231275   2.221   2.072   3.428  0.7223  0.5551 -0.2605
 3262TIP3   OH231276   1.349   5.575   5.285 -0.0329 -0.4202  0.5181
 3262TIP3    H131277   1.427   5.588   5.231 -0.3312 -0.8050 -0.0136
 3262TIP3    H231278   1.351   5.483   5.309 -0.6362 -0.5755 -0.0027
 3263TIP3   OH231279   5.561   5.017   4.829 -0.4139 -0.3455 -0.4792
 3263TIP3    H131280   5.544   5.109   4.851  1.0615 -0.3246  0.7158
 3263TIP3    H231281   5.631   4.991   4.888  0.3699 -1.7599 -1.9622
 3264TIP3   OH231282   5.193   5.449   2.232 -0.1678 -0.2321 -0.7707
 3264TIP3    H131283   5.198   5.539   2.262 -0.9351  0.0574 -1.4472
 3264TIP3    H231284   5.284   5.419   2.229 -0.0623 -0.3817  2.0198
 3265TIP3   OH231285   4.257   3.815  16.222  0.6209 -0.2720 -0.2846
 3265TIP3    H131286   4.217   3.730  16.202 -1.2775  0.3467  0.6687
 3265TIP3    H231287   4.317   3.796  16.294  1.0912 -0.9849 -0.8441
 3266TIP3   OH231288   1.571   6.109   1.279  0.4024  0.8931 -0.2808
 3266TIP3    H131289   1.533   6.157   1.205  1.1068 -1.2344 -2.1404
 3266TIP3    H231290   1.524   6.026   1.280 -1.0326  1.5705  3.0801
 3267TIP3   OH231291   6.684   1.928   4.954  0.0070 -0.1927 -0.1101
 3267TIP3    H131292   6.645   1.886   5.031 -0.6624 -0.1017 -0.3893
 3267TIP3    H231293   6.737   1.860   4.914 -1.5529 -0.9892 -0.8990
 3268TIP3   OH231294   4.408   3.584  16.646 -0.1353 -0.2170  0.4580
 3268TIP3    H131295   4.344   3.513  16.653 -0.6756  0.0987 -1.0204
 3268TIP3    H231296   4.479   3.557  16.704 -0.0839 -2.2364 -0.4645
 3269TIP3   OH231297   1.701   1.861  12.037  0.0225  0.3234 -0.4998
 3269TIP3    H131298   1.683   1.954  12.022 -1.4316 -0.1364 -1.9442
 3269TIP3    H231299   1.660   1.816  11.962 -1.2156 -1.6426  1.2532
 3270TIP3   OH231300   0.396   5.457   0.294  0.1506  0.0945  0.3682
 3270TIP3    H131301   0.382   5.403   0.216 -0.6664  1.3272 -0.3726
 3270TIP3    H231302   0.465   5.411   0.342  0.9747 -0.4910 -1.2801
 3271TIP3   OH231303   1.314   0.724  11.347 -0.1885  0.3900 -0.2374
 3271TIP3    H131304   1.275   0.674  11.420  0.7037  2.5474  1.8540
 3271TIP3    H231305   1.282   0.680  11.268 -2.6688 -0.9957  1.4039
 3272TIP3   OH231306   1.140   2.560  14.519 -0.2582  0.3234 -0.2427
 3272TIP3    H131307   1.147   2.655  14.511 -0.8011  0.2992 -1.1220
 3272TIP3    H231308   1.046   2.543  14.523 -0.3229 -0.3595 -2.8855
 3273TIP3   OH231309   3.729   3.276  13.103 -0.2580 -0.7303  0.0788
 3273TIP3    H131310   3.812   3.285  13.057  0.4191 -1.9213  1.0085
 3273TIP3    H231311   3.683   3.358  13.085  0.8799 -0.2712 -0.8950
 3274TIP3   OH231312   0.741   5.231  11.186 -0.3876 -0.3529  0.3605
 3274TIP3    H131313   0.722   5.169  11.116  2.2018  0.3682 -1.1342
 3274TIP3    H231314   0.796   5.298  11.144  2.4042 -0.5746  3.3164
 3275TIP3   OH231315   3.815   5.000  13.980 -0.1091 -0.2674 -0.5511
 3275TIP3    H131316   3.826   5.093  13.964  0.4304 -0.5066 -1.6964
 3275TIP3    H231317   3.869   4.982  14.057 -2.1677  0.7823  1.2548
 3276TIP3   OH231318   1.865   0.969  12.436 -1.0245  0.1458  0.0634
 3276TIP3    H131319   1.827   0.881  12.444 -0.5732  0.0065  0.7401
 3276TIP3    H231320   1.959   0.955  12.447 -0.9928  0.7700  0.6200
 3277TIP3   OH231321   3.292   3.239  17.006  0.3827 -0.3731  0.2217
 3277TIP3    H131322   3.275   3.309  16.943 -1.0385 -2.0340 -1.3961
 3277TIP3    H231323   3.212   3.233  17.058  0.3036 -1.0252  0.0457
 3278TIP3   OH231324   2.992   5.062   1.977  0.2757  0.5215 -0.1481
 3278TIP3    H131325   3.058   5.131   1.974  0.0099  0.7561 -0.9142
 3278TIP3    H231326   2.923   5.093   1.918  0.2132 -0.4596 -0.6042
 3279TIP3   OH231327   3.240   2.939  10.476 -0.1033 -0.2039  0.0249
 3279TIP3    H131328   3.265   2.889  10.553  0.8766  0.5800  0.2379
 3279TIP3    H231329   3.163   2.894  10.442  0.7724 -1.8755  0.1702
 3280TIP3   OH231330   6.599   4.500   2.228 -0.4281  0.0893  0.4654
 3280TIP3    H131331   6.688   4.496   2.264 -0.4567 -0.1427  0.5129
 3280TIP3    H231332   6.604   4.565   2.159  0.1810 -1.0837 -0.6425
 3281TIP3   OH231333   2.410   2.282   6.508  0.5120 -0.6362  0.4505
 3281TIP3    H131334   2.473   2.317   6.445  2.2026 -3.9887  0.0522
 3281TIP3    H231335   2.356   2.223   6.456  1.2951 -2.7148  1.8769
 3282TIP3   OH231336   1.559   3.170   3.338  0.2762 -0.3882 -0.1950
 3282TIP3    H131337   1.608   3.124   3.406  0.5194  2.7991  2.0077
 3282TIP3    H231338   1.624   3.224   3.293 -0.5909  1.2288  0.4042
 3283TIP3   OH231339   5.172   4.587   4.046  0.4140  0.0665 -0.0592
 3283TIP3    H131340   5.204   4.666   4.002 -1.5046  1.1241  0.3333
 3283TIP3    H231341   5.203   4.596   4.136 -1.0928  1.2149  0.3840
 3284TIP3   OH231342   2.415   6.185  16.226  0.0721 -0.0176  0.2566
 3284TIP3    H131343   2.480   6.184  16.296 -0.6395 -0.3329  0.9409
 3284TIP3    H231344   2.407   6.093  16.199  1.0997  0.2277 -0.9950
 3285TIP3   OH231345   2.306   3.862  12.699 -0.6423  0.2331 -0.1371
 3285TIP3    H131346   2.215   3.890  12.715 -1.0100 -0.8518 -0.2416
 3285TIP3    H231347   2.337   3.835  12.785 -0.7952 -0.4535 -0.2957
 3286TIP3   OH231348   4.048   3.589   4.372 -0.6259  0.3488 -0.6122
 3286TIP3    H131349   3.966   3.636   4.358 -0.9703 -0.6123 -2.0390
 3286TIP3    H231350   4.026   3.497   4.356 -0.0508 -0.4216  2.3879
 3287TIP3   OH231351   3.244   4.373  10.647 -0.1010  0.3065 -0.7090
 3287TIP3    H131352   3.209   4.295  10.604 -1.3785  0.5410 -0.1240
 3287TIP3    H231353   3.288   4.339  10.725 -0.2701  0.1313 -0.6892
 3288TIP3   OH231354   6.096   5.846   2.817 -0.5151 -0.0256  0.5832
 3288TIP3    H131355   6.041   5.848   2.739  1.5251 -0.6320 -0.9638
 3288TIP3    H231356   6.098   5.937   2.846 -0.5054  0.4211 -0.7152
 3289TIP3   OH231357   1.450   2.557   1.442 -0.5790 -0.5231 -0.3221
 3289TIP3    H131358   1.416   2.524   1.524 -1.8891 -2.3936 -1.5497
 3289TIP3    H231359   1.504   2.486   1.407  1.6434  0.9892 -0.2010
 3290TIP3   OH231360   1.747   1.888   3.770  0.0882  0.4802 -0.2349
 3290TIP3    H131361   1.673   1.877   3.829  0.4542  0.9956  0.3271
 3290TIP3    H231362   1.788   1.802   3.767 -0.1210  0.3713 -0.0014
 3291TIP3   OH231363   4.097   1.921   2.542  0.3667 -0.4517 -0.4671
 3291TIP3    H131364   4.147   1.967   2.475  0.9917  1.3942  1.1785
 3291TIP3    H231365   4.111   1.971   2.622 -0.8354 -2.2227  0.9499
 3292TIP3   OH231366   1.086   4.990  11.768  0.1867 -0.2112 -0.1690
 3292TIP3    H131367   1.070   4.985  11.862  1.2282  0.9628  0.1034
 3292TIP3    H231368   1.179   5.013  11.761  0.0180  0.1560 -1.4662
 3293TIP3   OH231369   5.772   3.403   1.051 -0.3764 -0.1609 -0.0840
 3293TIP3    H131370   5.867   3.411   1.058 -0.2526  0.0695 -1.6703
 3293TIP3    H231371   5.750   3.445   0.969 -1.5396 -2.5386 -1.1022
 3294TIP3   OH231372   2.813   4.422  10.987  0.3270  0.6912  0.4520
 3294TIP3    H131373   2.828   4.480  10.913 -0.7585 -1.2619 -1.3915
 3294TIP3    H231374   2.815   4.334  10.950 -4.8655 -0.3009  1.6987
 3295TIP3   OH231375   0.684   5.110   1.888  0.7367 -0.6026 -0.4173
 3295TIP3    H131376   0.649   5.195   1.918  1.0183  0.0075 -1.7439
 3295TIP3    H231377   0.623   5.082   1.821  0.2319 -1.8536  0.5264
 3296TIP3   OH231378   6.046   6.230   4.153  0.0296  0.0495  0.6970
 3296TIP3    H131379   6.095   6.159   4.194  0.6277 -0.8140 -1.3689
 3296TIP3    H231380   6.113   6.297   4.136 -0.4320  0.9311  2.1246
 3297TIP3   OH231381   5.273   5.975   6.519  0.5307 -0.0936  0.0412
 3297TIP3    H131382   5.205   5.934   6.466 -0.6945 -0.4773  1.8366
 3297TIP3    H231383   5.316   5.901   6.564  0.8519  0.2968  0.3891
 3298TIP3   OH231384   0.607   4.886   2.720 -0.0023  0.5384 -0.1011
 3298TIP3    H131385   0.564   4.897   2.635  0.9225 -0.3728 -0.7086
 3298TIP3    H231386   0.547   4.927   2.783 -1.0222  0.6267 -1.1054
 3299TIP3   OH231387   2.670   5.277  11.992  0.0801 -0.5820 -0.2323
 3299TIP3    H131388   2.617   5.330  11.933  1.6576  4.2710  2.2228
 3299TIP3    H231389   2.760   5.293  11.963  0.7081 -0.4177  1.7130
 3300TIP3   OH231390   1.075   0.159  12.659 -0.1992 -0.6140  0.1162
 3300TIP3    H131391   1.153   0.109  12.633  0.0628  0.8868 -2.2713
 3300TIP3    H231392   1.104   0.211  12.734  0.8231 -0.7890 -0.1383
 3301TIP3   OH231393   4.723   3.493   6.737  0.3941 -0.6778  0.1183
 3301TIP3    H131394   4.708   3.586   6.755  0.0932 -0.4891 -1.0424
 3301TIP3    H231395   4.651   3.448   6.779  0.7759 -0.4356  1.0632
 3302TIP3   OH231396   2.746   5.138  12.726 -0.4260  0.7357 -0.3114
 3302TIP3    H131397   2.757   5.233  12.734  0.7873  0.7165 -1.4343
 3302TIP3    H231398   2.834   5.105  12.711 -1.0947 -0.3289 -2.2167
 3303TIP3   OH231399   5.368   6.767  13.545 -0.4862  0.0649  0.3053
 3303TIP3    H131400   5.340   6.840  13.490 -1.5983  0.0989  0.8812
 3303TIP3    H231401   5.374   6.692  13.485 -1.0387  0.2462  0.0165
 3304TIP3   OH231402   2.111   5.090   2.445 -0.3859 -0.0406 -0.4519
 3304TIP3    H131403   2.184   5.112   2.388 -0.8863  0.7505 -0.7947
 3304TIP3    H231404   2.033   5.116   2.397 -0.8853 -0.4946  0.0818
 3305TIP3   OH231405   4.653   5.718  13.699  0.4967  0.2905 -0.3926
 3305TIP3    H131406   4.562   5.741  13.678  0.0446  0.4037  1.5014
 3305TIP3    H231407   4.672   5.765  13.780  1.4775 -1.4680  0.4691
 3306TIP3   OH231408   1.045   5.317  12.232 -0.5649 -0.7668  0.5571
 3306TIP3    H131409   1.137   5.341  12.248 -1.1436  0.9957  1.5221
 3306TIP3    H231410   1.006   5.396  12.196 -1.4491 -1.9030 -1.1057
 3307TIP3   OH231411   3.708   2.917  16.186  0.0973 -0.3569 -0.0616
 3307TIP3    H131412   3.708   2.981  16.115  2.5539 -1.1310 -0.8732
 3307TIP3    H231413   3.616   2.897  16.200 -0.6275  1.8898 -1.0999
 3308TIP3   OH231414   5.564   0.998  14.057  0.6189  0.2891  0.1020
 3308TIP3    H131415   5.642   0.978  14.108  0.8636 -1.0535 -0.7317
 3308TIP3    H231416   5.587   1.076  14.007  0.4393  1.5100  1.8522
 3309TIP3   OH231417   2.087   6.158   3.049 -0.0548 -0.5753  0.3531
 3309TIP3    H131418   2.101   6.253   3.043  0.7728 -0.7817 -1.5565
 3309TIP3    H231419   2.174   6.120   3.039 -0.4084 -1.5648  0.8792
 3310TIP3   OH231420   1.818   0.373  14.974 -0.4135  0.4174 -0.0365
 3310TIP3    H131421   1.800   0.333  15.059 -0.8884 -0.5242 -0.5657
 3310TIP3    H231422   1.769   0.320  14.911  0.6162  0.5629 -1.0070
 3311TIP3   OH231423   6.552   1.605  16.210 -0.1786  0.6811  0.1998
 3311TIP3    H131424   6.634   1.565  16.240  0.9476  1.6266 -1.4857
 3311TIP3    H231425   6.568   1.628  16.119 -2.6489  0.1140 -0.4313
 3312TIP3   OH231426   5.679   3.229  13.366  0.1922  0.6032  0.2020
 3312TIP3    H131427   5.656   3.232  13.273  0.8128 -1.0888 -0.0392
 3312TIP3    H231428   5.607   3.276  13.410 -1.6392 -1.0331 -0.8781
 3313TIP3   OH231429   0.127   1.526   5.421 -0.6451 -0.3273 -0.1063
 3313TIP3    H131430   0.048   1.556   5.464 -0.5588 -0.5579  0.2202
 3313TIP3    H231431   0.197   1.541   5.485 -0.3604  0.2343 -0.5318
 3314TIP3   OH231432   6.602   0.083  14.649  0.1107 -0.0051  0.1048
 3314TIP3    H131433   6.578   0.024  14.577  1.6114  0.1283 -0.5386
 3314TIP3    H231434   6.605   0.026  14.726 -0.4321 -0.3600 -0.1286
 3315TIP3   OH231435   6.312   0.005   1.877  0.2870  0.6831 -0.4947
 3315TIP3    H131436   6.332  -0.045   1.956 -1.1549  0.4227 -0.2662
 3315TIP3    H231437   6.380   0.072   1.873 -0.9071  2.2020  2.2866
 3316TIP3   OH231438   2.317   2.389   2.817 -0.2745 -0.5195 -0.0710
 3316TIP3    H131439   2.227   2.358   2.826 -0.4851  0.1141  0.0051
 3316TIP3    H231440   2.341   2.417   2.905  0.0844 -0.9060 -0.0410
 3317TIP3   OH231441   5.191   3.621  15.914 -0.2461  0.2912  0.3513
 3317TIP3    H131442   5.143   3.704  15.921 -0.6959 -0.0725  1.7994
 3317TIP3    H231443   5.131   3.562  15.869 -1.1413 -0.1089  1.9945
 3318TIP3   OH231444   5.473   0.417  15.910 -0.0365  0.3106  0.0589
 3318TIP3    H131445   5.399   0.394  15.853 -0.8861  0.3011  1.1220
 3318TIP3    H231446   5.455   0.370  15.992  1.4288 -0.1042  0.1759
 3319TIP3   OH231447   6.259   4.299   1.992  0.3221 -0.6911 -0.0781
 3319TIP3    H131448   6.247   4.369   2.056  1.4380 -0.4900 -0.0693
 3319TIP3    H231449   6.205   4.325   1.917  0.8228  0.2478 -0.1268
 3320TIP3   OH231450   3.472   6.750   1.782  0.0705 -0.0790  0.4885
 3320TIP3    H131451   3.378   6.745   1.802 -0.8377  0.9764 -2.8795
 3320TIP3    H231452   3.487   6.678   1.721  0.8248  1.3499 -1.0587
 3321TIP3   OH231453   0.982   0.084   3.376 -0.3153 -0.4561 -0.0825
 3321TIP3    H131454   0.898   0.096   3.421 -0.0340  0.2928  0.2668
 3321TIP3    H231455   0.984  -0.009   3.353  0.5707 -1.5435  3.6516
 3322TIP3   OH231456   2.644   1.575   4.746  0.0218 -0.0764 -0.3814
 3322TIP3    H131457   2.671   1.655   4.700 -2.1602  0.4422 -0.8780
 3322TIP3    H231458   2.605   1.607   4.827  1.3894 -0.8399  0.6263
 3323TIP3   OH231459   2.861   3.399  16.277 -0.0464  0.1357 -0.1070
 3323TIP3    H131460   2.824   3.481  16.244 -0.0312  1.0443  1.9732
 3323TIP3    H231461   2.893   3.421  16.365 -1.6934 -2.4893  1.2909
 3324TIP3   OH231462   2.294   0.933   0.695  0.2155 -0.1416 -0.4609
 3324TIP3    H131463   2.291   0.940   0.600 -0.4231  1.0798 -0.3712
 3324TIP3    H231464   2.202   0.930   0.722  0.3756  0.1454  0.1434
 3325TIP3   OH231465   1.362   0.671   3.123  0.1261 -0.2626  0.5733
 3325TIP3    H131466   1.430   0.738   3.123 -0.3191  0.3516 -2.7761
 3325TIP3    H231467   1.341   0.658   3.216  2.2323  2.1262  1.4868
 3326TIP3   OH231468   1.935   6.052   6.167 -0.3962 -0.0680  0.5865
 3326TIP3    H131469   1.938   6.141   6.203 -1.1197  0.5849 -0.8916
 3326TIP3    H231470   2.012   6.008   6.204  2.9753  2.6723 -2.4776
 3327TIP3   OH231471   2.034   2.683   2.990 -0.1509  0.3166 -0.2417
 3327TIP3    H131472   2.029   2.778   2.995 -0.0423  0.3494 -0.6724
 3327TIP3    H231473   1.987   2.661   2.909 -2.3076 -0.1893  1.0784
 3328TIP3   OH231474   6.670   2.232   4.679 -0.3875  0.4550 -0.0774
 3328TIP3    H131475   6.712   2.192   4.755  0.2809  0.5907 -0.3665
 3328TIP3    H231476   6.631   2.313   4.712 -0.2129  0.4467  0.1493
 3329TIP3   OH231477   6.464   5.406  14.519 -0.0864 -0.5051  0.5520
 3329TIP3    H131478   6.385   5.392  14.572 -0.1010 -0.5322  0.5225
 3329TIP3    H231479   6.449   5.356  14.440 -0.3199  0.0031  0.2662
 3330TIP3   OH231480   2.605   1.715  15.347 -0.1361 -0.2692  0.3179
 3330TIP3    H131481   2.576   1.725  15.438  1.1016  0.5730  0.6489
 3330TIP3    H231482   2.630   1.803  15.320  2.2948 -0.9195  0.1642
 3331TIP3   OH231483   2.369   3.736  16.384  0.2364 -0.1181 -0.7061
 3331TIP3    H131484   2.374   3.821  16.429 -0.4126 -0.0132 -0.8256
 3331TIP3    H231485   2.393   3.672  16.451 -1.0095  0.0100 -0.1110
 3332TIP3   OH231486   3.453   5.678   1.088 -0.3132 -0.5681  0.1339
 3332TIP3    H131487   3.497   5.601   1.053  1.8439 -0.3458  2.1711
 3332TIP3    H231488   3.363   5.670   1.056  0.0122 -3.5087 -0.3303
 3333TIP3   OH231489   5.553   0.390   5.441 -0.3098  0.1082  0.3633
 3333TIP3    H131490   5.643   0.422   5.432 -0.8896  1.4866 -1.0503
 3333TIP3    H231491   5.500   0.470   5.444 -1.5871 -0.6923 -0.1402
 3334TIP3   OH231492   1.912   5.446  14.175 -0.0035 -0.3846 -0.1934
 3334TIP3    H131493   2.006   5.442  14.190  0.4277  0.5009 -2.2880
 3334TIP3    H231494   1.887   5.535  14.198 -0.3102 -0.5768  0.2289
 3335TIP3   OH231495   1.779   4.232  11.402  0.3121 -0.2038  0.1045
 3335TIP3    H131496   1.792   4.159  11.342 -0.4610  1.0746 -1.6727
 3335TIP3    H231497   1.825   4.205  11.482  2.3704 -1.4731 -1.4141
 3336TIP3   OH231498   5.564   1.090   3.957  0.1973  1.0092 -0.2745
 3336TIP3    H131499   5.486   1.038   3.938 -0.6702  1.3515  2.1095
 3336TIP3    H231500   5.563   1.160   3.892 -1.0244  0.5400 -0.7770
 3337TIP3   OH231501   2.670   6.762   6.776  0.8097  0.2688 -0.3988
 3337TIP3    H131502   2.718   6.819   6.716  0.0207  1.0508 -0.2966
 3337TIP3    H231503   2.615   6.821   6.827  1.3954 -0.3811  1.0559
 3338TIP3   OH231504   0.899   0.769   1.566 -0.2919  0.0612  0.2038
 3338TIP3    H131505   0.923   0.764   1.658  1.0161  0.9618 -0.0596
 3338TIP3    H231506   0.827   0.832   1.564  0.3432  0.8133  0.5099
 3339TIP3   OH231507   4.060   5.712   2.423 -0.2483 -0.2241 -0.0441
 3339TIP3    H131508   4.065   5.781   2.357 -0.0659 -0.1205  0.0759
 3339TIP3    H231509   4.141   5.721   2.474 -0.7883  0.2824  0.7622
 3340TIP3   OH231510   1.152   5.317   3.784  0.1181 -0.2662 -0.4886
 3340TIP3    H131511   1.113   5.262   3.715  0.0295 -1.2074  0.2976
 3340TIP3    H231512   1.137   5.268   3.865 -0.8373  1.3772  0.3790
 3341TIP3   OH231513   0.441   6.005   6.111  0.8777  0.4212  0.0231
 3341TIP3    H131514   0.371   5.975   6.053 -0.2598  0.9650  1.0733
 3341TIP3    H231515   0.408   6.087   6.148  2.6450  1.4206 -0.4798
 3342TIP3   OH231516   1.999   0.660  14.232 -0.2336  0.2915  0.4011
 3342TIP3    H131517   2.061   0.693  14.166  0.5957  0.9594  1.4735
 3342TIP3    H231518   2.053   0.614  14.295 -1.2133 -1.8481 -0.2230
 3343TIP3   OH231519   6.819   6.803   4.680  0.5243  0.1441  0.1706
 3343TIP3    H131520   6.835   6.771   4.591 -0.8237  0.9319 -0.3909
 3343TIP3    H231521   6.862   6.739   4.737  0.3024 -1.0998 -1.0049
 3344TIP3   OH231522   4.299   1.864  13.205  0.1980  0.6655  0.2766
 3344TIP3    H131523   4.393   1.882  13.202  0.5136 -0.8634 -1.9433
 3344TIP3    H231524   4.260   1.945  13.239  2.1880  2.0064 -0.4176
 3345TIP3   OH231525   2.508   5.275  13.305  0.2193 -0.2698  0.0397
 3345TIP3    H131526   2.528   5.286  13.398  0.1593 -1.4696  0.2128
 3345TIP3    H231527   2.589   5.298  13.260  0.6410 -0.8736  0.4730
 3346TIP3   OH231528   0.923   4.367  12.122  0.3388 -0.1271 -0.0268
 3346TIP3    H131529   0.886   4.290  12.078 -1.1118 -0.4946  1.6949
 3346TIP3    H231530   0.854   4.433  12.115  0.5705  0.1903  0.5916
 3347TIP3   OH231531   3.013   4.864  12.239 -0.2658  0.1328  0.4180
 3347TIP3    H131532   2.968   4.825  12.314 -0.6533 -3.2347 -1.3440
 3347TIP3    H231533   3.105   4.866  12.264 -0.5231  0.1279  1.4017
 3348TIP3   OH231534   5.000   5.836  14.052 -0.1800  0.5677 -0.2472
 3348TIP3    H131535   4.922   5.788  14.078  0.9782 -0.9871  0.5762
 3348TIP3    H231536   5.003   5.911  14.111 -0.6728  0.2477  0.1882
 3349TIP3   OH231537   0.209   2.094   0.514 -0.1858 -0.0624 -0.3884
 3349TIP3    H131538   0.180   2.148   0.440  0.7868  1.2113  0.1105
 3349TIP3    H231539   0.294   2.061   0.487 -0.1103 -0.1076 -0.0941
 3350TIP3   OH231540   0.965   3.620  14.896 -0.4233  0.3439  0.8263
 3350TIP3    H131541   0.883   3.652  14.859 -1.5717  1.6891  4.1447
 3350TIP3    H231542   1.028   3.691  14.881  0.0746 -0.4831 -1.2802
 3351TIP3   OH231543   5.596   2.379  10.501  0.7415  0.1701  0.0450
 3351TIP3    H131544   5.611   2.302  10.555 -1.6027 -1.1428 -1.0313
 3351TIP3    H231545   5.505   2.372  10.474  0.2376  3.6320  0.3458
 3352TIP3   OH231546   3.418   0.271  12.539  0.5665 -0.5465  0.5062
 3352TIP3    H131547   3.405   0.177  12.528  0.1508 -0.6702  1.9042
 3352TIP3    H231548   3.397   0.288  12.631 -1.6397  1.2663 -0.2313
 3353TIP3   OH231549   5.066   0.283  16.232 -0.0506 -0.0025  1.1702
 3353TIP3    H131550   5.007   0.224  16.186 -0.3545  0.1781  1.3265
 3353TIP3    H231551   5.079   0.242  16.318  1.6577 -1.0890  0.4441
 3354TIP3   OH231552   1.936   3.384   2.324  0.1122 -0.2971  0.0105
 3354TIP3    H131553   1.952   3.313   2.262 -0.0688 -0.7923  0.5228
 3354TIP3    H231554   1.934   3.463   2.270  0.9029 -0.6109 -0.4888
 3355TIP3   OH231555   5.154   3.105  11.291  0.2333 -0.6617  0.9833
 3355TIP3    H131556   5.108   3.076  11.212  0.4769  0.4379  0.4313
 3355TIP3    H231557   5.211   3.031  11.314  1.3059 -0.4098 -0.7611
 3356TIP3   OH231558   0.177   0.219  10.370  0.3115  0.3915  0.6071
 3356TIP3    H131559   0.198   0.199  10.462  1.8249  0.0230  0.2118
 3356TIP3    H231560   0.260   0.209  10.324 -0.5782 -0.1348 -0.9426
 3357TIP3   OH231561   2.443   5.044   6.077  0.1696  0.0750 -0.3507
 3357TIP3    H131562   2.439   5.136   6.051  2.2573  0.0601 -0.9273
 3357TIP3    H231563   2.391   4.997   6.012  1.4329  0.5734 -1.7831
 3358TIP3   OH231564   5.457   4.358   0.918  0.5343  0.0045 -0.4923
 3358TIP3    H131565   5.452   4.426   0.851  0.0214  0.5175  0.0511
 3358TIP3    H231566   5.420   4.280   0.877 -0.0348  0.3888 -0.7175
 3359TIP3   OH231567   3.161   5.526   3.811  0.0911 -0.3689  0.6304
 3359TIP3    H131568   3.188   5.498   3.898 -0.3711 -1.2621  0.4920
 3359TIP3    H231569   3.136   5.618   3.822 -1.0005 -0.7708  1.6833
 3360TIP3   OH231570   0.435   2.855  10.947 -0.4077  0.9191  0.1381
 3360TIP3    H131571   0.370   2.908  10.901  1.3440  0.8068 -2.6653
 3360TIP3    H231572   0.426   2.767  10.910 -1.0204 -0.0125  2.3373
 3361TIP3   OH231573   6.750   3.207   4.510 -0.4554 -0.1794 -0.1977
 3361TIP3    H131574   6.734   3.223   4.417 -1.7645 -0.4367 -0.0279
 3361TIP3    H231575   6.736   3.293   4.551 -1.3381 -0.3775 -0.0653
 3362TIP3   OH231576   3.586   2.322   0.552  0.8734 -0.3692 -0.2270
 3362TIP3    H131577   3.540   2.265   0.490  0.5485 -1.2774  0.8097
 3362TIP3    H231578   3.600   2.404   0.504  0.2603 -0.8973 -1.3457
 3363TIP3   OH231579   2.529   6.014  16.693  0.6728  0.5574 -0.0870
 3363TIP3    H131580   2.555   6.104  16.717 -2.4636  1.1733  1.4466
 3363TIP3    H231581   2.575   5.959  16.757 -0.0958  1.4148  1.2635
 3364TIP3   OH231582   2.396   3.768   4.626  0.0573 -0.4385 -0.9226
 3364TIP3    H131583   2.451   3.846   4.630 -1.2125  0.5307 -1.7170
 3364TIP3    H231584   2.444   3.702   4.677 -0.2760  1.7344  2.5449
 3365TIP3   OH231585   0.036   4.054   4.691 -0.2220  0.3099 -0.0633
 3365TIP3    H131586  -0.038   4.063   4.750 -1.1332 -1.3675 -0.8942
 3365TIP3    H231587   0.101   4.004   4.741  1.7467  4.1891  1.7773
 3366TIP3   OH231588   0.454   0.779   3.168  0.3238 -0.4449 -0.1590
 3366TIP3    H131589   0.415   0.832   3.237  0.9101 -0.6625  0.3520
 3366TIP3    H231590   0.382   0.759   3.109 -0.5699 -1.6773  1.2747
 3367TIP3   OH231591   0.568   6.318  12.693  0.1535  0.1361 -0.2571
 3367TIP3    H131592   0.505   6.385  12.667  0.5957  1.3788  1.6874
 3367TIP3    H231593   0.643   6.367  12.726 -0.4558 -1.1731  3.5114
 3368TIP3   OH231594   2.211   5.526  11.837  0.6204 -0.3754 -0.1250
 3368TIP3    H131595   2.138   5.479  11.798  0.4374  0.2039 -0.4949
 3368TIP3    H231596   2.236   5.473  11.913  0.2938 -0.9562 -0.4200
 3369TIP3   OH231597   0.942   5.805  11.659 -0.1012 -0.3726 -0.3825
 3369TIP3    H131598   0.921   5.717  11.687  0.8520 -0.6594 -0.5300
 3369TIP3    H231599   1.004   5.793  11.587 -0.1745  0.4059 -0.5848
 3370TIP3   OH231600   6.174   5.260  14.169 -0.8688  0.1136  0.4993
 3370TIP3    H131601   6.212   5.264  14.082 -1.3189 -1.7682  0.1734
 3370TIP3    H231602   6.245   5.231  14.226 -0.4603  1.7352  0.8909
 3371TIP3   OH231603   4.393   4.991   4.576  0.4195  0.3102 -0.6551
 3371TIP3    H131604   4.324   4.946   4.623  0.2379 -0.2086 -1.4008
 3371TIP3    H231605   4.360   5.000   4.487  1.3306  0.0029 -1.0369
 3372TIP3   OH231606   0.614   2.316  16.486  0.1380  0.0609  0.0318
 3372TIP3    H131607   0.699   2.297  16.524 -0.3217  1.0826  1.6706
 3372TIP3    H231608   0.631   2.326  16.392  1.8115  0.2522  0.3363
 3373TIP3   OH231609   4.791   4.720  13.027 -0.3742  0.4684 -0.6164
 3373TIP3    H131610   4.878   4.758  13.026 -0.1956  0.0975  0.1452
 3373TIP3    H231611   4.735   4.788  13.064 -0.3910  0.6628 -0.9953
 3374TIP3   OH231612   0.913   2.380  15.678  0.0792  0.2847  0.0937
 3374TIP3    H131613   1.003   2.349  15.690  0.1947  0.3517 -0.5647
 3374TIP3    H231614   0.895   2.367  15.585 -0.2865  1.0996  0.0394
 3375TIP3   OH231615   2.218   1.133  15.777 -0.2938  0.5240 -0.4539
 3375TIP3    H131616   2.311   1.150  15.766 -0.3778  0.3246 -1.5946
 3375TIP3    H231617   2.205   1.045  15.742 -0.7793  0.2107  0.4677
 3376TIP3   OH231618   2.002   6.767   3.578 -0.1054  0.1344 -0.1016
 3376TIP3    H131619   1.907   6.756   3.589 -0.4521  1.0305 -1.7976
 3376TIP3    H231620   2.032   6.683   3.543  0.0636 -0.7377  1.9648
 3377TIP3   OH231621   0.243   0.070  14.545 -0.1483  0.3487 -0.4378
 3377TIP3    H131622   0.155   0.045  14.571  0.3012  1.1406  2.1452
 3377TIP3    H231623   0.296  -0.008  14.562  0.0114  0.6208  0.3921
 3378TIP3   OH231624   6.242   3.302   2.806 -0.1185 -0.1481  0.5974
 3378TIP3    H131625   6.270   3.304   2.898  0.2427 -0.3247  0.4926
 3378TIP3    H231626   6.290   3.229   2.768  0.3191  0.3918  0.0844
 3379TIP3   OH231627   5.016   6.851  11.653  0.1240 -0.2892 -0.5223
 3379TIP3    H131628   5.069   6.862  11.731  0.1894 -0.4340 -0.5463
 3379TIP3    H231629   5.056   6.910  11.588 -1.2175  1.4929  0.1883
 3380TIP3   OH231630   4.313   5.301  16.168  0.4237 -0.3475 -0.1038
 3380TIP3    H131631   4.288   5.320  16.258 -0.0272  1.7175 -0.6076
 3380TIP3    H231632   4.408   5.311  16.167  0.1582  4.6860 -0.7474
 3381TIP3   OH231633   1.290   1.909  12.096 -0.6730 -0.4852 -0.3329
 3381TIP3    H131634   1.195   1.917  12.107 -0.5807 -0.8689  0.8954
 3381TIP3    H231635   1.326   1.983  12.145 -0.3009 -0.9214  0.0522
 3382TIP3   OH231636   6.535   4.641  16.848  0.0222  0.3482 -0.1832
 3382TIP3    H131637   6.584   4.723  16.844 -0.0862  0.6094  2.1071
 3382TIP3    H231638   6.455   4.663  16.896 -0.2728 -0.9727 -0.0195
 3383TIP3   OH231639   3.392   0.260  11.647  0.1373  0.1039  0.1195
 3383TIP3    H131640   3.332   0.313  11.700 -0.1897 -0.1676  0.0242
 3383TIP3    H231641   3.357   0.266  11.558  1.2763  1.4243 -0.2891
 3384TIP3   OH231642   5.070   5.293   5.219 -0.1879 -0.4603 -0.1352
 3384TIP3    H131643   5.007   5.364   5.206  0.0221 -0.2443  0.0213
 3384TIP3    H231644   5.065   5.274   5.313 -0.1873 -0.6019 -0.1637
 3385TIP3   OH231645   6.450   1.747   0.589  0.2089 -0.4667  0.7078
 3385TIP3    H131646   6.473   1.659   0.560  1.8656 -1.1345  3.7023
 3385TIP3    H231647   6.380   1.734   0.653 -1.2272  0.6958 -0.5263
 3386TIP3   OH231648   2.467   1.807   1.541  0.0206 -0.2800 -0.3145
 3386TIP3    H131649   2.459   1.832   1.633  1.8095  2.0766 -0.7216
 3386TIP3    H231650   2.525   1.731   1.541 -0.0944 -0.3689  0.5092
 3387TIP3   OH231651   2.465   6.768  14.621  0.1041  0.2996  0.2359
 3387TIP3    H131652   2.375   6.733  14.619  0.2145  0.0297 -1.2571
 3387TIP3    H231653   2.519   6.696  14.591  0.7616  0.6623  0.5381
 3388TIP3   OH231654   1.155   3.446   3.560  0.0524 -0.0714 -0.2035
 3388TIP3    H131655   1.222   3.427   3.495 -1.4433  1.0448 -2.1803
 3388TIP3    H231656   1.107   3.364   3.570 -1.0117  0.2737 -2.1507
 3389TIP3   OH231657   2.505   4.967   3.017 -0.2113  0.0085  0.0498
 3389TIP3    H131658   2.502   5.042   3.076 -1.5126  1.8877 -2.2385
 3389TIP3    H231659   2.596   4.962   2.989 -0.4476  1.9500 -1.1782
 3390TIP3   OH231660   2.037   3.462  16.515  0.1217  0.0733 -0.5529
 3390TIP3    H131661   2.036   3.549  16.474 -1.3321  1.1843  1.6920
 3390TIP3    H231662   1.976   3.410  16.462  1.7019  0.0433 -2.4831
 3391TIP3   OH231663   4.668   4.295   0.794 -0.8717 -0.1678  0.1156
 3391TIP3    H131664   4.613   4.366   0.828 -1.2704 -0.7351  0.6682
 3391TIP3    H231665   4.608   4.239   0.746 -0.9326 -1.1895  1.3421
 3392TIP3   OH231666   1.954   5.133   0.733  0.4787 -0.5176 -0.1345
 3392TIP3    H131667   1.915   5.219   0.717  0.8836 -0.1178  0.9273
 3392TIP3    H231668   1.968   5.096   0.646  2.5381  1.4861 -0.7616
 3393TIP3   OH231669   1.403   4.827  13.946 -0.1535 -0.2005 -0.4244
 3393TIP3    H131670   1.371   4.917  13.939 -3.7915 -0.8314  3.6074
 3393TIP3    H231671   1.469   4.831  14.015  2.2915 -0.2474 -2.6504
 3394TIP3   OH231672   6.480   3.934   3.157 -0.2029  0.3152  0.1804
 3394TIP3    H131673   6.463   4.000   3.089  1.4056  0.5329 -0.0381
 3394TIP3    H231674   6.544   3.875   3.118 -0.0853 -0.1907  1.1203
 3395TIP3   OH231675   0.378   0.297   5.139  0.4014  0.5995 -0.1486
 3395TIP3    H131676   0.300   0.243   5.130  1.8185 -1.7463  0.7266
 3395TIP3    H231677   0.439   0.261   5.074  1.1151  1.7060 -0.1106
 3396TIP3   OH231678   4.683   6.094  12.950 -0.0755  0.6933  0.2702
 3396TIP3    H131679   4.695   6.124  12.860  0.8282  1.0773  0.5073
 3396TIP3    H231680   4.607   6.143  12.982 -0.1454  0.8593 -0.1475
 3397TIP3   OH231681   2.040   4.412  14.833  0.3104 -0.0157  0.2728
 3397TIP3    H131682   1.982   4.343  14.866 -0.2877 -0.4929 -1.6943
 3397TIP3    H231683   2.128   4.384  14.859 -0.1031 -0.5148  1.1769
 3398TIP3   OH231684   3.937   1.366   0.883  0.5607  0.0932  0.0285
 3398TIP3    H131685   3.997   1.337   0.952  1.6132  0.7541 -0.5941
 3398TIP3    H231686   3.969   1.324   0.804  0.3808  0.6734 -0.3583
 3399TIP3   OH231687   1.172   5.166   3.087 -0.8164 -0.5781  0.7071
 3399TIP3    H131688   1.264   5.139   3.077 -0.2542  1.2703  0.4844
 3399TIP3    H231689   1.145   5.193   2.999 -0.6665  1.4649  1.2400
 3400TIP3   OH231690   0.991   0.554  13.429  0.2105  0.0154  0.1089
 3400TIP3    H131691   0.955   0.515  13.509  2.9152 -1.1979  0.8487
 3400TIP3    H231692   0.946   0.638  13.422 -1.5505 -0.6951  1.7781
 3401TIP3   OH231693   5.602   6.737   4.855 -0.1954 -0.0953  0.1293
 3401TIP3    H131694   5.689   6.711   4.887  0.5071  0.1180 -1.4763
 3401TIP3    H231695   5.602   6.712   4.763 -1.5816  0.5670 -0.0810
 3402TIP3   OH231696   1.991   3.766   3.043  0.1422  0.8777 -0.0489
 3402TIP3    H131697   2.039   3.744   2.964  0.5001  1.4611 -0.0052
 3402TIP3    H231698   1.904   3.791   3.012 -0.1700 -0.2658 -0.1200
 3403TIP3   OH231699   1.107   2.897   0.595  0.1529  0.4852  0.1070
 3403TIP3    H131700   1.093   2.812   0.637 -0.5828  0.4699 -0.1473
 3403TIP3    H231701   1.021   2.939   0.598 -0.2590  0.0035 -2.4087
 3404TIP3   OH231702   4.179   2.221   4.825 -0.0469  0.0465 -0.8949
 3404TIP3    H131703   4.146   2.309   4.840 -0.1317 -0.0027 -0.7876
 3404TIP3    H231704   4.195   2.216   4.731  0.0503  0.2074 -0.8869
 3405TIP3   OH231705   3.663   4.023  12.971 -0.1192 -0.2668  0.1590
 3405TIP3    H131706   3.734   4.013  12.907  1.0739  1.2856  1.1516
 3405TIP3    H231707   3.700   4.079  13.039 -1.9780 -0.2929  1.2669
 3406TIP3   OH231708   2.817   3.429   1.948 -0.0713  0.1157 -0.5427
 3406TIP3    H131709   2.837   3.495   2.015  1.4422 -2.5143  1.8229
 3406TIP3    H231710   2.756   3.369   1.991 -1.3544 -0.1628 -2.5984
 3407TIP3   OH231711   3.259   6.260   0.905  0.0414 -0.0730 -0.2157
 3407TIP3    H131712   3.235   6.215   0.986 -1.9277  2.0451  0.4820
 3407TIP3    H231713   3.338   6.310   0.927 -0.6079  0.6624  0.5005
 3408TIP3   OH231714   1.702   2.231  13.315 -0.0455  0.5520  0.0589
 3408TIP3    H131715   1.701   2.157  13.376 -0.4790  0.8749  0.4517
 3408TIP3    H231716   1.714   2.191  13.229  1.1310  0.1251  0.3980
 3409TIP3   OH231717   0.514   6.395  13.748 -0.5801  0.2772  0.1999
 3409TIP3    H131718   0.585   6.456  13.766 -0.6521  0.5059 -0.2911
 3409TIP3    H231719   0.550   6.336  13.682 -0.6431  0.0195  0.3921
 3410TIP3   OH231720   0.222   6.741   5.991 -0.1590  0.9131  0.8324
 3410TIP3    H131721   0.292   6.806   5.987 -0.1655  0.9481  1.2056
 3410TIP3    H231722   0.142   6.793   5.991 -0.2456  0.8328 -0.8826
 3411TIP3   OH231723   1.373   3.546   1.872  0.4317  0.4421 -1.0817
 3411TIP3    H131724   1.349   3.511   1.958  0.5389 -0.4697 -1.4111
 3411TIP3    H231725   1.422   3.626   1.891  2.9090 -1.1746 -0.1686
 3412TIP3   OH231726   3.298   2.336   2.800  0.3781 -0.2615  0.6674
 3412TIP3    H131727   3.294   2.269   2.732 -0.2882  0.4175  0.0071
 3412TIP3    H231728   3.207   2.365   2.810  0.5814  0.1750  1.3138
 3413TIP3   OH231729   6.365   4.548  16.266 -0.3273  0.1289  0.2610
 3413TIP3    H131730   6.419   4.612  16.313  3.6020 -1.1350 -2.0347
 3413TIP3    H231731   6.316   4.599  16.202 -0.6117  1.1771  1.2742
 3414TIP3   OH231732   5.735   3.540   5.420 -0.4063  0.5080  0.2326
 3414TIP3    H131733   5.701   3.532   5.331 -0.8705 -1.5748  0.5618
 3414TIP3    H231734   5.664   3.582   5.469 -1.8052 -1.9750  0.4660
 3415TIP3   OH231735   4.719   2.192  14.088 -0.1293  0.2958  0.3225
 3415TIP3    H131736   4.692   2.101  14.100 -1.3343  0.3900 -1.4499
 3415TIP3    H231737   4.778   2.190  14.013  0.5173  0.8739  0.8064
 3416TIP3   OH231738   1.997   4.563  13.795  0.7145 -0.4849 -0.2469
 3416TIP3    H131739   1.969   4.472  13.804 -0.8259 -0.1750 -1.4770
 3416TIP3    H231740   2.038   4.566  13.708 -0.7631  0.3222 -0.9522
 3417TIP3   OH231741   6.652   2.010  14.295 -0.1288  0.1455  0.3501
 3417TIP3    H131742   6.731   2.043  14.337 -0.1254 -0.1793  0.5989
 3417TIP3    H231743   6.646   2.061  14.214 -0.9938  1.8862  1.4496
 3418TIP3   OH231744   4.598   0.773   6.207  0.1063 -0.3016 -0.1511
 3418TIP3    H131745   4.520   0.737   6.250  1.0643 -1.1291  0.9659
 3418TIP3    H231746   4.618   0.853   6.256  0.7864 -0.8716  0.5397
 3419TIP3   OH231747   5.988   3.987  12.130  0.1747 -0.2330  0.2992
 3419TIP3    H131748   6.038   3.976  12.050  1.1486 -0.6846  0.9503
 3419TIP3    H231749   5.910   3.932  12.118 -1.0322  1.7376 -1.3870
 3420TIP3   OH231750   4.953   0.082  16.939  0.6577 -0.5051 -0.6094
 3420TIP3    H131751   4.902   0.075  16.858  0.8158 -1.0572 -0.6670
 3420TIP3    H231752   4.888   0.072  17.009  0.3122  1.2902 -0.6214
 3421TIP3   OH231753   0.025   1.036  14.094  0.0199  0.2843  0.1965
 3421TIP3    H131754   0.062   0.956  14.132  1.4098  0.3688 -0.9221
 3421TIP3    H231755   0.099   1.081  14.055 -0.8448  1.8553  0.2960
 3422TIP3   OH231756   1.080   0.616  11.058  0.5279  0.0283  0.2017
 3422TIP3    H131757   1.086   0.590  10.967 -2.4987 -1.7869  0.3685
 3422TIP3    H231758   1.145   0.562  11.103  1.7763  0.6692 -0.7608
 3423TIP3   OH231759   0.635   2.278  12.961 -0.4080 -0.3537  0.4009
 3423TIP3    H131760   0.653   2.362  13.003  0.8287  0.3845 -1.4691
 3423TIP3    H231761   0.710   2.223  12.984 -0.0480 -0.1554 -0.2652
 3424TIP3   OH231762   0.914   5.120  13.221 -1.0783  0.0138  0.2573
 3424TIP3    H131763   0.866   5.089  13.298 -0.2850 -0.5189  0.5456
 3424TIP3    H231764   0.937   5.041  13.173  2.2968 -0.1177  1.7787
 3425TIP3   OH231765   0.836   4.190   0.621 -0.5314 -0.1358 -0.3928
 3425TIP3    H131766   0.872   4.124   0.561  1.9220  0.6938  0.0420
 3425TIP3    H231767   0.878   4.171   0.705 -2.3295 -0.0035  0.5852
 3426TIP3   OH231768   5.342   2.143  15.100  0.1677  0.2895  0.0383
 3426TIP3    H131769   5.339   2.079  15.029  0.6013  0.8660 -0.5163
 3426TIP3    H231770   5.435   2.149  15.123  0.0892  0.4589  0.3169
 3427TIP3   OH231771   0.818   5.584   6.396 -0.2357  0.3529 -0.4793
 3427TIP3    H131772   0.850   5.673   6.382  0.1346  0.1595 -0.8808
 3427TIP3    H231773   0.883   5.544   6.453 -0.9576  0.6627  0.6058
 3428TIP3   OH231774   4.194   6.471   0.413 -0.3812 -0.3388  0.1098
 3428TIP3    H131775   4.128   6.520   0.364  0.4276  0.2055 -0.4704
 3428TIP3    H231776   4.229   6.534   0.476  0.0902 -0.4087 -0.0797
 3429TIP3   OH231777   5.072   2.409  11.547  0.0367 -0.6450 -0.4263
 3429TIP3    H131778   5.154   2.453  11.526  0.5631 -1.3259  0.1800
 3429TIP3    H231779   5.021   2.415  11.466 -0.0222  1.2793 -0.2947
 3430TIP3   OH231780   2.100   1.489   5.121  0.0719  0.3065  0.2781
 3430TIP3    H131781   2.092   1.403   5.163  1.5325  0.9054  1.8988
 3430TIP3    H231782   2.017   1.533   5.141  0.8021  0.6535  2.8489
 3431TIP3   OH231783   0.132   6.676   0.765  0.1820  0.0887 -0.0151
 3431TIP3    H131784   0.135   6.674   0.669  0.9774 -3.0795 -0.0281
 3431TIP3    H231785   0.223   6.671   0.792 -0.1524 -2.0914  0.8298
 3432TIP3   OH231786   0.676   0.918   5.310  0.3837 -0.4962  0.5461
 3432TIP3    H131787   0.656   0.852   5.376 -0.0068 -2.6584 -1.6028
 3432TIP3    H231788   0.618   0.992   5.332 -1.1412 -1.9036  1.4839
 3433TIP3   OH231789   1.082   6.059   2.714 -0.0502  0.2163 -0.6301
 3433TIP3    H131790   1.121   6.053   2.626 -2.5910  0.9002 -1.8927
 3433TIP3    H231791   0.998   6.014   2.706 -0.8232  1.2674  1.1559
 3434TIP3   OH231792   3.075   6.140  14.742  0.3326  0.0691  0.7512
 3434TIP3    H131793   3.014   6.120  14.814  0.7780  0.2799  1.1903
 3434TIP3    H231794   3.130   6.062  14.736 -0.4492 -0.4455 -0.1542
 3435TIP3   OH231795   5.469   0.890  14.821  0.2824 -0.4117 -0.4833
 3435TIP3    H131796   5.471   0.984  14.804 -1.3741 -0.1584  0.5047
 3435TIP3    H231797   5.500   0.881  14.911 -0.2483 -0.7231 -0.3263
 3436TIP3   OH231798   3.130   2.056  14.684 -0.2947 -0.6827  0.2685
 3436TIP3    H131799   3.154   2.096  14.768 -1.8353 -1.2225  1.0128
 3436TIP3    H231800   3.131   1.962  14.701 -0.1704 -0.8188 -0.4534
 3437TIP3   OH231801   5.339   2.568   1.497  0.3331 -0.2400  0.6263
 3437TIP3    H131802   5.266   2.515   1.466  0.5993 -0.7068  0.7963
 3437TIP3    H231803   5.416   2.511   1.491  0.6338  0.1413  0.7535
 3438TIP3   OH231804   2.496   3.613   0.421  0.0022  0.4223 -0.1728
 3438TIP3    H131805   2.556   3.597   0.349 -0.8323 -0.8121 -0.6284
 3438TIP3    H231806   2.453   3.695   0.399  0.1345  0.3217 -0.8207
 3439TIP3   OH231807   0.158   1.443   0.387  0.2039  0.2095  0.0568
 3439TIP3    H131808   0.163   1.384   0.462 -1.3993  0.2807  0.2594
 3439TIP3    H231809   0.224   1.411   0.326  2.0659  0.5981  1.7819
 3440TIP3   OH231810   0.155   0.809   3.523  0.0539  0.3076 -0.0923
 3440TIP3    H131811   0.123   0.839   3.438 -0.7919  0.8304  0.3972
 3440TIP3    H231812   0.220   0.742   3.502  1.0586  1.5781 -1.1905
 3441TIP3   OH231813   6.281   1.563   5.443 -0.5293  0.2244  0.5422
 3441TIP3    H131814   6.233   1.486   5.411 -0.1775 -0.7016  2.1081
 3441TIP3    H231815   6.216   1.615   5.490 -0.9352  1.3200 -1.1589
 3442TIP3   OH231816   1.678   4.785  16.276  0.3540  0.1971  0.7209
 3442TIP3    H131817   1.757   4.812  16.229  1.3291 -1.8200  1.1450
 3442TIP3    H231818   1.641   4.715  16.222 -0.3847  0.1649  1.2553
 3443TIP3   OH231819   0.724   3.311   5.512 -0.5657  0.1802  0.5278
 3443TIP3    H131820   0.727   3.368   5.588 -1.1171 -0.2769  0.9019
 3443TIP3    H231821   0.811   3.271   5.509 -0.4226  0.4786  0.7035
 3444TIP3   OH231822   1.184   4.631  14.938 -0.2229 -0.4614 -0.2323
 3444TIP3    H131823   1.093   4.605  14.952  0.0076 -0.6322  1.0821
 3444TIP3    H231824   1.216   4.571  14.870 -0.7294 -1.2725  0.2242
 3445TIP3   OH231825   5.813   5.616   3.703  0.0445  0.0469 -0.4900
 3445TIP3    H131826   5.728   5.577   3.721  0.1436 -0.6359 -1.4138
 3445TIP3    H231827   5.798   5.711   3.711 -0.3743 -0.1321  1.0136
 3446TIP3   OH231828   0.603   5.854   4.599 -0.0601  0.0203  0.4535
 3446TIP3    H131829   0.661   5.800   4.653 -0.8477 -0.6649  0.6363
 3446TIP3    H231830   0.553   5.791   4.548  0.3646  0.6507 -0.7674
 3447TIP3   OH231831   4.432   5.628   1.134 -0.2913 -0.3490 -0.2142
 3447TIP3    H131832   4.434   5.707   1.080  0.1445 -0.5030 -0.4270
 3447TIP3    H231833   4.463   5.657   1.220  1.2521 -0.5717 -0.6756
 3448TIP3   OH231834   5.720   6.144  12.866  0.1883  0.1997  0.6628
 3448TIP3    H131835   5.758   6.062  12.899 -2.3289 -1.6964 -0.7821
 3448TIP3    H231836   5.735   6.141  12.772  0.3648  1.6287  0.6212
 3449TIP3   OH231837   0.361   6.438  15.083 -0.5419 -0.3794 -0.5128
 3449TIP3    H131838   0.372   6.376  15.155  1.0871 -0.7641 -1.0558
 3449TIP3    H231839   0.270   6.466  15.090 -1.6929 -3.5883 -0.8452
 3450TIP3   OH231840   2.066   6.098   1.860  0.9703  0.9955 -0.0905
 3450TIP3    H131841   2.153   6.138   1.868  1.1731  0.3612  1.0198
 3450TIP3    H231842   2.028   6.104   1.947  1.2437 -1.6967  0.3100
 3451TIP3   OH231843   1.259   0.186  15.942 -0.1666 -0.4269 -0.2462
 3451TIP3    H131844   1.324   0.256  15.933 -0.4256 -0.2279 -0.6071
 3451TIP3    H231845   1.207   0.211  16.018 -1.9098  1.1642 -1.8527
 3452TIP3   OH231846   1.743   3.209   3.959 -0.2328 -0.3129  0.0902
 3452TIP3    H131847   1.753   3.300   3.930 -0.0664 -0.8518 -1.7157
 3452TIP3    H231848   1.828   3.187   3.997 -0.0385  0.0806 -0.1024
 3453TIP3   OH231849   2.330   4.344   5.514 -0.0493 -0.0685  0.9006
 3453TIP3    H131850   2.351   4.298   5.595 -0.6749 -0.9545  0.5740
 3453TIP3    H231851   2.314   4.275   5.450 -3.2633  0.4808  0.9591
 3454TIP3   OH231852   2.901   1.769  16.721 -0.0993  0.3279 -0.3578
 3454TIP3    H131853   2.809   1.760  16.749  0.1272 -1.2405 -0.0193
 3454TIP3    H231854   2.903   1.852  16.672 -1.0599  1.9103  2.0840
 3455TIP3   OH231855   5.365   4.582  14.957 -0.4846 -0.1066 -0.8743
 3455TIP3    H131856   5.365   4.607  15.049 -1.3733  0.4317 -1.0153
 3455TIP3    H231857   5.334   4.659  14.910 -0.2602 -0.4498 -1.6097
 3456TIP3   OH231858   2.931   1.644   4.747 -0.1016  0.4622  0.0718
 3456TIP3    H131859   2.949   1.705   4.675 -1.5244 -0.9688 -1.5664
 3456TIP3    H231860   3.014   1.599   4.762  0.0322  0.2439 -1.2240
 3457TIP3   OH231861   4.844   5.808   4.468  0.4989  0.4269  0.9011
 3457TIP3    H131862   4.924   5.801   4.520  1.8487 -0.0756 -1.1244
 3457TIP3    H231863   4.853   5.890   4.420  1.8810 -1.4362 -2.3923
 3458TIP3   OH231864   0.795   3.500   1.194  0.1335 -0.6699  0.5737
 3458TIP3    H131865   0.741   3.455   1.129  0.5679 -1.0444  0.4668
 3458TIP3    H231866   0.787   3.593   1.171  0.8648 -0.8453 -0.4808
 3459TIP3   OH231867   4.169   3.655   3.696  0.3455  0.4088 -0.2361
 3459TIP3    H131868   4.264   3.643   3.695  0.4816  1.4053 -0.9998
 3459TIP3    H231869   4.146   3.655   3.789  0.7645 -1.9950 -0.0599
 3460TIP3   OH231870   5.249   4.706   5.729  0.3399 -0.1098 -0.6779
 3460TIP3    H131871   5.338   4.717   5.695  0.3800 -1.3540 -1.0380
 3460TIP3    H231872   5.229   4.613   5.714 -1.2660  0.2872 -1.1779
 3461TIP3   OH231873   5.492   2.961   3.227  0.1365  0.2424 -0.2318
 3461TIP3    H131874   5.559   2.914   3.277  0.3251  0.0193 -0.6908
 3461TIP3    H231875   5.540   3.004   3.157  0.1454  2.1740  0.8972
 3462TIP3   OH231876   1.401   1.794   3.727  0.3155  0.0008  0.4031
 3462TIP3    H131877   1.321   1.841   3.755 -0.5409 -0.7545 -0.7132
 3462TIP3    H231878   1.457   1.863   3.691 -0.0399  0.4700  0.7217
 3463TIP3   OH231879   3.009   4.251  13.308  0.4154  0.1424 -0.0125
 3463TIP3    H131880   3.037   4.160  13.319  1.0792  0.3513  0.1126
 3463TIP3    H231881   3.012   4.288  13.396 -1.1672 -0.0650  0.1435
 3464TIP3   OH231882   3.937   5.156  15.796  1.0022 -0.5823 -0.3498
 3464TIP3    H131883   3.891   5.212  15.859  0.0230 -1.4945 -0.2292
 3464TIP3    H231884   4.028   5.156  15.827  1.0476  0.9862 -0.4035
 3465TIP3   OH231885   3.814   0.638  10.926 -0.1960 -0.2719 -0.7423
 3465TIP3    H131886   3.896   0.621  10.973 -0.3094  0.2316 -0.3531
 3465TIP3    H231887   3.750   0.581  10.968 -0.1335 -0.3684 -0.7777
 3466TIP3   OH231888   6.415   1.442  15.128  0.1254  0.2047 -0.1423
 3466TIP3    H131889   6.444   1.503  15.060  1.2725 -2.3575 -2.1053
 3466TIP3    H231890   6.328   1.474  15.153  0.0892  1.8277 -2.0570
 3467TIP3   OH231891   5.336   1.776  15.667  0.2670 -0.2581 -0.4627
 3467TIP3    H131892   5.387   1.695  15.670  2.7036  1.1257  3.0659
 3467TIP3    H231893   5.403   1.845  15.663 -1.5448  1.6256  0.1312
 3468TIP3   OH231894   0.078   3.780   4.529 -0.1802 -0.7468 -0.2218
 3468TIP3    H131895  -0.007   3.739   4.518  0.3975 -1.5900 -1.9209
 3468TIP3    H231896   0.072   3.863   4.482 -0.0636 -0.8219 -0.3722
 3469TIP3   OH231897   5.022   5.745  15.984  0.1047  0.0507  0.1887
 3469TIP3    H131898   5.067   5.785  16.058 -0.7008 -0.8955  1.2455
 3469TIP3    H231899   5.056   5.655  15.982  0.2795  0.1304 -0.7451
 3470TIP3   OH231900   5.368   5.172  12.176  0.2950 -0.3979 -0.5241
 3470TIP3    H131901   5.302   5.113  12.141 -0.4131 -0.8065  1.3754
 3470TIP3    H231902   5.396   5.131  12.258  0.6108  1.3202  0.2853
 3471TIP3   OH231903   2.149   5.131   0.920  0.0370 -0.5649 -0.2054
 3471TIP3    H131904   2.073   5.110   0.867  0.0425  0.0193 -0.4581
 3471TIP3    H231905   2.131   5.092   1.005 -0.9981  0.3699  0.0332
 3472TIP3   OH231906   2.144   4.716  16.183  0.0900  0.1889 -0.3748
 3472TIP3    H131907   2.079   4.660  16.226 -2.2884  2.5833 -0.6014
 3472TIP3    H231908   2.199   4.748  16.255 -1.4361  1.1138  0.4355
 3473TIP3   OH231909   4.321   5.725   2.513  0.2068  0.4699  0.2492
 3473TIP3    H131910   4.410   5.758   2.525  0.0342  0.1196  2.9772
 3473TIP3    H231911   4.332   5.634   2.486  0.8039 -0.7000  3.9759
 3474TIP3   OH231912   2.705   3.892   4.117  0.3543  0.4104  0.0651
 3474TIP3    H131913   2.705   3.809   4.166 -1.8059  0.3208  0.0013
 3474TIP3    H231914   2.664   3.871   4.034  0.4392  1.4094 -0.2441
 3475TIP3   OH231915   0.094   3.804  12.870 -0.1379 -0.3082  0.0080
 3475TIP3    H131916   0.026   3.858  12.829 -0.6942 -1.5506 -0.7746
 3475TIP3    H231917   0.076   3.715  12.839  1.4686 -0.7700  0.3070
 3476TIP3   OH231918   0.394   5.741   6.239 -0.4011 -0.0796  0.0607
 3476TIP3    H131919   0.356   5.665   6.194 -0.4615 -0.8732  1.3729
 3476TIP3    H231920   0.412   5.804   6.170 -0.7966 -1.1078 -1.0149
 3477TIP3   OH231921   3.329   1.511  14.199 -0.0533  0.0251 -0.6067
 3477TIP3    H131922   3.293   1.441  14.253  0.5806  0.7735  0.8190
 3477TIP3    H231923   3.373   1.464  14.128 -1.8503 -0.9465 -1.1661
 3478TIP3   OH231924   0.469   6.613   2.059 -0.3761  0.1334 -0.1920
 3478TIP3    H131925   0.409   6.654   1.996 -0.3443 -0.2498 -0.4748
 3478TIP3    H231926   0.423   6.618   2.143 -1.8657 -2.1946 -0.7615
 3479TIP3   OH231927   3.671   4.091   5.836  0.2943  0.7227  0.4067
 3479TIP3    H131928   3.765   4.104   5.835  0.0616  2.6060 -0.2552
 3479TIP3    H231929   3.639   4.147   5.907 -0.3832  0.6646  0.1606
 3480TIP3   OH231930   2.370   5.093  12.468 -0.0653 -0.5561 -0.5913
 3480TIP3    H131931   2.411   5.164  12.517 -0.6080 -0.6651  0.0384
 3480TIP3    H231932   2.435   5.023  12.468  0.0514 -0.4506 -0.2752
 3481TIP3   OH231933   4.157   0.351  14.456  0.5150 -0.6574  0.2601
 3481TIP3    H131934   4.244   0.387  14.470  0.4979 -1.1343  1.7252
 3481TIP3    H231935   4.164   0.305  14.372  1.9198 -1.4205  0.7655
 3482TIP3   OH231936   3.067   3.090   0.743  0.0358 -0.1413  0.4792
 3482TIP3    H131937   3.136   3.156   0.731 -0.0994 -0.0022  0.4630
 3482TIP3    H231938   3.110   3.019   0.790  0.4209 -0.4362 -0.3049
 3483TIP3   OH231939   4.614   2.739  12.258  0.5924  0.3385 -0.3537
 3483TIP3    H131940   4.625   2.816  12.314 -0.4881  0.0368  0.2926
 3483TIP3    H231941   4.536   2.759  12.206  0.6690 -0.0648 -0.6242
 3484TIP3   OH231942   5.072   1.718   1.828  0.1652  0.1487 -0.6169
 3484TIP3    H131943   5.089   1.787   1.893 -0.8178  1.0565 -1.2941
 3484TIP3    H231944   5.002   1.666   1.866 -1.6380  1.7145 -1.6424
 3485TIP3   OH231945   6.849   3.436   3.551  0.4959 -1.0060 -0.5443
 3485TIP3    H131946   6.760   3.400   3.559 -0.6923  1.9639  1.8947
 3485TIP3    H231947   6.845   3.492   3.473 -0.4987  0.5940  0.5771
 3486TIP3   OH231948   1.404   1.130   1.246 -0.1142 -0.3187  0.8061
 3486TIP3    H131949   1.332   1.069   1.239  0.3733 -0.9611  1.2466
 3486TIP3    H231950   1.475   1.090   1.196  0.1740 -0.0715  1.0103
 3487TIP3   OH231951   2.495   0.439   4.635 -0.2080  0.0668 -0.1129
 3487TIP3    H131952   2.578   0.464   4.675 -0.3686  1.5220 -0.6304
 3487TIP3    H231953   2.467   0.517   4.587 -0.7837 -1.1155 -1.7799
 3488TIP3   OH231954   1.192   3.243   3.910 -0.6109 -0.4483  0.0972
 3488TIP3    H131955   1.181   3.225   3.817  0.7425 -0.0072 -0.1703
 3488TIP3    H231956   1.280   3.212   3.931 -0.1322  1.2214  0.7667
 3489TIP3   OH231957   1.076   4.395   4.854  0.1336 -0.1287  0.3263
 3489TIP3    H131958   1.037   4.359   4.933 -0.2986 -1.5461 -0.5005
 3489TIP3    H231959   1.087   4.488   4.873 -0.5021 -0.3316  1.8254
 3490TIP3   OH231960   6.497   0.991  13.612  0.0606 -0.0381  0.1928
 3490TIP3    H131961   6.502   0.974  13.518  0.7232  0.3191  0.1544
 3490TIP3    H231962   6.587   0.979  13.643 -0.1174  0.0300  0.7515
 3491TIP3   OH231963   5.455   4.993   5.561  0.0106  0.1581 -0.5654
 3491TIP3    H131964   5.368   5.027   5.583  0.1841  0.3195 -0.1061
 3491TIP3    H231965   5.479   4.938   5.635 -0.3754 -1.2014 -1.4325
 3492TIP3   OH231966   2.475   4.549   5.132  0.4317  0.6430 -0.5226
 3492TIP3    H131967   2.555   4.497   5.142  1.2795  1.8696 -0.6939
 3492TIP3    H231968   2.455   4.578   5.221 -0.1181 -0.0708 -0.4078
 3493TIP3   OH231969   0.733   2.443  12.153 -0.2304  0.7687 -0.4100
 3493TIP3    H131970   0.753   2.379  12.084  0.7885  2.1171 -1.4180
 3493TIP3    H231971   0.811   2.444  12.208  0.9156  2.9787 -1.9219
 3494TIP3   OH231972   3.917   1.564   2.211  0.1810 -0.2221  0.0727
 3494TIP3    H131973   3.951   1.632   2.268 -1.6248  1.6019 -0.8733
 3494TIP3    H231974   3.968   1.572   2.130 -0.2872  0.2999 -0.1776
 3495TIP3   OH231975   0.202   4.146   4.188 -0.3530  0.2160 -0.6720
 3495TIP3    H131976   0.171   4.134   4.278  1.4302 -1.5981 -0.2348
 3495TIP3    H231977   0.272   4.211   4.195 -1.2899  1.3018 -1.0441
 3496TIP3   OH231978   1.684   2.452  11.061  0.6467 -0.0508  0.2102
 3496TIP3    H131979   1.666   2.380  11.001  0.1786  0.2815 -0.0448
 3496TIP3    H231980   1.734   2.411  11.132 -0.9507 -0.9606  0.8600
 3497TIP3   OH231981   1.615   0.643   1.630  0.0020  0.6736  0.2070
 3497TIP3    H131982   1.569   0.641   1.546 -0.7458  1.7166  0.5554
 3497TIP3    H231983   1.638   0.552   1.648  2.6417  0.6967 -2.4000
 3498TIP3   OH231984   4.992   3.532   0.136 -0.0177  0.1631  0.4108
 3498TIP3    H131985   5.006   3.479   0.215  2.4230 -0.4693 -0.3562
 3498TIP3    H231986   4.924   3.594   0.161  0.6187 -0.0481  3.0092
 3499TIP3   OH231987   6.447   2.028  12.440  0.3863 -0.2624 -0.5371
 3499TIP3    H131988   6.386   2.064  12.503 -0.5211  1.2809 -2.2005
 3499TIP3    H231989   6.451   2.093  12.370  1.9000 -1.5530 -1.7412
 3500TIP3   OH231990   1.943   3.473   3.418  0.3419 -0.2763  0.0843
 3500TIP3    H131991   1.986   3.446   3.499  1.3804 -0.4042 -0.4886
 3500TIP3    H231992   1.852   3.491   3.443  0.5135 -0.8522  1.1600
 3501TIP3   OH231993   4.599   3.336   0.296 -0.6327 -0.1407 -0.2805
 3501TIP3    H131994   4.527   3.382   0.339 -0.3274 -1.9187  2.3708
 3501TIP3    H231995   4.557   3.268   0.244 -1.0037  1.9789 -2.9441
 3502TIP3   OH231996   6.506   0.702   4.777  0.3489 -0.2375 -0.2254
 3502TIP3    H131997   6.448   0.644   4.728  1.4699 -1.5918 -0.0163
 3502TIP3    H231998   6.570   0.732   4.713 -0.8043  1.6494 -0.5688
 3503TIP3   OH231999   6.602   1.809  15.132 -0.1216 -0.6720 -0.0377
 3503TIP3    H132000   6.657   1.806  15.210 -0.9706 -1.4484  0.5452
 3503TIP3    H232001   6.643   1.876  15.077 -0.2017  0.7804  1.5838
 3504TIP3   OH232002   4.592   3.685   2.412  0.2203 -0.1307  0.5590
 3504TIP3    H132003   4.613   3.685   2.505 -1.4702 -2.0291  1.0223
 3504TIP3    H232004   4.572   3.594   2.392  2.8023 -0.2443 -2.2814
 3505TIP3   OH232005   5.598   2.712  16.633 -0.1235 -0.0076  0.1220
 3505TIP3    H132006   5.655   2.670  16.568  0.4666  0.1476  0.5346
 3505TIP3    H232007   5.605   2.657  16.711 -0.3264  0.1645  0.2641
 3506TIP3   OH232008   0.366   6.003   0.053  0.5175  0.2312 -0.8864
 3506TIP3    H132009   0.362   5.983   0.147 -1.4550  0.5028 -0.8667
 3506TIP3    H232010   0.447   6.052   0.043  0.9320 -0.0797  0.6303
 3507TIP3   OH232011   1.509   5.051   0.004 -0.2544 -0.5986 -0.1183
 3507TIP3    H132012   1.474   4.983   0.063  1.0753  0.2348  1.7171
 3507TIP3    H232013   1.541   5.119   0.063  0.3025  0.7108 -1.8757
 3508TIP3   OH232014   0.941   0.165  15.851 -0.7321 -0.8166  0.2411
 3508TIP3    H132015   0.916   0.243  15.902  3.2035  0.2023  0.8988
 3508TIP3    H232016   0.892   0.175  15.769  0.7162  3.3335 -0.3680
 3509TIP3   OH232017   4.280   3.304  16.611 -0.4278  0.8625  0.0029
 3509TIP3    H132018   4.315   3.232  16.559 -0.8512  1.7226 -1.5427
 3509TIP3    H232019   4.202   3.268  16.653  1.1334 -0.5016  1.9351
 3510TIP3   OH232020   0.028   0.266  17.062 -1.0330 -0.0286 -0.1978
 3510TIP3    H132021  -0.000   0.188  17.111 -0.3483 -0.6825 -0.8190
 3510TIP3    H232022  -0.039   0.332  17.082 -2.0128 -0.9844 -0.2045
 3511TIP3   OH232023   2.964   2.812   5.227  0.2256 -0.0185  0.2939
 3511TIP3    H132024   2.935   2.873   5.159 -0.1867 -0.2805  0.2275
 3511TIP3    H232025   2.992   2.734   5.179  0.3409 -0.0417  0.4009
 3512TIP3   OH232026   1.176   0.872   1.211  0.6054 -0.2671  0.3353
 3512TIP3    H132027   1.127   0.806   1.163  0.5198  0.7368 -1.0158
 3512TIP3    H232028   1.146   0.864   1.301 -0.1671 -1.3542 -0.0029
 3513TIP3   OH232029   3.354   0.046  16.625  0.0620  0.7215 -0.4181
 3513TIP3    H132030   3.320   0.134  16.607 -0.5300  0.3368 -1.1716
 3513TIP3    H232031   3.288  -0.014  16.590 -0.8608 -0.0816  2.3807
 3514TIP3   OH232032   6.238   5.662   3.835  0.1759  0.1465  0.2442
 3514TIP3    H132033   6.168   5.597   3.825 -0.7512  1.3327 -1.4940
 3514TIP3    H232034   6.277   5.642   3.920 -2.8878 -0.0148  1.7721
 3515TIP3   OH232035   6.650   5.852   5.412 -0.3093  0.3381 -0.2131
 3515TIP3    H132036   6.598   5.863   5.491  1.7869 -0.2188  1.3469
 3515TIP3    H232037   6.736   5.823   5.444 -0.3043 -3.1904 -2.8942
 3516TIP3   OH232038   6.294   3.872  16.631  0.3544 -0.0575  0.0864
 3516TIP3    H132039   6.326   3.938  16.692  0.0688 -1.5563  1.9413
 3516TIP3    H232040   6.219   3.914  16.589 -0.1832  0.6342  1.6464
 3517TIP3   OH232041   4.774   6.321   0.119 -0.7620 -0.0874  1.0009
 3517TIP3    H132042   4.864   6.342   0.145  0.0570  0.0808 -1.7203
 3517TIP3    H232043   4.775   6.227   0.100 -0.8932  0.0928  0.0475
 3518TIP3   OH232044   5.097   1.858   4.433  0.3502 -0.1619 -0.3375
 3518TIP3    H132045   5.028   1.900   4.382 -1.1880 -0.1615  1.6081
 3518TIP3    H232046   5.177   1.873   4.383 -0.8691  0.8964 -2.0702
 3519TIP3   OH232047   4.816   6.570  11.921  0.0013  0.4167  0.0052
 3519TIP3    H132048   4.868   6.558  11.841 -0.5509 -0.6123 -0.2231
 3519TIP3    H232049   4.868   6.630  11.975  1.9066 -1.2786  0.1713
 3520TIP3   OH232050   6.499   0.335  14.547  0.0300  0.6535 -0.0725
 3520TIP3    H132051   6.430   0.400  14.549  0.5401  1.1886  1.7142
 3520TIP3    H232052   6.554   0.355  14.623  2.0652  0.1534 -1.3168
 3521TIP3   OH232053   1.441   1.267   2.823 -0.2321  0.2130  0.0896
 3521TIP3    H132054   1.348   1.244   2.831 -0.0803 -0.5278 -0.1718
 3521TIP3    H232055   1.464   1.304   2.908 -0.6707  0.0480  0.2854
 3522TIP3   OH232056   0.825   1.170  13.796 -0.7630  0.5978  0.0961
 3522TIP3    H132057   0.843   1.081  13.824  0.3553  0.6845 -0.2822
 3522TIP3    H232058   0.911   1.208  13.781 -1.2456  1.5114 -0.4547
 3523TIP3   OH232059   1.005   2.443  16.603 -0.9301  0.1259 -0.7610
 3523TIP3    H132060   0.954   2.441  16.522 -2.5299  0.8528  0.1861
 3523TIP3    H232061   1.090   2.478  16.576 -1.3941  0.2810 -2.1417
 3524TIP3   OH232062   2.373   3.352   4.107  0.3952 -0.2028 -0.0877
 3524TIP3    H132063   2.312   3.284   4.134  0.1085  0.5944  1.3383
 3524TIP3    H232064   2.436   3.358   4.178 -0.2185  1.7711  0.3534
 3525TIP3   OH232065   4.026   4.275  13.905 -0.2018 -0.9329  0.0075
 3525TIP3    H132066   4.081   4.199  13.887  0.0651 -0.4368 -1.4434
 3525TIP3    H232067   3.988   4.297  13.820 -0.8011  0.1569  0.5367
 3526TIP3   OH232068   6.129   3.130  13.810 -0.4278 -0.1067 -0.7317
 3526TIP3    H132069   6.164   3.066  13.872 -0.5969  2.2552  1.9979
 3526TIP3    H232070   6.195   3.135  13.741  0.8751 -1.2340  0.3770
 3527TIP3   OH232071   0.859   3.018  16.056 -0.2635 -0.1203  0.0799
 3527TIP3    H132072   0.901   2.976  16.132  1.4360 -0.1837 -0.8528
 3527TIP3    H232073   0.811   2.947  16.014  0.1579 -0.4606  0.1649
 3528TIP3   OH232074   0.629   3.044  15.583  0.2848  0.1560  0.2296
 3528TIP3    H132075   0.551   3.031  15.637  1.6007 -0.3740  2.1112
 3528TIP3    H232076   0.616   3.131  15.544 -0.7701  0.5305  1.3310
 3529TIP3   OH232077   5.692   1.930   4.776  0.0233  0.0207  0.0012
 3529TIP3    H132078   5.782   1.903   4.795  0.7446  2.2355 -0.0223
 3529TIP3    H232079   5.661   1.966   4.859  0.0352  1.4769 -0.6012
 3530TIP3   OH232080   4.621   6.593   5.191 -0.3447  0.2991 -0.0765
 3530TIP3    H132081   4.627   6.607   5.286 -0.1123 -0.0794 -0.0302
 3530TIP3    H232082   4.612   6.680   5.154 -0.7364  0.4313  0.3157
 3531TIP3   OH232083   0.403   5.694   5.657  0.0878  0.3313 -0.2739
 3531TIP3    H132084   0.327   5.700   5.715  1.8370 -2.6588  2.7525
 3531TIP3    H232085   0.395   5.607   5.617  0.3692  1.2575 -2.4501
 3532TIP3   OH232086   5.627   0.663  13.027 -0.2213 -0.0277  0.8406
 3532TIP3    H132087   5.636   0.653  13.122 -1.6337  0.4415  1.0414
 3532TIP3    H232088   5.550   0.610  13.004 -1.2029  1.5638  0.2970
 3533TIP3   OH232089   5.258   3.738  14.449 -0.0017 -0.1237  0.2453
 3533TIP3    H132090   5.228   3.824  14.478 -1.2344 -0.4555  0.0142
 3533TIP3    H232091   5.353   3.739  14.464  0.4725  2.2046 -2.0618
 3534TIP3   OH232092   3.997   4.531   3.399  0.0725  0.4151  0.3154
 3534TIP3    H132093   4.047   4.485   3.332  0.0893  2.0959 -0.9024
 3534TIP3    H232094   4.005   4.624   3.376  2.0823  1.3753  3.9792
 3535TIP3   OH232095   3.942   0.930   4.087 -0.0597  0.3694 -0.4106
 3535TIP3    H132096   4.037   0.924   4.090 -0.1060 -0.3628 -0.2336
 3535TIP3    H232097   3.924   1.023   4.070  0.6730  0.5718 -0.1016
 3536TIP3   OH232098   5.637   1.052  15.723 -0.6484 -0.1979  0.2503
 3536TIP3    H132099   5.577   1.049  15.649 -1.3781  1.5781  0.7262
 3536TIP3    H232100   5.711   1.104  15.692 -0.0205 -1.1114  0.1605
 3537TIP3   OH232101   1.160   0.595  15.701  0.2779 -0.3435 -1.0821
 3537TIP3    H132102   1.165   0.500  15.698 -0.9970 -0.4050 -1.4255
 3537TIP3    H232103   1.185   0.623  15.613 -0.3402 -0.4072 -1.2772
 3538TIP3   OH232104   5.518   0.621   4.354 -0.1204  0.3810 -0.1273
 3538TIP3    H132105   5.473   0.593   4.274  0.7391 -1.8874  0.1287
 3538TIP3    H232106   5.464   0.588   4.425  0.3097  0.4207  0.2189
 3539TIP3   OH232107   2.179   5.429   5.284  0.2277  0.2250  0.0891
 3539TIP3    H132108   2.122   5.377   5.341 -0.1194 -0.7007 -1.0499
 3539TIP3    H232109   2.264   5.386   5.290  1.2154  2.3097  2.7210
 3540TIP3   OH232110   2.168   1.817  12.663 -0.5378 -0.0478 -0.0132
 3540TIP3    H132111   2.131   1.741  12.619 -1.7543 -0.3985  1.5385
 3540TIP3    H232112   2.101   1.845  12.725  1.2533  0.1185  1.9564
 3541TIP3   OH232113   0.721   1.146  15.721  0.0365 -0.1045 -0.5329
 3541TIP3    H132114   0.746   1.211  15.786  1.4075 -0.5919 -0.5243
 3541TIP3    H232115   0.793   1.082  15.723 -1.4216 -1.8073 -0.2974
 3542TIP3   OH232116   2.780   6.610   6.035 -0.5015 -0.5732 -0.2088
 3542TIP3    H132117   2.818   6.523   6.030  0.4617 -0.1014 -1.6290
 3542TIP3    H232118   2.730   6.610   6.117  2.4323 -1.2689  1.7271
 3543TIP3   OH232119   3.687   2.825  10.530 -0.6633 -0.0827  0.7534
 3543TIP3    H132120   3.737   2.750  10.499 -2.7613 -1.6415  0.9585
 3543TIP3    H232121   3.747   2.899  10.519  1.0018 -1.5454 -0.7316
 3544TIP3   OH232122   3.360   1.407   1.829  0.0013  0.5988  0.2578
 3544TIP3    H132123   3.441   1.442   1.792 -0.6502  3.2546  1.0827
 3544TIP3    H232124   3.362   1.433   1.921 -1.4286  0.0201  0.4817
 3545TIP3   OH232125   1.495   5.377   1.364  0.1562 -0.2074 -0.0979
 3545TIP3    H132126   1.579   5.381   1.410  0.1990 -3.0590  0.2539
 3545TIP3    H232127   1.449   5.303   1.405 -1.8157  0.2143 -1.4347
 3546TIP3   OH232128   1.037   2.046   3.348 -0.1694  0.4771  0.6337
 3546TIP3    H132129   0.998   2.126   3.382 -0.5361 -0.4943  2.5994
 3546TIP3    H232130   1.001   2.038   3.259  0.0075  2.5337  0.3321
 3547TIP3   OH232131   3.719   0.802  12.963 -0.5755 -0.5009  1.2338
 3547TIP3    H132132   3.788   0.743  12.993 -0.8382 -1.1880  0.5104
 3547TIP3    H232133   3.766   0.876  12.925 -0.2074 -1.4748 -0.2664
 3548TIP3   OH232134   6.542   6.029   1.814  0.8669 -0.1413 -0.4151
 3548TIP3    H132135   6.460   5.987   1.789  1.7981 -1.3602 -1.5617
 3548TIP3    H232136   6.573   6.070   1.733  1.2675  0.5138  0.0665
 3549TIP3   OH232137   1.061   1.811   2.233  0.3915  0.2934 -0.1426
 3549TIP3    H132138   0.984   1.832   2.287  0.4858 -0.4352  0.2861
 3549TIP3    H232139   1.027   1.804   2.144 -0.3806 -1.6776  0.2495
 3550TIP3   OH232140   2.864   5.825  13.064 -0.6910 -0.2736 -0.2477
 3550TIP3    H132141   2.944   5.778  13.040 -0.5553 -0.6557  0.8746
 3550TIP3    H232142   2.850   5.802  13.156 -1.7675  0.2611 -0.2646
 3551TIP3   OH232143   2.646   1.474   4.156  0.1134 -0.2127  0.2211
 3551TIP3    H132144   2.557   1.498   4.182 -0.4323 -1.2240 -0.6300
 3551TIP3    H232145   2.687   1.444   4.236 -1.1401 -2.1066  0.2298
 3552TIP3   OH232146   6.552   6.418   0.702  0.2938 -0.1717  0.1712
 3552TIP3    H132147   6.592   6.497   0.740  1.4103 -1.0600  0.9198
 3552TIP3    H232148   6.616   6.387   0.638 -0.0370 -0.6018  0.0456
 3553TIP3   OH232149   2.688   1.732  12.936 -0.0571 -0.7805 -0.3654
 3553TIP3    H132150   2.604   1.689  12.952 -1.0874  0.8862 -1.0092
 3553TIP3    H232151   2.696   1.796  13.006 -0.5261  0.7224 -1.6160
 3554TIP3   OH232152   1.689   5.399  11.715  0.8234  0.7098 -0.0300
 3554TIP3    H132153   1.610   5.416  11.664  1.1134  0.1215 -0.6844
 3554TIP3    H232154   1.662   5.335  11.780  0.4466  1.4835  0.5911
 3555TIP3   OH232155   0.788   3.007  12.921 -0.2808 -0.1456  0.6798
 3555TIP3    H132156   0.721   2.969  12.864 -0.6082  1.3725  0.0220
 3555TIP3    H232157   0.775   3.101  12.915  1.6249  0.1773  0.9057
 3556TIP3   OH232158   3.301   2.151  15.044 -0.3685  0.1172 -0.3978
 3556TIP3    H132159   3.362   2.079  15.028 -0.8190 -0.1191 -1.1011
 3556TIP3    H232160   3.244   2.119  15.114  1.0794  0.8262  1.1809
 3557TIP3   OH232161   0.975   0.976  12.361  0.4584 -0.0063 -0.0412
 3557TIP3    H132162   1.033   1.014  12.295 -1.5670  0.9846 -1.3673
 3557TIP3    H232163   0.890   0.970  12.317 -0.4260 -1.5608  1.7474
 3558TIP3   OH232164   0.632   6.542  11.318 -0.0187 -0.1124  0.0432
 3558TIP3    H132165   0.707   6.482  11.316 -1.1481 -1.6602  1.3884
 3558TIP3    H232166   0.591   6.533  11.233  1.2431  0.6983 -0.6826
 3559TIP3   OH232167   2.765   0.324   2.119 -0.4090  0.8007 -0.9522
 3559TIP3    H132168   2.800   0.375   2.046  0.5284  1.2105 -0.2247
 3559TIP3    H232169   2.815   0.242   2.116 -0.0343  1.0097 -0.4846
 3560TIP3   OH232170   2.682   5.869  16.842  0.5285  0.6071 -0.2991
 3560TIP3    H132171   2.749   5.800  16.836 -1.2003 -1.3980  1.6512
 3560TIP3    H232172   2.701   5.914  16.924  0.0542  0.6387 -0.2044
 3561TIP3   OH232173   2.876   5.467  14.454  0.6951 -0.5564 -0.1185
 3561TIP3    H132174   2.809   5.502  14.396  1.4496  1.2406  0.0213
 3561TIP3    H232175   2.919   5.545  14.490 -0.5371 -1.4443  3.8420
 3562TIP3   OH232176   5.189   5.307  12.847  0.0628  0.0023 -0.0999
 3562TIP3    H132177   5.100   5.288  12.876 -0.7976  1.3744 -1.7016
 3562TIP3    H232178   5.245   5.275  12.918 -1.6616 -1.2961  0.7354
 3563TIP3   OH232179   1.044   1.169  16.224 -0.3415  0.8026 -0.0470
 3563TIP3    H132180   0.972   1.187  16.164 -1.8733  0.3974  1.5606
 3563TIP3    H232181   1.052   1.249  16.277  0.2006  0.7440 -0.0352
 3564TIP3   OH232182   3.160   1.451   2.655 -0.7615 -0.2316  0.5858
 3564TIP3    H132183   3.234   1.482   2.603 -0.6267  0.4903  1.1769
 3564TIP3    H232184   3.188   1.366   2.689 -0.9146 -0.7875 -0.6210
 3565TIP3   OH232185   6.099   5.801  16.670 -0.8122  0.1855 -0.2667
 3565TIP3    H132186   6.040   5.843  16.733  0.8173  1.6351  0.3753
 3565TIP3    H232187   6.184   5.840  16.688  0.4300 -2.0581 -0.9383
 3566TIP3   OH232188   0.071   1.287   0.606  0.4719  0.2196 -0.0719
 3566TIP3    H132189  -0.008   1.240   0.631  1.0395  0.1972  1.8309
 3566TIP3    H232190   0.140   1.247   0.659  1.2189  2.2148  0.5336
 3567TIP3   OH232191   4.635   4.814   4.574 -0.3231 -0.2493 -0.0843
 3567TIP3    H132192   4.645   4.850   4.662  0.5475  0.9578 -0.6500
 3567TIP3    H232193   4.544   4.829   4.551  0.0700  1.8799 -0.3966
 3568TIP3   OH232194   1.567   1.209   1.465  0.8924 -0.2761  0.1117
 3568TIP3    H132195   1.536   1.299   1.477  0.5217 -0.4420  0.3818
 3568TIP3    H232196   1.528   1.182   1.381  0.1012 -0.5667  0.5626
 3569TIP3   OH232197   4.771   6.539   2.409 -0.2260  0.1904 -0.1896
 3569TIP3    H132198   4.758   6.614   2.468  1.4280 -0.1905  0.7121
 3569TIP3    H232199   4.856   6.555   2.368 -1.2944  0.4034 -2.4831
 3570TIP3   OH232200   5.057   0.777  14.195  0.4936 -0.2227 -0.2970
 3570TIP3    H132201   5.137   0.828  14.187 -0.3170  1.0027 -1.0983
 3570TIP3    H232202   4.987   0.839  14.175 -0.5767 -1.5342 -0.8365
 3571TIP3   OH232203   5.404   5.807   1.766  0.1815  0.3782 -0.0629
 3571TIP3    H132204   5.430   5.793   1.675 -1.2747  0.2265 -0.4796
 3571TIP3    H232205   5.323   5.757   1.776  0.2142  0.5575  1.2610
 3572TIP3   OH232206   0.896   1.527  16.567 -0.2589 -0.5231 -0.0208
 3572TIP3    H132207   0.866   1.436  16.574 -0.2494 -0.5728 -0.5747
 3572TIP3    H232208   0.991   1.520  16.563 -0.2804 -0.5367 -0.6534
 3573TIP3   OH232209   5.906   4.374  12.782  0.1655 -0.2555 -0.2703
 3573TIP3    H132210   5.858   4.421  12.850  0.2700 -0.6859  0.1034
 3573TIP3    H232211   5.950   4.303  12.828  2.7511  1.2412 -0.2751
 3574TIP3   OH232212   5.194   4.195   0.381 -0.1580 -0.2670  0.0972
 3574TIP3    H132213   5.114   4.143   0.381  0.5567 -1.4050  0.6485
 3574TIP3    H232214   5.264   4.131   0.368  0.7582  0.5540  0.8753
 3575TIP3   OH232215   6.628   5.382  15.432  0.0173  0.8739 -0.0630
 3575TIP3    H132216   6.607   5.422  15.516  0.4064  0.6562  0.1440
 3575TIP3    H232217   6.603   5.290  15.443 -0.1516  0.8957 -0.2656
 3576TIP3   OH232218   1.128   0.295  13.611  0.2285 -0.7760 -0.3781
 3576TIP3    H132219   1.135   0.358  13.683  0.6198 -1.4583  0.1974
 3576TIP3    H232220   1.210   0.246  13.614 -0.6192 -2.2387  0.0754
 3577TIP3   OH232221   1.505   6.705  14.415 -0.4034 -0.1977 -0.5550
 3577TIP3    H132222   1.580   6.751  14.451  0.7366 -2.2905 -0.0712
 3577TIP3    H232223   1.434   6.769  14.416  1.3059  1.8191 -0.9088
 3578TIP3   OH232224   5.177   1.967  14.202 -0.1638  0.5006  1.0240
 3578TIP3    H132225   5.129   2.012  14.132  2.0405  2.0493  0.4116
 3578TIP3    H232226   5.142   2.006  14.283 -1.8997 -0.4584  0.7758
 3579TIP3   OH232227   4.122   4.471   0.964 -0.0368 -0.0348  0.4423
 3579TIP3    H132228   4.131   4.564   0.947  0.6895 -0.1532  0.1672
 3579TIP3    H232229   4.035   4.449   0.929  0.7400  0.0665 -1.6726
 3580TIP3   OH232230   1.713   3.138  13.906 -0.3706  0.6330 -0.2713
 3580TIP3    H132231   1.723   3.223  13.864  0.0658  1.4697  1.4353
 3580TIP3    H232232   1.769   3.143  13.984  1.5109 -2.0407 -1.3060
 3581TIP3   OH232233   2.745   4.549  13.121 -0.6407 -0.4044 -0.2354
 3581TIP3    H132234   2.834   4.516  13.115  0.6203  2.2086  1.8442
 3581TIP3    H232235   2.723   4.542  13.214 -2.1224  0.1193 -0.5168
 3582TIP3   OH232236   5.044   2.134   1.622  0.0190 -0.1274  0.0586
 3582TIP3    H132237   5.082   2.214   1.659 -1.7400  1.5029 -1.4671
 3582TIP3    H232238   5.013   2.085   1.699  2.6666 -0.2792  1.1556
 3583TIP3   OH232239   3.167   3.652  16.630  0.2358  0.4342 -0.4305
 3583TIP3    H132240   3.213   3.631  16.549  1.7356 -0.9205  0.7074
 3583TIP3    H232241   3.200   3.738  16.655 -0.6485  1.1154 -1.4906
 3584TIP3   OH232242   3.241   1.927   2.706 -0.4418 -0.6238  0.1712
 3584TIP3    H132243   3.179   1.857   2.726  0.3316 -1.5391 -0.5065
 3584TIP3    H232244   3.317   1.908   2.761 -0.4477  0.0387  0.4198
 3585TIP3   OH232245   0.963   0.172   4.919 -0.1140  0.5656  0.2693
 3585TIP3    H132246   1.002   0.147   4.835  0.1819 -0.2552  0.6435
 3585TIP3    H232247   0.886   0.116   4.928  0.5678 -0.2809  1.1228
 3586TIP3   OH232248   3.289   5.410  12.392 -0.0855 -1.1938 -0.3289
 3586TIP3    H132249   3.355   5.398  12.325  0.4747 -0.7132  0.1233
 3586TIP3    H232250   3.337   5.444  12.467 -0.5727 -2.3771  0.5620
 3587TIP3   OH232251   4.662   2.393  12.498 -0.7257 -0.0637  0.6580
 3587TIP3    H132252   4.624   2.311  12.530 -1.3675  0.3121  0.8719
 3587TIP3    H232253   4.713   2.426  12.571 -0.7100 -0.1160  0.6712
 3588TIP3   OH232254   4.021   6.741  11.412 -0.3565  0.3766 -0.1079
 3588TIP3    H132255   4.000   6.683  11.486  0.1148  2.8500  2.1416
 3588TIP3    H232256   3.945   6.797  11.403 -0.7644 -0.4432 -2.1755
 3589TIP3   OH232257   0.816   3.020   4.233 -0.7785  0.3980  0.0426
 3589TIP3    H132258   0.819   3.115   4.243  0.7262  0.3695  0.1176
 3589TIP3    H232259   0.843   3.005   4.142  0.4068  0.0058  0.4388
 3590TIP3   OH232260   6.538   1.801  14.414  0.4431  0.1818 -0.4841
 3590TIP3    H132261   6.528   1.831  14.504 -0.3520  0.3470 -0.6259
 3590TIP3    H232262   6.559   1.881  14.365 -3.0884  0.8679 -1.1093
 3591TIP3   OH232263   5.778   1.000   3.532 -0.4629 -0.2612 -0.1688
 3591TIP3    H132264   5.811   1.031   3.449 -2.1876  0.5295 -0.6024
 3591TIP3    H232265   5.746   1.079   3.577 -1.5690 -0.9338  0.2742
 3592TIP3   OH232266   2.043   1.542  13.292  0.0093 -0.1288 -0.4916
 3592TIP3    H132267   2.044   1.457  13.248 -0.1898 -0.7627  0.6787
 3592TIP3    H232268   2.094   1.528  13.372 -2.2183  0.0644  1.0696
 3593TIP3   OH232269   3.986   3.164  14.527  0.3440  0.1571 -0.0029
 3593TIP3    H132270   3.966   3.107  14.601  1.5905 -0.6765 -0.2786
 3593TIP3    H232271   4.077   3.191  14.541  0.2994  0.7400 -0.7443
 3594TIP3   OH232272   4.190   0.488  12.775 -0.2953 -0.0671  0.4821
 3594TIP3    H132273   4.248   0.467  12.701  0.3099 -3.1490  1.6568
 3594TIP3    H232274   4.147   0.570  12.750  1.1792 -0.0649 -2.4735
 3595TIP3   OH232275   6.705   2.959  11.514 -0.0583  0.4101 -1.3624
 3595TIP3    H132276   6.762   2.937  11.441  1.4704 -1.0420  0.1732
 3595TIP3    H232277   6.619   2.927  11.488  0.3831  0.2154 -2.6299
 3596TIP3   OH232278   0.435   5.493  15.196 -0.4480 -0.8409  0.8897
 3596TIP3    H132279   0.526   5.468  15.182 -1.0480 -1.9367 -1.7110
 3596TIP3    H232280   0.437   5.589  15.203  0.6928 -0.4709 -2.4772
 3597TIP3   OH232281   5.444   5.807   5.268  0.5420 -0.1023  0.2243
 3597TIP3    H132282   5.505   5.803   5.194  1.4052 -0.0392  0.9290
 3597TIP3    H232283   5.499   5.820   5.345 -0.4298  0.9236  0.7688
 3598TIP3   OH232284   1.860   4.354   5.687  0.1780 -0.3783  0.0918
 3598TIP3    H132285   1.766   4.368   5.671  0.2080 -1.8014 -1.6658
 3598TIP3    H232286   1.872   4.259   5.681  1.6125 -0.3072  1.1902
 3599TIP3   OH232287   1.741   5.752  11.973 -0.2943  0.1717  0.1762
 3599TIP3    H132288   1.810   5.735  12.038 -0.3985 -0.3402  0.1626
 3599TIP3    H232289   1.669   5.694  12.000  0.1251 -1.0196 -1.1241
 3600TIP3   OH232290   6.787   3.458  12.509  0.5340 -0.0971 -0.4620
 3600TIP3    H132291   6.802   3.411  12.427  0.0902 -1.3691  0.1617
 3600TIP3    H232292   6.771   3.390  12.574  1.5981  0.8450  0.8617
 3601TIP3   OH232293   4.490   2.480   0.846  0.4684 -0.0126  0.7246
 3601TIP3    H132294   4.568   2.450   0.892 -0.1928 -0.5123  1.5667
 3601TIP3    H232295   4.419   2.426   0.882 -0.1787  0.0256 -0.4304
 3602TIP3   OH232296   2.465   4.678  10.971 -0.1725 -0.2639 -0.3806
 3602TIP3    H132297   2.527   4.644  10.906 -0.0479 -0.7147 -0.0276
 3602TIP3    H232298   2.433   4.760  10.933  0.5841 -0.0636 -0.5988
 3603TIP3   OH232299   5.517   5.024   3.743 -0.1386 -0.5827 -0.6844
 3603TIP3    H132300   5.488   5.094   3.802  1.9738 -0.9095  0.8598
 3603TIP3    H232301   5.493   4.943   3.788  0.7992 -0.8369 -0.6225
 3604TIP3   OH232302   4.402   0.066  12.189 -0.1148  0.4081  0.0883
 3604TIP3    H132303   4.370   0.030  12.106  0.8923  1.7728 -0.9446
 3604TIP3    H232304   4.491   0.033  12.197 -0.5434 -0.5378  1.1673
 3605TIP3   OH232305   0.106   4.055   3.199 -0.0934  0.0605 -0.0795
 3605TIP3    H132306   0.048   3.980   3.211  0.5013 -0.3497  0.2932
 3605TIP3    H232307   0.178   4.021   3.146 -0.8304  0.9018 -1.6901
 3606TIP3   OH232308   4.347   6.499   0.975  0.0772 -0.3697  0.1664
 3606TIP3    H132309   4.259   6.490   1.012 -0.4554 -0.1860 -1.0111
 3606TIP3    H232310   4.341   6.457   0.890  0.4365  1.7430 -0.9738
 3607TIP3   OH232311   1.620   3.031  12.695 -0.3864  0.1424 -0.2494
 3607TIP3    H132312   1.568   3.109  12.714 -0.8835 -0.1045 -0.5774
 3607TIP3    H232313   1.637   2.992  12.781 -0.8698  0.1482 -0.1487
 3608TIP3   OH232314   0.811   0.776  11.590 -0.4522 -0.2487  0.4699
 3608TIP3    H132315   0.873   0.715  11.551 -0.1771  0.4629 -0.2286
 3608TIP3    H232316   0.862   0.855  11.609 -0.7552 -0.2949  1.5531
 3609TIP3   OH232317   1.590   6.438  16.545  0.1719 -0.2686  0.2219
 3609TIP3    H132318   1.515   6.493  16.524  0.3314  0.7133  2.0260
 3609TIP3    H232319   1.566   6.395  16.627  1.3533 -0.3378  0.5502
 3610TIP3   OH232320   6.020   4.622  16.406  0.0419  0.1398  0.0722
 3610TIP3    H132321   5.997   4.671  16.327  2.1957 -1.2869 -1.5597
 3610TIP3    H232322   6.054   4.539  16.374  2.6979  0.1814  2.3717
 3611TIP3   OH232323   3.037   5.495   2.322  0.0846  0.2594 -0.0063
 3611TIP3    H132324   3.063   5.555   2.252 -0.1522 -1.3297 -1.5547
 3611TIP3    H232325   3.074   5.411   2.295 -0.9860 -0.6292  1.2040
 3612TIP3   OH232326   2.523   4.430   1.852 -0.2734  0.2507 -0.5091
 3612TIP3    H132327   2.506   4.385   1.770  1.5779  3.5363 -2.9094
 3612TIP3    H232328   2.618   4.433   1.860 -0.3429  2.1686  0.3774
 3613TIP3   OH232329   1.881   2.786  14.159 -0.3425  0.0764  0.0684
 3613TIP3    H132330   1.931   2.815  14.083  1.3666  0.6574  1.3527
 3613TIP3    H232331   1.808   2.736  14.122  0.2116  0.6545 -1.9461
 3614TIP3   OH232332   3.899   6.556   4.169 -0.4925  0.9609  0.2340
 3614TIP3    H132333   3.840   6.501   4.117  0.9696 -0.3641 -0.0737
 3614TIP3    H232334   3.850   6.575   4.249 -1.3012 -0.1905  0.0288
 3615TIP3   OH232335   2.685   4.907   6.094  0.1712 -0.1262 -0.2116
 3615TIP3    H132336   2.682   4.857   6.176 -0.0348  0.7443  0.3221
 3615TIP3    H232337   2.598   4.944   6.085 -0.3566 -1.6550 -1.7649
 3616TIP3   OH232338   5.971   6.576   4.542  0.2451  0.2779 -0.3150
 3616TIP3    H132339   6.011   6.552   4.458  1.3704 -0.4387  0.3849
 3616TIP3    H232340   5.984   6.498   4.596 -2.0752  0.0476 -0.0021
 3617TIP3   OH232341   3.732   5.344   1.543  0.3641 -0.7707 -0.3679
 3617TIP3    H132342   3.810   5.348   1.599  0.4472 -1.4462 -0.4256
 3617TIP3    H232343   3.765   5.315   1.459 -0.1220 -2.4540 -0.0190
 3618TIP3   OH232344   5.244   1.956  16.757  0.1037  0.0484 -0.8310
 3618TIP3    H132345   5.150   1.967  16.773  0.3448 -0.3727  1.1801
 3618TIP3    H232346   5.251   1.946  16.662 -1.8653  0.2047 -1.0441
 3619TIP3   OH232347   6.474   4.619  12.969  0.5993  0.5443  0.1070
 3619TIP3    H132348   6.516   4.674  13.035  1.3759  0.0398  0.0491
 3619TIP3    H232349   6.546   4.589  12.913  0.0503  0.3421 -0.5064
 3620TIP3   OH232350   5.300   6.042   2.941 -0.1181 -0.1255  0.0004
 3620TIP3    H132351   5.293   6.129   2.902 -1.1296 -0.9371 -1.7849
 3620TIP3    H232352   5.305   6.058   3.035  3.0679  1.9813 -0.3722
 3621TIP3   OH232353   0.059   1.731  12.733 -0.2945 -0.3393 -0.0560
 3621TIP3    H132354   0.049   1.802  12.670  0.1883  0.2884  0.5577
 3621TIP3    H232355   0.148   1.742  12.768  0.4948 -2.3363 -1.2495
 3622TIP3   OH232356   0.462   6.652   3.487  0.3149  0.9098 -0.1879
 3622TIP3    H132357   0.447   6.570   3.440 -0.5505  1.6609 -1.2589
 3622TIP3    H232358   0.417   6.719   3.436  0.2961  1.9449  1.1044
 3623TIP3   OH232359   2.828   2.358   3.615  0.6089 -0.4052  0.2120
 3623TIP3    H132360   2.758   2.365   3.680  0.1634 -0.4080 -0.2610
 3623TIP3    H232361   2.783   2.359   3.531  1.2513  0.4947 -0.1330
 3624TIP3   OH232362   5.820   5.278   4.008 -0.5883  0.4673 -0.0337
 3624TIP3    H132363   5.909   5.299   4.033 -0.3434 -1.6199  1.0933
 3624TIP3    H232364   5.790   5.215   4.074 -1.4893 -1.9232 -2.5079
 3625TIP3   OH232365   0.461   3.373  16.896  0.1098  0.0760  0.3364
 3625TIP3    H132366   0.367   3.359  16.884 -0.0644  2.2201 -1.6362
 3625TIP3    H232367   0.502   3.295  16.857 -0.8122 -0.8448  1.1473
 3626TIP3   OH232368   0.679   4.844   4.419  0.0026 -0.5995 -0.0559
 3626TIP3    H132369   0.768   4.864   4.450  0.5421 -0.5175 -1.5672
 3626TIP3    H232370   0.665   4.752   4.444  0.0906 -0.3158  1.0948
 3627TIP3   OH232371   4.239   4.590  14.409 -0.2054  0.6144  0.5134
 3627TIP3    H132372   4.268   4.546  14.489 -0.7004 -1.9412 -0.6045
 3627TIP3    H232373   4.296   4.555  14.340 -1.9282  0.1546 -0.7520
 3628TIP3   OH232374   1.244   6.321   1.363 -0.5616 -0.2866  0.3214
 3628TIP3    H132375   1.299   6.243   1.370  0.6314  0.5048  0.0143
 3628TIP3    H232376   1.215   6.337   1.453 -3.2685 -2.7323  0.0301
 3629TIP3   OH232377   0.022   1.447   3.588  0.0754  0.1446  0.3059
 3629TIP3    H132378   0.047   1.361   3.554  1.4453  1.4604 -2.2518
 3629TIP3    H232379   0.103   1.485   3.621  0.0311  1.3950 -0.9131
 3630TIP3   OH232380   4.201   1.032   6.024 -0.2834  0.4545  0.2414
 3630TIP3    H132381   4.115   1.035   5.983 -0.4451  4.0389  0.4905
 3630TIP3    H232382   4.182   1.016   6.117 -0.6514  0.4822  0.1740
 3631TIP3   OH232383   3.660   6.697   2.228 -0.3088 -0.1708 -0.0928
 3631TIP3    H132384   3.607   6.750   2.287  0.5765  0.5301  0.0891
 3631TIP3    H232385   3.603   6.623   2.205 -1.8649  1.2401 -0.9828
 3632TIP3   OH232386   6.186   3.000   1.950 -0.2084 -0.0543 -0.7606
 3632TIP3    H132387   6.190   3.059   1.875 -0.5014  0.2493 -0.5413
 3632TIP3    H232388   6.255   3.031   2.009 -1.2686  0.9642 -0.0106
 3633TIP3   OH232389   5.587   2.308  12.522  0.2709 -0.0360 -0.7473
 3633TIP3    H132390   5.658   2.256  12.560 -0.9560 -0.4416  1.1433
 3633TIP3    H232391   5.563   2.262  12.442  2.4556  0.4102 -1.7042
 3634TIP3   OH232392   6.811   3.491  14.615 -0.3608 -0.2019 -0.1700
 3634TIP3    H132393   6.784   3.552  14.683  0.1049  1.9268 -1.7966
 3634TIP3    H232394   6.730   3.471  14.568 -0.3280  0.1011 -0.3564
 3635TIP3   OH232395   4.901   2.789   0.238  0.9741  0.0792 -0.2593
 3635TIP3    H132396   4.959   2.786   0.314 -0.9758  1.4528  1.3957
 3635TIP3    H232397   4.892   2.882   0.218 -0.1781 -0.1460 -0.8751
 3636TIP3   OH232398   1.505   3.308  13.080  0.1260 -0.9253  0.2485
 3636TIP3    H132399   1.477   3.235  13.135  2.1144 -1.8569  0.1158
 3636TIP3    H232400   1.572   3.270  13.022 -0.8376  0.3517 -1.8305
 3637TIP3   OH232401   4.737   5.820   3.155  0.4477 -0.6582 -0.6413
 3637TIP3    H132402   4.789   5.863   3.223  0.0854 -1.3499  0.0971
 3637TIP3    H232403   4.748   5.726   3.173  1.2091 -0.9002 -2.1958
 3638TIP3   OH232404   3.646   1.634  15.142 -0.0900 -0.2657  0.6864
 3638TIP3    H132405   3.563   1.602  15.106 -1.4833  1.0870  2.4853
 3638TIP3    H232406   3.650   1.596  15.230  1.0100 -0.0168  0.7550
 3639TIP3   OH232407   0.148   2.002  13.427 -0.5070 -0.1610  0.3032
 3639TIP3    H132408   0.181   1.912  13.431  0.0859 -0.0709 -1.4084
 3639TIP3    H232409   0.222   2.052  13.391 -0.3242  1.3114  2.5230
 3640TIP3   OH232410   0.337   1.179  16.850 -0.4208  0.0105  0.7011
 3640TIP3    H132411   0.294   1.097  16.828  1.4580 -1.5970  2.4768
 3640TIP3    H232412   0.266   1.240  16.869 -1.8770 -1.0142 -1.1299
 3641TIP3   OH232413   4.107   2.655  13.336  0.1663 -0.1008 -0.0958
 3641TIP3    H132414   4.089   2.645  13.242  1.0335  0.6197 -0.3498
 3641TIP3    H232415   4.182   2.714  13.340 -0.5589  0.7794  1.0993
 3642TIP3   OH232416   5.984   5.087   4.230  0.0121 -0.9788  0.3322
 3642TIP3    H132417   5.979   5.180   4.252 -0.5577 -0.6375 -1.0739
 3642TIP3    H232418   6.043   5.083   4.155 -0.7696 -1.6017 -0.2754
 3643TIP3   OH232419   5.776   4.816  15.992 -0.4695  0.0350 -0.1396
 3643TIP3    H132420   5.732   4.865  15.923 -2.0580  1.3431  1.6679
 3643TIP3    H232421   5.779   4.878  16.066 -0.5409 -1.8797  1.5427
 3644TIP3   OH232422   3.536   2.407  12.016 -0.2125  0.4415  1.1991
 3644TIP3    H132423   3.574   2.320  12.005  2.7678  1.5635  1.6934
 3644TIP3    H232424   3.501   2.429  11.929  1.3108 -0.2671  0.3635
 3645TIP3   OH232425   4.891   3.482   4.100  0.7366 -0.5028  0.2327
 3645TIP3    H132426   4.937   3.398   4.108  1.3424 -0.3029 -0.9839
 3645TIP3    H232427   4.960   3.546   4.081  0.1135  0.0145 -0.3601
 3646TIP3   OH232428   5.947   5.884   0.780 -0.2905 -0.0488  0.9296
 3646TIP3    H132429   6.036   5.909   0.806 -0.2978 -0.4128  1.3174
 3646TIP3    H232430   5.960   5.824   0.707 -0.2628  0.8357  0.1948
 3647TIP3   OH232431   0.879   2.033   0.906  0.3942  0.2036 -0.5028
 3647TIP3    H132432   0.960   1.982   0.894  1.3022  1.4098  0.2318
 3647TIP3    H232433   0.816   1.969   0.939  1.2668 -0.6244 -0.3735
 3648TIP3   OH232434   1.777   2.148   3.810  0.8277  0.8716 -0.0155
 3648TIP3    H132435   1.811   2.184   3.891  0.9563  0.6582  0.0246
 3648TIP3    H232436   1.780   2.053   3.822 -1.4897  0.8136  0.7256
 3649TIP3   OH232437   5.485   6.706   0.506 -0.7026  0.1606  0.0700
 3649TIP3    H132438   5.430   6.749   0.441 -0.9709  0.4434  0.4767
 3649TIP3    H232439   5.443   6.622   0.523 -0.4453 -0.0568 -0.3715
 3650TIP3   OH232440   5.595   1.027  14.542  0.0143 -0.6791  0.6923
 3650TIP3    H132441   5.616   0.955  14.483  2.6469  0.6751 -0.2211
 3650TIP3    H232442   5.660   1.020  14.612  0.2197  0.6521  0.6636
 3651TIP3   OH232443   1.833   3.735  14.064  0.1496 -0.2020 -0.1318
 3651TIP3    H132444   1.860   3.698  13.980 -0.1956 -1.8541  0.4634
 3651TIP3    H232445   1.748   3.776  14.046  1.6900  2.7598 -1.4079
 3652TIP3   OH232446   1.154   4.000   3.647  0.6754  0.3266 -0.2298
 3652TIP3    H132447   1.144   3.925   3.706  1.3591 -1.2940 -2.0402
 3652TIP3    H232448   1.243   4.032   3.664  0.6921  0.1821 -0.0409
 3653TIP3   OH232449   3.534   5.479  15.577 -0.2047  0.2793 -0.0679
 3653TIP3    H132450   3.584   5.501  15.655  0.2738 -0.3002 -0.2007
 3653TIP3    H232451   3.498   5.562  15.547 -1.1011  0.3870  1.2376
 3654TIP3   OH232452   6.529   0.932  11.718 -0.1338  0.3846  0.1177
 3654TIP3    H132453   6.477   0.990  11.774  0.7572  1.2269  0.1024
 3654TIP3    H232454   6.514   0.845  11.753 -0.8213  0.7187  0.6822
 3655TIP3   OH232455   0.930   3.218   1.001 -0.1681 -0.6222 -0.0868
 3655TIP3    H132456   0.865   3.240   0.935 -0.3992  1.5848  0.8038
 3655TIP3    H232457   0.880   3.191   1.078 -0.1761  2.0752  0.9502
 3656TIP3   OH232458   3.003   0.822  16.093 -0.1720 -0.3432 -0.3112
 3656TIP3    H132459   2.969   0.747  16.043 -1.2935 -0.2527  0.2694
 3656TIP3    H232460   3.034   0.883  16.027 -1.6387 -0.2212 -0.9374
 3657TIP3   OH232461   0.311   1.859   3.085  0.0937  0.3054  0.0344
 3657TIP3    H132462   0.277   1.822   3.166 -0.3941  1.4216  0.3482
 3657TIP3    H232463   0.302   1.788   3.021 -1.2030 -0.0056  0.5308
 3658TIP3   OH232464   3.425   3.463   4.173 -0.2998  0.2993  0.3360
 3658TIP3    H132465   3.476   3.489   4.097 -0.4874  0.1719  0.1661
 3658TIP3    H232466   3.437   3.368   4.178 -0.3699  0.2946  0.4078
 3659TIP3   OH232467   0.656   4.429   4.184  0.0634 -0.4295  0.3829
 3659TIP3    H132468   0.665   4.356   4.122 -1.5088 -0.9501  0.7119
 3659TIP3    H232469   0.681   4.507   4.133 -0.9216 -0.8804 -0.8420
 3660TIP3   OH232470   0.551   4.759  15.932 -0.2026  0.1627  0.4227
 3660TIP3    H132471   0.463   4.726  15.949 -0.5123 -0.2184 -1.6972
 3660TIP3    H232472   0.607   4.681  15.938 -0.0864  0.3014  1.1874
 3661TIP3   OH232473   5.538   4.983  14.451 -0.4226 -0.3055 -0.1963
 3661TIP3    H132474   5.474   4.999  14.382 -0.4594  0.8759  0.0999
 3661TIP3    H232475   5.485   4.969  14.530 -0.3388 -0.1072 -0.1047
 3662TIP3   OH232476   5.498   0.871   4.233  0.0486 -0.4723 -0.2032
 3662TIP3    H132477   5.415   0.911   4.258 -0.6723 -1.4660 -0.8903
 3662TIP3    H232478   5.490   0.780   4.263  0.3988 -0.8790 -1.2904
 3663TIP3   OH232479   3.145   4.114  10.898 -0.0561 -0.2442 -0.4772
 3663TIP3    H132480   3.230   4.126  10.857  0.8647 -3.0292  0.4133
 3663TIP3    H232481   3.089   4.081  10.828  0.3003 -0.7577 -0.5293
 3664TIP3   OH232482   5.639   4.086  11.529  0.3408  0.1244  0.0587
 3664TIP3    H132483   5.725   4.092  11.569 -0.1601 -0.7048  1.3213
 3664TIP3    H232484   5.619   4.175  11.501  1.7031  0.2752 -0.4852
 3665TIP3   OH232485   0.239   3.501   6.084  0.5054 -0.4766  0.4864
 3665TIP3    H132486   0.226   3.585   6.040  0.9420 -0.9140 -0.5137
 3665TIP3    H232487   0.205   3.515   6.172  2.3470  1.3386  0.9852
 3666TIP3   OH232488   3.855   1.855  11.977 -0.3448  0.2256  0.0237
 3666TIP3    H132489   3.934   1.825  11.932 -0.3788 -1.1182  0.7927
 3666TIP3    H232490   3.858   1.950  11.971  0.7779  0.1531 -0.8877
 3667TIP3   OH232491   5.590   6.297   3.703  0.5476 -0.2707  0.1690
 3667TIP3    H132492   5.509   6.267   3.744  1.1616  0.9215  2.4513
 3667TIP3    H232493   5.567   6.381   3.664  0.6894  0.1781  1.0156
 3668TIP3   OH232494   5.490   6.630   1.580  0.1443 -0.2404 -0.2397
 3668TIP3    H132495   5.506   6.596   1.492  2.5542 -1.5336  0.5929
 3668TIP3    H232496   5.515   6.722   1.575 -1.2272  0.0930 -1.2516
 3669TIP3   OH232497   1.890   3.713  12.055 -0.0096 -0.2152  0.5974
 3669TIP3    H132498   1.969   3.730  12.106 -0.2071 -1.0119  1.1871
 3669TIP3    H232499   1.867   3.622  12.076  0.6720 -1.0543 -1.9129
 3670TIP3   OH232500   4.019   4.181  16.998 -0.4626  0.1007  0.2244
 3670TIP3    H132501   3.952   4.203  16.933 -0.2626 -1.1898 -0.4680
 3670TIP3    H232502   4.032   4.087  16.988  1.5979  0.3297  0.1942
 3671TIP3   OH232503   1.594   2.573   0.155 -0.0633  0.0533 -0.4289
 3671TIP3    H132504   1.563   2.602   0.069  0.3983 -0.8999 -0.9390
 3671TIP3    H232505   1.526   2.514   0.186  0.2496 -0.4064 -0.6093
 3672TIP3   OH232506   2.929   3.630   3.830 -0.0633 -0.4168 -0.1129
 3672TIP3    H132507   2.844   3.612   3.790  0.2392  0.2837 -1.1188
 3672TIP3    H232508   2.910   3.642   3.923 -1.3091  1.1662 -0.5289
 3673TIP3   OH232509   6.184   2.908   6.378 -0.2608 -0.1700 -0.3209
 3673TIP3    H132510   6.104   2.858   6.364 -0.0902 -0.5029 -0.1114
 3673TIP3    H232511   6.254   2.851   6.346  0.1028 -0.7819  1.4549
 3674TIP3   OH232512   1.394   0.447   2.963 -0.3981 -0.3380 -0.1506
 3674TIP3    H132513   1.398   0.520   3.024 -2.2491 -1.0583  0.9211
 3674TIP3    H232514   1.405   0.369   3.018 -1.6630 -0.9838 -0.7679
 3675TIP3   OH232515   5.853   0.937  16.236 -0.5057  0.0766  0.7502
 3675TIP3    H132516   5.839   0.894  16.152  1.3602 -0.7119  0.7694
 3675TIP3    H232517   5.840   1.030  16.219  0.4874 -0.0013 -0.6023
 3676TIP3   OH232518   5.931   5.883  11.613  0.3648 -0.2027 -0.0865
 3676TIP3    H132519   5.867   5.937  11.659  2.1109  0.7847  1.3325
 3676TIP3    H232520   5.922   5.796  11.653 -0.3576 -0.1792 -0.1903
 3677TIP3   OH232521   2.491   2.060  14.201  0.0956  0.1653  0.0835
 3677TIP3    H132522   2.545   2.008  14.261 -0.6968  0.7699  1.3648
 3677TIP3    H232523   2.452   2.128  14.256  2.6506  3.5014 -1.8001
 3678TIP3   OH232524   1.443   3.980   2.315  0.0276 -0.0445 -0.3484
 3678TIP3    H132525   1.521   3.925   2.305  0.4601  0.1198  1.6282
 3678TIP3    H232526   1.370   3.918   2.316  0.3050 -0.3746 -0.3324
 3679TIP3   OH232527   4.437   1.346  10.785 -0.0864 -0.0023 -0.8385
 3679TIP3    H132528   4.533   1.351  10.786  0.1549 -2.1052 -3.2520
 3679TIP3    H232529   4.409   1.423  10.736  0.3142  0.8104  0.1838
 3680TIP3   OH232530   5.105   4.515   1.691 -0.0456 -0.1385  0.6174
 3680TIP3    H132531   5.197   4.538   1.684  0.0410 -0.1717  1.5682
 3680TIP3    H232532   5.063   4.591   1.731 -0.2338 -0.5356  1.1995
 3681TIP3   OH232533   0.629   3.576   4.421 -0.0982  0.1240  0.0497
 3681TIP3    H132534   0.701   3.639   4.415  1.0588 -1.0994  0.6106
 3681TIP3    H232535   0.664   3.496   4.383 -0.2349 -1.2489  2.5980
 3682TIP3   OH232536   0.497   4.285  10.606 -0.6096  0.0178  0.2518
 3682TIP3    H132537   0.576   4.336  10.624 -1.0070  0.6876  0.1377
 3682TIP3    H232538   0.446   4.291  10.686 -0.7784  0.0159  0.1450
 3683TIP3   OH232539   3.923   1.549   2.971 -0.0636  0.5085  0.2027
 3683TIP3    H132540   3.926   1.643   2.952  2.6250  1.0125  2.3929
 3683TIP3    H232541   3.955   1.543   3.061 -1.1347 -2.4694  0.4780
 3684TIP3   OH232542   5.105   4.380   4.621 -0.2500  0.2292 -0.6307
 3684TIP3    H132543   5.051   4.381   4.542 -0.2671 -2.6268 -0.7298
 3684TIP3    H232544   5.044   4.403   4.691 -1.5431 -2.3278 -0.8195
 3685TIP3   OH232545   0.506   1.398  11.728  0.4063  0.3517  0.2038
 3685TIP3    H132546   0.491   1.358  11.814 -0.6400 -0.4869 -0.3447
 3685TIP3    H232547   0.601   1.390  11.714  0.2950 -1.7038  0.2633
 3686TIP3   OH232548   0.014   3.899  16.280 -0.0377  0.3519 -0.0176
 3686TIP3    H132549   0.042   3.981  16.321 -1.8614  0.1892  1.6800
 3686TIP3    H232550  -0.049   3.927  16.213 -0.5680  0.3617  0.4779
 3687TIP3   OH232551   6.801   5.536  11.621  0.7216  0.2462  0.2954
 3687TIP3    H132552   6.792   5.483  11.700 -0.6851  1.1391  0.7811
 3687TIP3    H232553   6.815   5.473  11.550 -1.4015 -0.8554  0.7763
 3688TIP3   OH232554   5.628   3.644   3.646  0.0406  0.4020  1.0044
 3688TIP3    H132555   5.613   3.710   3.577 -0.9791  0.3763  1.1939
 3688TIP3    H232556   5.698   3.682   3.700  0.0003  0.9794  0.6597
 3689TIP3   OH232557   6.769   1.141  11.532 -0.1041 -0.6386 -0.0176
 3689TIP3    H132558   6.855   1.099  11.534 -0.7579 -2.0479  0.3639
 3689TIP3    H232559   6.708   1.068  11.524 -1.4014  0.1067  2.1861
 3690TIP3   OH232560   1.816   1.625   4.717  0.5167  0.1015 -0.5665
 3690TIP3    H132561   1.898   1.599   4.760  0.5365  0.1080 -0.6004
 3690TIP3    H232562   1.753   1.559   4.744  0.7560 -0.4344 -1.2864
 3691TIP3   OH232563   1.953   4.424   3.320 -0.6415 -0.1236  0.2625
 3691TIP3    H132564   1.897   4.497   3.293 -0.1266 -0.3208 -1.4698
 3691TIP3    H232565   1.996   4.396   3.239 -0.2712 -1.8783  1.0249
 3692TIP3   OH232566   0.369   3.394   3.172  0.0792 -0.0569 -0.1982
 3692TIP3    H132567   0.455   3.364   3.200  0.2878 -0.0268 -0.7976
 3692TIP3    H232568   0.309   3.359   3.238  0.5278 -0.2386  0.1158
 3693TIP3   OH232569   2.368   5.402  16.100  0.6099  0.5331  0.4923
 3693TIP3    H132570   2.407   5.435  16.181 -1.3518 -0.3102  1.8453
 3693TIP3    H232571   2.358   5.308  16.114  0.2768  0.3584 -0.7758
 3694TIP3   OH232572   3.063   3.316   2.501 -0.9540  0.4058 -0.0229
 3694TIP3    H132573   3.096   3.391   2.551  2.4855 -1.3509  0.6484
 3694TIP3    H232574   3.003   3.271   2.560 -0.3808  0.7780  0.8550
 3695TIP3   OH232575   5.175   0.841   0.756 -0.0822  0.3194 -0.0971
 3695TIP3    H132576   5.197   0.880   0.840  0.3098  0.9126 -0.4675
 3695TIP3    H232577   5.217   0.754   0.759  2.0165  1.2506 -0.6067
 3696TIP3   OH232578   6.046   2.263   2.593  0.8390 -0.3939 -0.2340
 3696TIP3    H132579   5.972   2.286   2.536  0.8910  1.4633  0.3704
 3696TIP3    H232580   6.005   2.221   2.669  0.6371 -1.5325 -0.9575
 3697TIP3   OH232581   0.005   2.285   5.556  0.6551  0.0724 -0.2467
 3697TIP3    H132582   0.013   2.232   5.636  1.6220 -0.5072 -0.7074
 3697TIP3    H232583   0.089   2.274   5.512  0.5986  1.4015 -0.7344
 3698TIP3   OH232584   5.332   6.511   6.301 -0.4147 -0.4325 -0.1229
 3698TIP3    H132585   5.312   6.523   6.208 -0.2192 -1.0298 -0.2459
 3698TIP3    H232586   5.342   6.600   6.335  1.1150 -0.2393 -1.0178
 3699TIP3   OH232587   1.485   5.639  16.656 -0.4136 -0.0274  0.8185
 3699TIP3    H132588   1.548   5.694  16.611 -0.6108 -1.2117 -1.0222
 3699TIP3    H232589   1.400   5.677  16.633 -0.4624  0.4560  1.7543
 3700TIP3   OH232590   0.849   1.749  13.004  0.0897  0.4992 -0.5832
 3700TIP3    H132591   0.925   1.745  13.062  0.8295  0.2716 -1.5527
 3700TIP3    H232592   0.847   1.664  12.960 -0.2571  0.7880 -1.1458
 3701TIP3   OH232593   3.554   0.729  15.870  0.2872 -0.0537  0.4730
 3701TIP3    H132594   3.633   0.733  15.817 -0.8800  1.5329 -1.2835
 3701TIP3    H232595   3.557   0.808  15.924 -1.5475  1.8635 -1.9798
 3702TIP3   OH232596   6.324   2.751   4.603  0.1537 -0.5007  0.0829
 3702TIP3    H132597   6.346   2.671   4.651  1.0935 -0.1700  0.2231
 3702TIP3    H232598   6.402   2.770   4.551 -0.0597  0.3238  0.0487
 3703TIP3   OH232599   6.162   6.469  14.494  0.4083 -0.3407 -0.4710
 3703TIP3    H132600   6.100   6.497  14.427  0.6130  2.0832  0.2514
 3703TIP3    H232601   6.109   6.460  14.573  0.2123 -2.9254 -0.8299
 3704TIP3   OH232602   6.738   1.119   4.090  0.2301 -0.7279  0.4105
 3704TIP3    H132603   6.770   1.189   4.148 -0.7118 -0.1329  0.2432
 3704TIP3    H232604   6.804   1.114   4.020  0.0280  0.4247  0.1047
 3705TIP3   OH232605   3.923   1.872  14.733  0.1707  0.3214 -0.2131
 3705TIP3    H132606   3.873   1.888  14.813  0.5524 -0.2471  0.1493
 3705TIP3    H232607   4.013   1.895  14.756  0.1244  1.0708 -0.7718
 3706TIP3   OH232608   2.449   1.599   6.068 -0.1773  0.1659  0.0972
 3706TIP3    H132609   2.445   1.691   6.041  0.4121  0.8782  2.2297
 3706TIP3    H232610   2.406   1.597   6.153  1.9436 -1.0347  1.2273
 3707TIP3   OH232611   0.298   3.804   3.371  0.3780  0.2772 -0.0055
 3707TIP3    H132612   0.253   3.722   3.350 -0.3531  0.6148  0.2079
 3707TIP3    H232613   0.230   3.860   3.409  1.4452 -0.0014  2.5274
 3708TIP3   OH232614   2.659   4.141  14.352 -0.5398 -0.6467  0.2339
 3708TIP3    H132615   2.680   4.149  14.445 -0.0778 -0.0180  0.0780
 3708TIP3    H232616   2.653   4.231  14.321  0.4548 -0.8500 -0.5967
 3709TIP3   OH232617   2.485   2.938  11.961  0.4410 -0.4883  0.0660
 3709TIP3    H132618   2.470   3.027  11.928 -0.8987 -0.1833  1.3921
 3709TIP3    H232619   2.430   2.883  11.904 -0.9150 -0.1030  0.9381
 3710TIP3   OH232620   5.011   6.327  16.950 -0.0224 -0.7445  0.3572
 3710TIP3    H132621   5.019   6.255  16.888 -0.9511 -1.1915  0.7411
 3710TIP3    H232622   4.918   6.348  16.951  0.3810  1.3054 -0.6816
 3711TIP3   OH232623   1.481   1.302  14.299 -0.4264 -0.1399  0.1450
 3711TIP3    H132624   1.511   1.373  14.357  1.5329 -2.2371  1.8939
 3711TIP3    H232625   1.389   1.291  14.321  0.0410 -0.2667  2.2793
 3712TIP3   OH232626   2.541   4.697  11.957 -0.7216 -0.1398 -0.2710
 3712TIP3    H132627   2.551   4.736  11.870 -0.5858  1.0070  0.2386
 3712TIP3    H232628   2.627   4.657  11.975 -1.2002 -1.7243 -1.2578
 3713TIP3   OH232629   1.533   1.987  16.723 -0.2308  0.3507  0.0393
 3713TIP3    H132630   1.586   1.911  16.748  0.6493  0.2294 -1.9501
 3713TIP3    H232631   1.549   1.996  16.629 -2.2824  1.4952 -0.2446
 3714TIP3   OH232632   2.150   3.028   2.562 -0.4010 -0.0356 -0.1842
 3714TIP3    H132633   2.201   2.962   2.514 -1.0686 -0.9072  0.2739
 3714TIP3    H232634   2.063   3.025   2.522 -0.2384  1.1008 -0.6414
 3715TIP3   OH232635   2.717   4.608  14.069 -0.2048  0.6156  0.6069
 3715TIP3    H132636   2.670   4.690  14.057  0.6409  1.2142  1.3111
 3715TIP3    H232637   2.756   4.614  14.156 -1.3611 -1.1644  1.3088
 3716TIP3   OH232638   6.508   5.106   5.386 -0.1924  0.7730 -0.0751
 3716TIP3    H132639   6.421   5.128   5.353 -1.4077 -1.1045  1.6213
 3716TIP3    H232640   6.534   5.181   5.439 -1.2862  0.9070  0.2990
 3717TIP3   OH232641   1.630   2.333  13.582  0.1669  0.2372  0.1801
 3717TIP3    H132642   1.715   2.375  13.565  0.4252 -0.6329 -0.7795
 3717TIP3    H232643   1.608   2.290  13.499  0.5092 -2.5419  1.4111
 3718TIP3   OH232644   4.177   5.624  15.178  0.4773 -0.3697  0.0758
 3718TIP3    H132645   4.093   5.623  15.223  0.5733  0.7396  0.3220
 3718TIP3    H232646   4.156   5.595  15.089 -0.6082  1.8867 -0.5033
 3719TIP3   OH232647   2.386   1.891  14.795 -0.5035  0.1156 -0.3316
 3719TIP3    H132648   2.480   1.893  14.815 -0.0917  1.5802 -2.1362
 3719TIP3    H232649   2.361   1.984  14.790 -1.9524 -0.2553 -0.3732
 3720TIP3   OH232650   0.609   2.681  12.860 -0.4059  0.5127 -0.2554
 3720TIP3    H132651   0.653   2.675  12.944 -0.4186  0.1436 -0.2733
 3720TIP3    H232652   0.636   2.766  12.825  0.2836  0.2976 -0.2593
 3721TIP3   OH232653   2.073   0.185  14.500 -0.6192  0.2202 -0.4315
 3721TIP3    H132654   2.164   0.156  14.491 -1.5105 -2.3576 -2.6802
 3721TIP3    H232655   2.027   0.141  14.429 -3.9800 -0.0040  1.6656
 3722TIP3   OH232656   5.122   5.850  12.284  0.6433 -0.3837 -0.4782
 3722TIP3    H132657   5.060   5.897  12.229 -1.7311 -3.1501 -0.4110
 3722TIP3    H232658   5.166   5.790  12.224 -0.6845 -2.1644  0.2313
 3723TIP3   OH232659   2.042   2.325  15.997  0.2090  0.1639 -0.7075
 3723TIP3    H132660   1.953   2.291  15.991 -0.0413  0.4023  1.1905
 3723TIP3    H232661   2.032   2.420  15.989  0.3517  0.1570 -0.9790
 3724TIP3   OH232662   3.561   5.756   4.706  0.2866 -0.0834 -0.1338
 3724TIP3    H132663   3.472   5.754   4.669 -0.3274  1.1800  1.1652
 3724TIP3    H232664   3.555   5.698   4.782  0.6892 -0.2835 -0.2549
 3725TIP3   OH232665   5.161   2.354   1.754 -0.0970 -0.3836 -0.4736
 3725TIP3    H132666   5.221   2.330   1.824 -0.5291 -0.6723 -0.1905
 3725TIP3    H232667   5.175   2.447   1.740  0.6790 -0.5298 -0.6720
 3726TIP3   OH232668   6.172   1.147  15.949  0.2742 -0.6268  0.2371
 3726TIP3    H132669   6.266   1.130  15.955  0.1400 -2.4546 -1.6271
 3726TIP3    H232670   6.151   1.193  16.030  2.5114 -1.4895  1.4092
 3727TIP3   OH232671   4.763   5.008  15.400 -0.5212  0.3776  0.3030
 3727TIP3    H132672   4.813   4.994  15.480 -0.3536 -1.1143 -0.0272
 3727TIP3    H232673   4.673   5.022  15.429 -0.4269  0.0430  0.7579
 3728TIP3   OH232674   1.285   3.002  15.414 -0.4987  0.7191  0.1268
 3728TIP3    H132675   1.375   2.987  15.384 -1.1378 -0.8384 -1.1495
 3728TIP3    H232676   1.248   3.061  15.348 -1.3734 -1.3037 -1.2820
 3729TIP3   OH232677   1.244   6.709  11.759 -0.2833  0.1746  0.0835
 3729TIP3    H132678   1.316   6.772  11.757  0.3479 -0.4180  1.8792
 3729TIP3    H232679   1.243   6.671  11.671 -0.0130  1.9369 -0.7101
 3730TIP3   OH232680   1.324   1.461  13.373  0.0616 -0.0111 -0.2621
 3730TIP3    H132681   1.342   1.463  13.279  4.0824 -0.5618  0.3038
 3730TIP3    H232682   1.383   1.526  13.411 -0.9850 -0.2524  1.9679
 3731TIP3   OH232683   1.021   3.263  15.483 -0.1508  0.1302  0.1786
 3731TIP3    H132684   1.020   3.275  15.578 -1.6493 -1.5610  0.4219
 3731TIP3    H232685   0.969   3.336  15.449 -0.3293  0.2532  0.7165
 3732TIP3   OH232686   4.922   2.866  11.177  0.2243 -0.3817 -0.1647
 3732TIP3    H132687   4.992   2.913  11.131  1.8710 -0.5278  2.0250
 3732TIP3    H232688   4.901   2.793  11.119  1.3040  0.1368 -1.2694
 3733TIP3   OH232689   6.192   4.479   2.214 -0.5447 -0.2266  0.2126
 3733TIP3    H132690   6.126   4.544   2.188  0.5045  0.8472  0.1520
 3733TIP3    H232691   6.255   4.528   2.266  0.2152 -1.2343  0.2783
 3734TIP3   OH232692   2.387   5.671  14.510 -0.1630  0.2625  0.8772
 3734TIP3    H132693   2.335   5.648  14.587 -0.0555  0.7136  1.0915
 3734TIP3    H232694   2.351   5.618  14.439  0.1915 -0.6883  1.3825
 3735TIP3   OH232695   2.634   2.355   5.910 -0.2515 -0.9153  0.6742
 3735TIP3    H132696   2.648   2.267   5.945  0.5232 -2.1507 -2.4335
 3735TIP3    H232697   2.722   2.386   5.887 -0.3520  1.2680  2.7849
 3736TIP3   OH232698   2.835   6.035   6.069  0.6694  0.4803  0.2091
 3736TIP3    H132699   2.902   6.054   6.004 -0.7660 -1.0928 -1.8536
 3736TIP3    H232700   2.877   5.971   6.127  1.4532  0.7110 -0.0792
 3737TIP3   OH232701   0.963   4.286   2.299 -0.2051 -0.3495  0.0195
 3737TIP3    H132702   0.996   4.249   2.217  0.5798  0.9491 -0.2737
 3737TIP3    H232703   1.026   4.257   2.366  0.7348  0.8744 -0.3004
 3738TIP3   OH232704   1.983   5.447   3.414  0.2784 -0.0980  0.6039
 3738TIP3    H132705   2.076   5.466   3.424  1.4401 -3.4330 -1.8748
 3738TIP3    H232706   1.969   5.371   3.471 -0.5807 -0.3647  0.0501
 3739TIP3   OH232707   2.029   0.102   3.866  0.4276  0.0842 -0.7003
 3739TIP3    H132708   2.124   0.101   3.876  0.3972 -0.6218 -0.4735
 3739TIP3    H232709   2.015   0.125   3.774  0.7896  1.4812 -0.4293
 3740TIP3   OH232710   2.983   3.439  16.514 -0.1674 -0.0308  0.2861
 3740TIP3    H132711   3.040   3.508  16.550 -1.3249  1.1869 -0.1476
 3740TIP3    H232712   2.907   3.439  16.572 -0.0946 -1.1050  0.3975
 3741TIP3   OH232713   0.015   4.455  11.202  0.0473 -0.2906  0.1995
 3741TIP3    H132714  -0.038   4.534  11.191 -0.7557 -0.5759  1.7364
 3741TIP3    H232715   0.103   4.488  11.219  0.1214  0.2159 -1.0778
 3742TIP3   OH232716   6.437   5.535   3.156  0.2270  0.3470  0.2063
 3742TIP3    H132717   6.395   5.493   3.081 -0.5295  1.1776  0.1477
 3742TIP3    H232718   6.531   5.529   3.137  0.1385 -1.1704  0.1441
 3743TIP3   OH232719   2.023   0.570  14.825  0.2327 -0.2951 -0.0334
 3743TIP3    H132720   2.004   0.481  14.856 -0.8314  0.5544  1.9548
 3743TIP3    H232721   2.052   0.616  14.903  1.3624  0.9738 -1.1588
 3744TIP3   OH232722   0.417   3.574  11.886  0.5761 -0.5420  0.0262
 3744TIP3    H132723   0.414   3.650  11.943 -0.4177 -1.2361  0.9308
 3744TIP3    H232724   0.442   3.609  11.801  0.4418  0.7468  0.4956
 3745TIP3   OH232725   2.351   5.684  11.210 -0.0618  0.4688  0.4750
 3745TIP3    H132726   2.391   5.745  11.148  0.3835 -0.1082  0.1877
 3745TIP3    H232727   2.263   5.667  11.175  0.4221 -0.3757 -0.3774
 3746TIP3   OH232728   2.941   5.723   3.371  0.3761 -0.0069 -0.4454
 3746TIP3    H132729   2.869   5.742   3.311 -0.4106 -1.8747 -0.1512
 3746TIP3    H232730   2.941   5.628   3.379 -0.0383  0.1562  3.0728
 3747TIP3   OH232731   1.691   2.313   1.799 -0.3010  0.4708  0.2319
 3747TIP3    H132732   1.607   2.358   1.811  0.2883  1.9579 -0.9292
 3747TIP3    H232733   1.743   2.373   1.745  0.3252 -1.8662 -1.9446
 3748TIP3   OH232734   3.648   3.200  16.642  0.1428  0.0397 -0.0529
 3748TIP3    H132735   3.706   3.180  16.715 -1.8390  0.9455  1.9077
 3748TIP3    H232736   3.664   3.132  16.578  1.0213 -1.6112  1.8268
 3749TIP3   OH232737   4.059   0.500  12.186 -0.6103 -0.1998 -0.1112
 3749TIP3    H132738   4.055   0.595  12.190  1.9813 -0.0440  0.9325
 3749TIP3    H232739   4.012   0.470  12.264 -0.5925  0.2747  0.0819
 3750TIP3   OH232740   3.505   4.599  11.658 -0.1576 -0.1125 -0.3131
 3750TIP3    H132741   3.535   4.690  11.664 -0.7314  0.2545 -2.3115
 3750TIP3    H232742   3.563   4.559  11.593 -1.0955 -0.6380 -0.8373
 3751TIP3   OH232743   3.692   2.281   3.690 -0.2611 -0.2270  0.7449
 3751TIP3    H132744   3.731   2.293   3.777 -0.4462 -1.1280  0.9665
 3751TIP3    H232745   3.623   2.216   3.703 -2.4439  1.8878  0.5236
 3752TIP3   OH232746   6.692   1.586   5.060 -0.6361 -0.0070  0.4043
 3752TIP3    H132747   6.647   1.619   5.137 -1.2235  1.2600 -0.4518
 3752TIP3    H232748   6.629   1.597   4.988  0.4630  0.3622 -0.5411
 3753TIP3   OH232749   1.697   0.131   4.670  0.0538  0.4628 -0.1426
 3753TIP3    H132750   1.648   0.167   4.597  0.7150  0.5669 -0.5445
 3753TIP3    H232751   1.789   0.148   4.649  0.5552 -2.6539 -1.0725
 3754TIP3   OH232752   0.983   2.488   3.036 -0.0028  0.2386  0.3099
 3754TIP3    H132753   1.059   2.431   3.051  0.3253  0.5114 -0.2819
 3754TIP3    H232754   0.912   2.428   3.013  0.0102 -0.0244  0.9344
 3755TIP3   OH232755   0.449   1.920   4.285 -0.4981 -0.0161  0.4695
 3755TIP3    H132756   0.541   1.919   4.260 -0.3553  0.9480  0.9154
 3755TIP3    H232757   0.425   2.013   4.285 -1.5997 -0.2793 -0.1007
 3756TIP3   OH232758   4.199   0.139  15.608 -0.0749 -0.2575  0.5333
 3756TIP3    H132759   4.272   0.111  15.553 -0.2263 -0.9965  0.6990
 3756TIP3    H232760   4.169   0.059  15.652 -0.6943  0.1156  0.8122
 3757TIP3   OH232761   5.221   6.519   6.062  0.1458 -0.0470 -0.3352
 3757TIP3    H132762   5.171   6.469   5.998 -2.1058  0.5462  0.8471
 3757TIP3    H232763   5.178   6.604   6.066  3.5519  1.9845 -1.9289
 3758TIP3   OH232764   3.128   3.389   5.789 -0.3695 -0.6920  0.7658
 3758TIP3    H132765   3.107   3.298   5.813  1.7911 -0.8717  2.3347
 3758TIP3    H232766   3.211   3.406   5.833 -0.3379  1.8293 -0.1220
 3759TIP3   OH232767   2.850   3.315  14.745 -0.0410 -0.2517  0.2303
 3759TIP3    H132768   2.903   3.387  14.779 -1.2813  0.2785  1.1059
 3759TIP3    H232769   2.899   3.236  14.766  1.1802  0.3088 -0.4513
 3760TIP3   OH232770   0.461   1.608   0.600 -0.3760 -0.5776  0.4840
 3760TIP3    H132771   0.538   1.664   0.590 -0.8829 -0.0233 -0.3554
 3760TIP3    H232772   0.395   1.646   0.543 -0.5743 -2.3139 -0.5257
 3761TIP3   OH232773   1.100   3.908  15.004  0.2668  0.0164 -0.9039
 3761TIP3    H132774   1.111   3.984  15.061 -2.3113 -0.1001 -0.1216
 3761TIP3    H232775   1.156   3.841  15.043 -0.3889  0.3653  0.7733
 3762TIP3   OH232776   3.058   1.549   3.942 -0.9394 -0.6964  0.4274
 3762TIP3    H132777   3.020   1.544   3.854 -0.4124  0.2576  0.1301
 3762TIP3    H232778   3.025   1.632   3.977 -0.0379 -0.3972  0.5929
 3763TIP3   OH232779   4.057   5.471   2.678  0.0951 -0.6337 -0.4057
 3763TIP3    H132780   4.070   5.566   2.674  0.5414 -0.6691  0.1726
 3763TIP3    H232781   4.080   5.446   2.767  0.7905 -1.3998 -0.7755
 3764TIP3   OH232782   0.135   1.718  13.841  0.2140 -0.0353  0.4133
 3764TIP3    H132783   0.062   1.673  13.883 -1.3338 -0.7178 -2.6602
 3764TIP3    H232784   0.096   1.796  13.802  0.6510 -1.1212 -2.4832
 3765TIP3   OH232785   1.936   1.712   0.304  0.8746  0.0772  0.1093
 3765TIP3    H132786   1.953   1.692   0.212 -0.1808 -1.3420  0.1863
 3765TIP3    H232787   2.020   1.697   0.347  1.0809 -0.4452 -0.4542
 3766TIP3   OH232788   5.497   2.011  15.638  0.4679 -0.2903  0.6175
 3766TIP3    H132789   5.577   2.002  15.689  1.8189 -1.4935 -1.5433
 3766TIP3    H232790   5.526   2.045  15.554 -1.4591  0.2302  0.1080
 3767TIP3   OH232791   3.783   3.435  13.773 -0.0570 -0.1972 -0.1094
 3767TIP3    H132792   3.793   3.373  13.701 -0.4243  1.9748 -2.1760
 3767TIP3    H232793   3.774   3.520  13.730  1.3442  1.4535  2.5642
 3768TIP3   OH232794   6.091   5.380  10.846  0.2940  0.7250  0.1764
 3768TIP3    H132795   6.154   5.349  10.911 -1.3806 -1.6717  0.7991
 3768TIP3    H232796   6.102   5.321  10.772  0.1521  1.5793 -0.5373
 3769TIP3   OH232797   5.882   2.401  14.726 -0.0819  0.1864  0.2082
 3769TIP3    H132798   5.904   2.334  14.662  0.6498 -0.0441  0.6861
 3769TIP3    H232799   5.966   2.432  14.759 -0.4173  1.1547  0.1957
 3770TIP3   OH232800   5.444   6.179  13.092  0.2076  0.2897 -0.5467
 3770TIP3    H132801   5.478   6.258  13.052 -1.1536  2.1473  1.6827
 3770TIP3    H232802   5.520   6.122  13.101  1.6269  2.0766 -0.6266
 3771TIP3   OH232803   2.911   4.981   5.207  0.2118  0.0420 -0.7789
 3771TIP3    H132804   2.893   5.016   5.120  1.4005  1.6921 -0.4122
 3771TIP3    H232805   2.824   4.969   5.246 -0.3594 -1.1149 -2.2938
 3772TIP3   OH232806   5.542   0.589   2.717 -0.2200 -0.1193 -0.1588
 3772TIP3    H132807   5.525   0.515   2.775 -0.4764 -0.6148 -0.8585
 3772TIP3    H232808   5.586   0.653   2.773  0.5058 -1.0102  0.3221
 3773TIP3   OH232809   3.824   1.687  13.074 -0.0482  0.2543  0.4926
 3773TIP3    H132810   3.920   1.684  13.073  0.0099  1.2470  1.2177
 3773TIP3    H232811   3.803   1.780  13.082 -1.1354  0.3523 -2.3793
 3774TIP3   OH232812   5.030   0.381   5.119 -0.3720 -0.0744 -0.3297
 3774TIP3    H132813   5.104   0.426   5.078 -0.9253  0.7292 -0.4600
 3774TIP3    H232814   5.069   0.303   5.158  0.6932  0.7495  0.3165
 3775TIP3   OH232815   5.584   3.839  15.398  0.1666 -0.0759  0.6460
 3775TIP3    H132816   5.620   3.771  15.342  0.7644  1.5592 -1.0534
 3775TIP3    H232817   5.497   3.857  15.362  1.0809  1.9451 -0.7568
 3776TIP3   OH232818   0.735   1.411  16.064 -0.2173  0.0991  0.2692
 3776TIP3    H132819   0.789   1.474  16.017 -0.5488  0.1175 -0.0817
 3776TIP3    H232820   0.749   1.433  16.157 -0.7978  1.0741  0.1386
 3777TIP3   OH232821   3.165   4.523  14.766  0.0948 -0.1734 -0.2294
 3777TIP3    H132822   3.168   4.435  14.729  0.6244 -0.8172  1.3008
 3777TIP3    H232823   3.077   4.531  14.802 -0.2369  0.2609 -1.0829
 3778TIP3   OH232824   6.832   0.500  10.762  0.3810 -0.1540 -0.1415
 3778TIP3    H132825   6.742   0.523  10.787  0.1127 -0.8524 -0.4442
 3778TIP3    H232826   6.881   0.503  10.844 -0.5360 -2.6663  0.5871
 3779TIP3   OH232827   2.207   3.094   1.276 -0.7549 -0.3166  0.5595
 3779TIP3    H132828   2.302   3.087   1.287 -0.5863  1.5017  0.4958
 3779TIP3    H232829   2.174   3.010   1.307  1.1337 -2.7646 -3.3219
 3780TIP3   OH232830   0.151   2.849   1.179  0.3906  0.2533 -0.2714
 3780TIP3    H132831   0.232   2.826   1.133  0.0130 -0.5645 -0.5529
 3780TIP3    H232832   0.087   2.785   1.148  0.3360 -0.9386  2.0785
 3781TIP3   OH232833   4.968   6.021  14.230 -0.9429 -0.1398 -0.1632
 3781TIP3    H132834   4.945   6.102  14.184 -1.1872  0.5885  1.1875
 3781TIP3    H232835   4.892   6.005  14.287 -0.9130 -1.3529 -0.4511
 3782TIP3   OH232836   0.053   1.030   0.411 -0.2332  0.1925 -0.4632
 3782TIP3    H132837   0.107   1.086   0.468 -1.2211  0.9797 -0.2851
 3782TIP3    H232838   0.032   0.955   0.466 -0.3380  0.4659 -0.1247
 3783TIP3   OH232839   3.262   3.979  12.500  0.7465  0.4325 -0.5161
 3783TIP3    H132840   3.179   4.023  12.515  0.1184 -0.1843 -1.9628
 3783TIP3    H232841   3.254   3.943  12.412  2.3660 -0.0551 -0.4926
 3784TIP3   OH232842   6.452   1.332   2.139  0.5319  0.1714  0.0712
 3784TIP3    H132843   6.373   1.320   2.192 -0.5184 -2.0754 -1.8012
 3784TIP3    H232844   6.521   1.289   2.190  0.1268  0.3851  0.8155
 3785TIP3   OH232845   4.097   5.125   1.981 -0.4541  0.4063 -0.4324
 3785TIP3    H132846   4.073   5.035   1.959 -0.1207  0.2390 -0.1334
 3785TIP3    H232847   4.050   5.143   2.062  0.2265  0.1591  0.0280
 3786TIP3   OH232848   5.639   3.643  12.882 -0.2568 -0.0862 -0.2170
 3786TIP3    H132849   5.659   3.553  12.905  1.1047  0.2307 -0.0755
 3786TIP3    H232850   5.592   3.636  12.798  0.0789 -0.9086 -0.3489
 3787TIP3   OH232851   3.044   3.314   0.213 -0.2801 -0.1247  0.1447
 3787TIP3    H132852   3.015   3.291   0.301 -0.3608  0.8632  0.3932
 3787TIP3    H232853   3.021   3.239   0.159  2.2622 -1.9711  1.4368
 3788TIP3   OH232854   6.244   0.051   3.557 -0.3022  0.0915 -0.0714
 3788TIP3    H132855   6.242   0.001   3.638 -0.8815 -1.3411 -0.9342
 3788TIP3    H232856   6.238   0.142   3.585  4.5518  0.1109  1.7886
 3789TIP3   OH232857   5.559   6.848   3.951 -0.4825  0.2702  0.5794
 3789TIP3    H132858   5.612   6.795   4.010 -0.9120  0.5668  1.2426
 3789TIP3    H232859   5.614   6.861   3.874 -0.1987 -0.7413  0.6023
 3790TIP3   OH232860   5.776   2.697   0.273 -0.3835  0.6127  0.3793
 3790TIP3    H132861   5.778   2.607   0.307 -2.4897  1.0133  1.7227
 3790TIP3    H232862   5.857   2.705   0.222 -0.8598 -2.5707 -1.1438
 3791TIP3   OH232863   0.873   2.919  15.634 -0.0720  0.6068 -0.1837
 3791TIP3    H132864   0.858   2.829  15.664 -0.8398  1.3339  1.7632
 3791TIP3    H232865   0.786   2.954  15.617  0.1299  1.3550  0.2639
 3792TIP3   OH232866   4.574   2.186  16.157 -0.1980 -0.2093  0.7431
 3792TIP3    H132867   4.669   2.192  16.146 -0.2548  1.4890  0.9557
 3792TIP3    H232868   4.540   2.270  16.126 -1.5778 -0.5386  1.2666
 3793TIP3   OH232869   6.266   5.281  11.930 -0.7559  0.3972 -0.5239
 3793TIP3    H132870   6.219   5.222  11.989 -0.4369 -0.5943 -1.2491
 3793TIP3    H232871   6.200   5.312  11.869 -1.5570  3.0196  1.4812
 3794TIP3   OH232872   5.213   5.028  16.968 -0.1912  0.1692  0.5226
 3794TIP3    H132873   5.251   5.058  17.051  1.4893 -0.5724  0.0715
 3794TIP3    H232874   5.289   5.004  16.915 -1.1619  1.5376 -1.6206
 3795TIP3   OH232875   3.090   1.397   2.942 -0.1829  0.2146 -0.3819
 3795TIP3    H132876   3.095   1.447   2.860 -0.8585  1.0581  0.0757
 3795TIP3    H232877   3.062   1.461   3.008  0.9678 -0.3063  0.6462
 3796TIP3   OH232878   2.069   1.969   5.235  0.3724 -0.0707  1.0457
 3796TIP3    H132879   2.026   1.922   5.306  0.8166 -2.1990  0.0027
 3796TIP3    H232880   2.145   1.915   5.213 -0.7718 -0.5622 -2.2809
 3797TIP3   OH232881   3.869   5.159  16.072  0.3388 -0.5840  0.4088
 3797TIP3    H132882   3.829   5.167  16.159 -1.3057 -0.1919 -0.3609
 3797TIP3    H232883   3.899   5.248  16.052  0.4516 -0.6153  0.4346
 3798TIP3   OH232884   6.136   1.672  13.251 -0.2252  0.1183 -0.4482
 3798TIP3    H132885   6.153   1.749  13.197  0.8467  0.5906  0.5110
 3798TIP3    H232886   6.072   1.701  13.315  0.1330  0.2058 -0.1247
 3799TIP3   OH232887   4.227   4.229  15.802 -0.8689 -0.0193 -0.8275
 3799TIP3    H132888   4.180   4.298  15.849 -0.7494 -1.5859  1.7716
 3799TIP3    H232889   4.271   4.275  15.730 -0.6229  2.6541  0.8985
 3800TIP3   OH232890   4.385   6.778  10.800  0.0915 -0.0596 -0.2276
 3800TIP3    H132891   4.390   6.748  10.709 -1.8278  1.1604 -0.8098
 3800TIP3    H232892   4.297   6.816  10.807  1.1215  2.1883  1.4224
 3801TIP3   OH232893   6.665   2.927   3.902 -0.0404 -0.1710  0.2037
 3801TIP3    H132894   6.625   2.892   3.982 -0.3379 -0.0228  0.1223
 3801TIP3    H232895   6.656   3.022   3.910 -0.3766 -0.1690 -0.1583
 3802TIP3   OH232896   4.928   1.761   1.096  0.3413  0.4097 -0.5931
 3802TIP3    H132897   4.885   1.799   1.173  3.1226  2.4895  0.0744
 3802TIP3    H232898   4.878   1.797   1.021 -1.0987  0.0480  0.1568
 3803TIP3   OH232899   6.630   5.408  13.654 -0.0060 -0.1607  0.2773
 3803TIP3    H132900   6.711   5.386  13.609 -0.7195 -0.3974 -0.9355
 3803TIP3    H232901   6.562   5.397  13.588 -1.0707 -0.2853  1.3532
 3804TIP3   OH232902   4.431   1.913   0.447  0.2914 -0.3614 -0.6092
 3804TIP3    H132903   4.462   1.843   0.389 -2.1009 -0.7799 -1.4683
 3804TIP3    H232904   4.464   1.993   0.406  1.9961 -0.8464 -0.2951
 3805TIP3   OH232905   0.262   4.584  11.571 -0.1957  0.5204 -0.8740
 3805TIP3    H132906   0.224   4.657  11.620 -0.2935 -2.0004  3.2173
 3805TIP3    H232907   0.340   4.559  11.620  1.2011 -0.7215 -3.5020
 3806TIP3   OH232908   0.483   1.049   2.411  0.7572  0.1689 -0.3641
 3806TIP3    H132909   0.474   0.981   2.477 -0.5356 -1.0493 -1.7273
 3806TIP3    H232910   0.410   1.108   2.426 -0.9603 -1.3913 -2.0553
 3807TIP3   OH232911   3.596   3.423   1.127  0.3077  0.4409  0.2334
 3807TIP3    H132912   3.682   3.382   1.139 -0.8708 -1.8241  1.5640
 3807TIP3    H232913   3.611   3.490   1.060  3.1470  0.3154  0.5992
 3808TIP3   OH232914   0.452   5.401  10.250  0.1405  0.5016 -0.0556
 3808TIP3    H132915   0.387   5.389  10.181 -1.6579  0.6193  1.5146
 3808TIP3    H232916   0.495   5.315  10.257 -0.3786  0.1880 -0.6200
 3809TIP3   OH232917   6.365   2.303  14.442  0.8452  0.4658  0.5347
 3809TIP3    H132918   6.315   2.361  14.384 -0.1295  0.6555  1.5278
 3809TIP3    H232919   6.372   2.352  14.524  0.1101 -0.7501  1.3466
 3810TIP3   OH232920   6.770   4.747   0.284  0.3735  0.0496 -0.2730
 3810TIP3    H132921   6.793   4.670   0.334  0.7792  0.4732  0.2042
 3810TIP3    H232922   6.675   4.752   0.287  0.3336 -0.5565 -0.5046
 3811TIP3   OH232923   1.652   0.301  13.251 -0.4097 -0.6305 -0.2727
 3811TIP3    H132924   1.591   0.258  13.311 -0.0973 -1.1686 -0.3268
 3811TIP3    H232925   1.645   0.394  13.271 -1.5025 -0.6461 -0.5083
 3812TIP3   OH232926   0.437   3.025  16.988 -0.1734  0.0381  0.2925
 3812TIP3    H132927   0.346   3.002  16.968 -0.1156 -0.0854  0.1671
 3812TIP3    H232928   0.464   3.081  16.915  0.3355 -1.1776 -0.4769
 3813TIP3   OH232929   6.065   2.041  15.853 -0.2829 -0.6964 -0.0539
 3813TIP3    H132930   6.080   2.044  15.948  0.7092  0.3483 -0.2125
 3813TIP3    H232931   5.993   1.980  15.842 -0.8994 -0.2920  1.4393
 3814TIP3   OH232932   6.230   6.829  14.513 -0.0093  0.1222  0.1262
 3814TIP3    H132933   6.324   6.831  14.495  0.3526 -0.0781  1.7812
 3814TIP3    H232934   6.219   6.755  14.573 -1.5005 -0.8972 -1.3367
 3815TIP3   OH232935   5.578   0.899  13.228 -0.1606  0.0629  0.3075
 3815TIP3    H132936   5.559   0.988  13.256 -1.6489 -0.3681  0.7663
 3815TIP3    H232937   5.663   0.905  13.184  0.7952  1.3066  2.1911
 3816TIP3   OH232938   0.216   1.757   3.328  0.2633  0.1587  0.5780
 3816TIP3    H132939   0.283   1.711   3.378 -0.9865 -0.8478  1.4198
 3816TIP3    H232940   0.164   1.802   3.395 -0.7514 -0.2711  0.1066
 3817TIP3   OH232941   1.964   0.239   3.349  0.3632 -0.0478  0.5263
 3817TIP3    H132942   2.039   0.182   3.332  2.1878  2.0753  0.9805
 3817TIP3    H232943   1.906   0.224   3.274  1.5885 -1.1876 -0.2495
 3818TIP3   OH232944   2.623   1.277  10.716  0.0612  0.6272  0.5030
 3818TIP3    H132945   2.587   1.199  10.757  0.8714  1.5601  3.1925
 3818TIP3    H232946   2.717   1.260  10.711 -0.0818  0.2128 -1.8480
 3819TIP3   OH232947   3.256   4.496  11.371  0.4215 -0.2216 -0.2979
 3819TIP3    H132948   3.318   4.437  11.414 -1.1295 -0.0153  2.4902
 3819TIP3    H232949   3.207   4.440  11.312 -0.3243 -1.6227  1.5391
 3820TIP3   OH232950   4.028   3.935   6.078 -0.7488 -0.0494 -0.2452
 3820TIP3    H132951   4.046   3.928   6.171 -1.3660 -0.7754 -0.1730
 3820TIP3    H232952   3.994   3.849   6.053 -2.8363  0.8186 -0.6422
 3821TIP3   OH232953   1.459   5.964   1.586 -0.3869  0.4100 -0.5272
 3821TIP3    H132954   1.525   5.909   1.627  2.5718  3.4212 -0.7738
 3821TIP3    H232955   1.378   5.913   1.591  1.0393 -1.9213  3.4135
 3822TIP3   OH232956   4.883   0.206   1.961  0.5581 -0.4863 -0.0381
 3822TIP3    H132957   4.841   0.251   1.887  1.0284 -0.4422 -0.2802
 3822TIP3    H232958   4.936   0.137   1.921 -0.3358 -1.4308  0.3383
 3823TIP3   OH232959   6.557   4.201  13.053  0.1895  0.4860  0.4682
 3823TIP3    H132960   6.650   4.204  13.033  0.2687 -1.4496  0.3475
 3823TIP3    H232961   6.514   4.226  12.972  0.5937 -0.4158 -0.0310
 3824TIP3   OH232962   1.467   0.001   5.184  0.5030  0.1487 -0.6864
 3824TIP3    H132963   1.397  -0.040   5.234  1.0415  2.5379  2.3209
 3824TIP3    H232964   1.425   0.029   5.103 -2.3084  2.0410  1.2362
 3825TIP3   OH232965   1.854   4.465   4.911 -0.6713  0.4771 -0.1357
 3825TIP3    H132966   1.932   4.474   4.966 -1.2232  1.4719  0.5216
 3825TIP3    H232967   1.782   4.496   4.966 -1.3730  0.6223 -1.1020
 3826TIP3   OH232968   0.432   3.315   1.654  0.0338  0.6182  0.5451
 3826TIP3    H132969   0.467   3.264   1.727  0.3028  0.4813  0.3229
 3826TIP3    H232970   0.404   3.249   1.591  3.3860  0.6499 -1.2206
 3827TIP3   OH232971   4.909   6.258   2.542  0.2248  0.8776  0.2101
 3827TIP3    H132972   4.828   6.296   2.577  0.9639  0.0103  3.1422
 3827TIP3    H232973   4.970   6.332   2.538 -0.9259  1.8693 -3.4014
 3828TIP3   OH232974   1.832   3.015  13.327  0.1198 -0.1906  0.4699
 3828TIP3    H132975   1.858   2.962  13.252 -1.0552 -0.1521  0.0052
 3828TIP3    H232976   1.890   2.987  13.398  1.2704 -0.1898 -0.4551
 3829TIP3   OH232977   6.666   1.741  10.502 -1.0730  0.4761 -0.2787
 3829TIP3    H132978   6.614   1.767  10.426  0.0441 -0.2242 -1.3130
 3829TIP3    H232979   6.751   1.717  10.466 -0.9119 -1.0934  1.0243
 3830TIP3   OH232980   4.095   1.974  13.812 -0.2743 -0.6433 -0.1451
 3830TIP3    H132981   4.117   1.957  13.903  1.4544 -0.7449 -0.5397
 3830TIP3    H232982   4.086   2.069  13.805 -0.0614 -0.6076  0.0711
 3831TIP3   OH232983   0.915   2.796  11.250  0.4011  0.3299 -0.2039
 3831TIP3    H132984   0.863   2.790  11.330 -0.8348  0.3461 -0.9908
 3831TIP3    H232985   0.959   2.881  11.257 -0.3065  0.6768  0.0997
 3832TIP3   OH232986   6.721   6.578  15.919  0.1783  0.3459  0.6736
 3832TIP3    H132987   6.713   6.483  15.926  0.0734  0.2969 -0.0439
 3832TIP3    H232988   6.644   6.613  15.964  1.2785  0.1614  2.7915
 3833TIP3   OH232989   6.833   4.155   1.597  0.3425 -0.2261 -0.0458
 3833TIP3    H132990   6.800   4.130   1.684 -1.2106  1.1599 -0.1763
 3833TIP3    H232991   6.885   4.080   1.569 -0.9676 -1.6606  1.1445
 3834TIP3   OH232992   2.136   0.858   6.034 -0.4516  0.2171  0.0542
 3834TIP3    H132993   2.077   0.793   5.995  0.7573 -0.3095 -0.9782
 3834TIP3    H232994   2.080   0.934   6.049 -2.2282 -1.4075  2.5184
 3835TIP3   OH232995   4.958   6.532  13.893 -0.4134 -0.5065 -0.9229
 3835TIP3    H132996   4.958   6.507  13.800 -2.3444 -1.8490 -0.6175
 3835TIP3    H232997   4.954   6.628  13.892  1.5921 -0.3770 -2.1814
 3836TIP3   OH232998   2.742   6.560   1.359 -0.3988  0.4895  0.5944
 3836TIP3    H132999   2.707   6.638   1.403  1.2218  1.1170  0.8512
 3836TIP3    H233000   2.770   6.591   1.273 -0.3552  0.0435  0.4442
 3837TIP3   OH233001   5.136   5.766   3.861 -0.0397  0.1052  0.4701
 3837TIP3    H133002   5.224   5.796   3.884  0.0909 -0.8339  1.2378
 3837TIP3    H233003   5.145   5.672   3.847 -0.4769  0.3350 -1.7432
 3838TIP3   OH233004   0.929   1.375  13.562  0.5257  0.3547 -0.7114
 3838TIP3    H133005   0.996   1.419  13.614 -0.0189  1.8543 -1.2260
 3838TIP3    H233006   0.870   1.445  13.535 -0.4323 -0.7197 -1.5086
 3839TIP3   OH233007   6.027   4.748  14.824  0.0017 -0.3123 -0.2939
 3839TIP3    H133008   6.110   4.783  14.858 -0.2323  0.7039 -0.7277
 3839TIP3    H233009   6.035   4.757  14.729 -0.9203  0.5838 -0.3062
 3840TIP3   OH233010   3.193   5.323   0.523 -0.0825 -0.1841  0.1916
 3840TIP3    H133011   3.222   5.400   0.475  0.5154  0.7454  1.9984
 3840TIP3    H233012   3.273   5.277   0.546 -0.3970 -0.9400 -0.1632
 3841TIP3   OH233013   6.237   6.284   4.802  0.3287  0.7673  0.2824
 3841TIP3    H133014   6.146   6.309   4.784  0.0643  0.0369  0.5794
 3841TIP3    H233015   6.278   6.279   4.716 -0.4889 -1.0539 -0.0433
 3842TIP3   OH233016   2.170   1.502   5.481  0.0330  0.4709  0.1078
 3842TIP3    H133017   2.096   1.467   5.430 -0.5168  0.5097  0.8651
 3842TIP3    H233018   2.201   1.428   5.532 -1.4583  1.1554  2.1047
 3843TIP3   OH233019   1.368   2.007  15.429 -0.4134 -0.2263  0.1584
 3843TIP3    H133020   1.402   2.087  15.468 -0.8461 -0.6836  1.5210
 3843TIP3    H233021   1.277   2.028  15.405  0.2894  0.5371 -2.1322
 3844TIP3   OH233022   4.436   3.230   2.904  0.2646  0.0026  0.0550
 3844TIP3    H133023   4.358   3.190   2.866 -0.1836  2.7358 -2.2340
 3844TIP3    H233024   4.502   3.161   2.902 -0.4542 -0.7568 -3.6557
 3845TIP3   OH233025   0.473   3.686   2.780  0.0681 -0.1661 -0.7162
 3845TIP3    H133026   0.402   3.746   2.799  1.4589  1.4787 -0.5050
 3845TIP3    H233027   0.454   3.654   2.692  0.1635  1.9248 -1.5466
 3846TIP3   OH233028   1.758   0.642   4.777  0.4257 -0.4220 -0.1190
 3846TIP3    H133029   1.727   0.551   4.776  1.3325 -0.7642  0.9933
 3846TIP3    H233030   1.694   0.689   4.830 -0.0869 -0.3885 -0.7600
 3847TIP3   OH233031   4.492   2.066   3.500 -0.3207  0.0359  0.0925
 3847TIP3    H133032   4.515   2.140   3.444  1.0253 -0.4575 -0.0358
 3847TIP3    H233033   4.576   2.026   3.523 -0.8793 -0.1139  2.0157
 3848TIP3   OH233034   2.429   4.730   0.396 -0.1163  0.2066  0.0040
 3848TIP3    H133035   2.442   4.794   0.326  0.6391 -0.1423 -0.1864
 3848TIP3    H233036   2.492   4.755   0.463  0.9506 -0.9259 -0.5117
 3849TIP3   OH233037   5.965   2.290   5.417  0.0281  0.1315  0.1461
 3849TIP3    H133038   5.879   2.330   5.426  0.1205  0.5283 -0.6939
 3849TIP3    H233039   6.023   2.345   5.470 -0.4498 -0.8976  1.8012
 3850TIP3   OH233040   1.475   0.200  15.068  0.5869 -0.0499 -0.1618
 3850TIP3    H133041   1.423   0.239  14.998 -1.5119 -2.9628 -0.3824
 3850TIP3    H233042   1.470   0.265  15.139 -0.1747  1.4228 -1.4853
 3851TIP3   OH233043   5.272   5.568  14.960  0.2591 -0.1755 -0.0822
 3851TIP3    H133044   5.347   5.550  15.017 -1.0433 -0.5065  1.5972
 3851TIP3    H233045   5.283   5.659  14.934  0.3539  0.3108  1.5766
 3852TIP3   OH233046   5.979   6.382  12.661 -0.1597  0.2992  0.3854
 3852TIP3    H133047   5.966   6.472  12.690 -0.5801  0.0969  0.8220
 3852TIP3    H233048   5.891   6.348  12.648 -0.0103 -0.1856  0.6351
 3853TIP3   OH233049   2.578   5.551   4.953  0.2603  0.0948 -0.3242
 3853TIP3    H133050   2.555   5.629   5.005 -2.7723 -0.8190 -0.1092
 3853TIP3    H233051   2.538   5.566   4.868 -0.5265 -1.2475 -0.2242
 3854TIP3   OH233052   1.016   3.317  12.355  0.0382 -0.4079  0.2703
 3854TIP3    H133053   0.954   3.258  12.399  0.2519 -0.3347  0.6705
 3854TIP3    H233054   1.100   3.273  12.362  0.2846  0.1466  0.9767
 3855TIP3   OH233055   5.615   5.963   4.078 -0.3610  0.4107  0.2559
 3855TIP3    H133056   5.695   6.015   4.070 -0.0691 -0.0249  0.3523
 3855TIP3    H233057   5.618   5.927   4.166 -0.0739 -0.5676 -0.1363
 3856TIP3   OH233058   6.651   1.728  15.691 -0.5644 -0.0836 -0.5024
 3856TIP3    H133059   6.623   1.649  15.645  0.3704  0.6350 -2.3966
 3856TIP3    H233060   6.604   1.800  15.649 -1.8602  0.3868  1.5861
 3857TIP3   OH233061   3.165   5.932  13.241 -0.2103  0.1231  0.2392
 3857TIP3    H133062   3.082   5.947  13.196 -0.5184 -0.1368  0.7116
 3857TIP3    H233063   3.145   5.865  13.307  0.6309 -0.7634 -0.3705
 3858TIP3   OH233064   2.078   5.191  13.133 -0.0470  0.2371 -0.4830
 3858TIP3    H133065   2.100   5.116  13.078 -0.2055 -0.7960  0.8450
 3858TIP3    H233066   2.153   5.250  13.124 -0.5663  0.6858 -2.7414
 3859TIP3   OH233067   4.952   3.824  13.161 -0.6630 -0.2897  0.1778
 3859TIP3    H133068   4.926   3.739  13.196 -1.4630 -0.2666 -0.3347
 3859TIP3    H233069   4.994   3.804  13.078  0.5221 -0.2841  0.7542
 3860TIP3   OH233070   2.370   2.586   1.068  0.7021  0.4560 -0.8391
 3860TIP3    H133071   2.447   2.530   1.075  0.4925  0.2671  0.0835
 3860TIP3    H233072   2.343   2.602   1.158 -0.2933  0.5736 -1.1401
 3861TIP3   OH233073   3.679   5.515  14.642  0.7328  0.3086 -0.0261
 3861TIP3    H133074   3.691   5.583  14.708  0.2800  0.5983 -0.2362
 3861TIP3    H233075   3.609   5.549  14.586  1.2611  0.1632 -0.7805
 3862TIP3   OH233076   6.441   1.614  13.332  0.1897  0.3094  0.1394
 3862TIP3    H133077   6.486   1.543  13.285 -0.2676 -0.4748  0.8546
 3862TIP3    H233078   6.355   1.577  13.353 -0.8436  1.7810 -1.2286
 3863TIP3   OH233079   3.862   2.019   5.168  0.1753  0.3581 -0.0930
 3863TIP3    H133080   3.948   2.053   5.144 -0.0610 -0.0473 -1.6159
 3863TIP3    H233081   3.872   1.924   5.163 -0.1491  0.2826  0.5581
 3864TIP3   OH233082   4.526   3.166   3.336 -0.2798 -0.4380  0.3203
 3864TIP3    H133083   4.500   3.103   3.269 -0.5374 -2.1395  1.9224
 3864TIP3    H233084   4.597   3.123   3.384 -0.9701  0.1266  1.9460
 3865TIP3   OH233085   2.959   3.655  15.069  0.0412 -0.1943  0.4715
 3865TIP3    H133086   3.039   3.706  15.053 -0.2515 -0.1223 -0.8907
 3865TIP3    H233087   2.897   3.718  15.106 -0.1330  0.3157 -0.6638
 3866TIP3   OH233088   0.105   5.415   4.806  0.2432  0.7483  0.3147
 3866TIP3    H133089   0.106   5.421   4.902  0.1425  0.0814  0.3627
 3866TIP3    H233090   0.164   5.342   4.786 -2.1051 -1.2006  0.0650
 3867TIP3   OH233091   3.528   1.460   5.009 -0.0637  0.1235 -0.1746
 3867TIP3    H133092   3.516   1.503   5.094 -0.1289 -1.8528  0.8835
 3867TIP3    H233093   3.602   1.400   5.024 -2.1861 -2.7774 -0.3847
 3868TIP3   OH233094   0.206   2.631   1.724  0.2176 -0.1346  0.4753
 3868TIP3    H133095   0.284   2.623   1.669  0.1467 -2.4821  0.5884
 3868TIP3    H233096   0.148   2.690   1.675  0.2941 -1.8511 -1.8616
 3869TIP3   OH233097   3.176   3.100  11.472 -0.0215 -0.1137  0.2843
 3869TIP3    H133098   3.111   3.120  11.404  0.4692 -0.4754 -0.2988
 3869TIP3    H233099   3.159   3.009  11.496  1.8851 -1.0981 -1.7373
 3870TIP3   OH233100   1.211   0.976   2.676 -0.4610  0.0526 -0.1489
 3870TIP3    H133101   1.225   1.001   2.584  1.1266  0.8097  0.2525
 3870TIP3    H233102   1.225   1.057   2.725 -0.6045 -0.4877  0.8122
 3871TIP3   OH233103   5.761   4.051   3.692 -0.2057  0.3381  0.1920
 3871TIP3    H133104   5.759   4.099   3.775  0.1254 -1.1764  1.1020
 3871TIP3    H233105   5.852   4.054   3.664  0.2673 -1.4934  1.3448
 3872TIP3   OH233106   1.672   1.569   1.737  0.6441 -0.0704 -0.5757
 3872TIP3    H133107   1.715   1.594   1.656  2.7005 -1.1390  0.1155
 3872TIP3    H233108   1.646   1.651   1.778  1.5492  0.5848 -1.2949
 3873TIP3   OH233109   4.132   6.751   5.072 -0.2572  0.5283  0.1294
 3873TIP3    H133110   4.064   6.751   5.139 -1.1438  0.0830 -0.7419
 3873TIP3    H233111   4.095   6.803   5.000  1.2990  2.3564  0.5554
 3874TIP3   OH233112   6.392   5.906  15.680 -0.4541 -0.3842  0.5668
 3874TIP3    H133113   6.377   5.840  15.613  1.0975 -0.5038  0.2877
 3874TIP3    H233114   6.458   5.964  15.642 -1.5079  1.1340  0.9530
 3875TIP3   OH233115   2.627   6.717   2.570  0.1553  0.0987  0.4149
 3875TIP3    H133116   2.638   6.781   2.501  1.3343 -0.2274  0.2751
 3875TIP3    H233117   2.543   6.675   2.552  1.0908 -1.0080 -1.7119
 3876TIP3   OH233118   3.047   2.346  16.440 -0.8877  0.7184 -0.4565
 3876TIP3    H133119   3.108   2.276  16.418  0.6490  0.8486  2.7511
 3876TIP3    H233120   3.006   2.369  16.357 -1.2800 -3.6943 -1.7295
 3877TIP3   OH233121   0.501   2.462   1.724  0.2397  0.7615 -0.4769
 3877TIP3    H133122   0.533   2.471   1.814 -0.0436  0.3241 -0.3273
 3877TIP3    H233123   0.549   2.528   1.675  0.2804  1.1194  0.0271
 3878TIP3   OH233124   4.635   6.428  15.746  0.2341  0.3192  0.1416
 3878TIP3    H133125   4.607   6.502  15.800 -0.0441 -0.1053  0.5878
 3878TIP3    H233126   4.575   6.357  15.769 -0.3005  0.3084 -1.2166
 3879TIP3   OH233127   4.553   5.249   4.584  0.0080  0.3853  0.5332
 3879TIP3    H133128   4.485   5.314   4.566  0.6709  0.3874 -2.4668
 3879TIP3    H233129   4.505   5.171   4.610 -0.9637  1.1541  1.1547
 3880TIP3   OH233130   2.412   6.313   3.295  0.6966 -0.3142  0.0047
 3880TIP3    H133131   2.450   6.367   3.365  2.2626 -1.4744  0.0948
 3880TIP3    H233132   2.447   6.225   3.310 -0.0106 -0.8845 -1.4603
 3881TIP3   OH233133   4.222   2.782  13.041 -0.0693 -0.1010 -0.6007
 3881TIP3    H133134   4.192   2.864  13.002 -0.0091 -1.1376 -2.9817
 3881TIP3    H233135   4.145   2.726  13.042 -0.0530 -0.1305  0.7931
 3882TIP3   OH233136   0.650   0.392  15.471 -0.3791 -0.2658  0.2649
 3882TIP3    H133137   0.663   0.333  15.398  1.0538  0.2601  0.0630
 3882TIP3    H233138   0.593   0.461  15.436 -0.5801 -0.5734 -0.0233
 3883TIP3   OH233139   1.720   5.427   1.483  0.3200  0.1149  0.5437
 3883TIP3    H133140   1.794   5.370   1.505 -0.8476 -1.6751  0.0413
 3883TIP3    H233141   1.743   5.512   1.522  2.3263 -0.5483  0.9397
 3884TIP3   OH233142   4.339   1.487   6.652  0.1605 -0.2025 -0.1205
 3884TIP3    H133143   4.248   1.512   6.634  0.2703 -1.1666 -2.3394
 3884TIP3    H233144   4.332   1.424   6.724 -1.0674 -0.9851 -0.8681
 3885TIP3   OH233145   3.505   6.404  14.976  0.0321  0.8837  0.8467
 3885TIP3    H133146   3.505   6.456  14.896 -1.9675  0.6174  0.6182
 3885TIP3    H233147   3.412   6.393  14.998  0.4056 -1.4088  1.6328
 3886TIP3   OH233148   6.747   4.906  11.041 -0.0475 -0.4718  0.3807
 3886TIP3    H133149   6.670   4.888  10.987 -0.0709  1.3596 -0.2690
 3886TIP3    H233150   6.814   4.935  10.980  0.0972  1.1197  1.2197
 3887TIP3   OH233151   6.394   6.561   3.324 -0.1299 -0.4061 -0.2745
 3887TIP3    H133152   6.364   6.630   3.263  0.0978  0.7148  0.8361
 3887TIP3    H233153   6.428   6.609   3.399 -0.4449 -1.7597  0.7734
 3888TIP3   OH233154   3.932   6.532  11.877  0.7235  0.1536 -0.4192
 3888TIP3    H133155   3.900   6.595  11.812 -0.3046  0.3515  0.2516
 3888TIP3    H233156   4.020   6.564  11.900  1.1027  0.0659 -1.7054
 3889TIP3   OH233157   4.173   0.276  11.441 -0.1737 -0.6800  0.1194
 3889TIP3    H133158   4.093   0.255  11.392  1.1895 -0.7704 -2.2090
 3889TIP3    H233159   4.212   0.191  11.460  1.4227 -0.6676 -2.5139
 3890TIP3   OH233160   6.192   4.352  10.574 -0.1876  0.0069  0.2654
 3890TIP3    H133161   6.167   4.259  10.576 -1.2212  0.2788  1.1389
 3890TIP3    H233162   6.127   4.393  10.518 -0.1561  0.3069  0.4449
 3891TIP3   OH233163   1.531   2.409  16.905  0.4314 -0.1250 -0.0895
 3891TIP3    H133164   1.443   2.419  16.942  1.0888 -3.1507  2.7314
 3891TIP3    H233165   1.570   2.496  16.913 -1.1867  0.4931  1.8525
 3892TIP3   OH233166   4.431   2.179  15.559  0.2761  0.1083  0.3908
 3892TIP3    H133167   4.476   2.165  15.476  3.8312  2.1955  1.6930
 3892TIP3    H233168   4.377   2.257  15.544  0.1376 -0.1056 -0.2285
 3893TIP3   OH233169   2.775   3.983   6.151 -0.3635 -1.0105 -0.8575
 3893TIP3    H133170   2.848   4.040   6.173 -1.3505 -0.0423  0.0291
 3893TIP3    H233171   2.798   3.898   6.189 -0.7728 -0.0814  1.6235
 3894TIP3   OH233172   3.823   4.057  16.706 -0.4045 -0.1836  0.4834
 3894TIP3    H133173   3.805   4.124  16.772 -0.9974 -2.1565  2.4611
 3894TIP3    H233174   3.811   3.974  16.753 -0.4739 -1.6914 -2.0419
 3895TIP3   OH233175   3.212   0.495   1.657 -0.7904  0.3722  0.2975
 3895TIP3    H133176   3.282   0.480   1.721  0.4308  0.4071 -0.9992
 3895TIP3    H233177   3.240   0.449   1.578 -1.8247  1.0920 -0.5216
 3896TIP3   OH233178   4.532   4.454  10.901  0.0093 -0.5220 -0.2595
 3896TIP3    H133179   4.548   4.447  10.807 -0.0476 -1.8272 -0.1906
 3896TIP3    H233180   4.478   4.532  10.910  3.5501  2.2578 -0.8236
 3897TIP3   OH233181   2.508   6.781  16.886  0.0530  0.0346 -0.3215
 3897TIP3    H133182   2.435   6.841  16.872 -0.2343 -0.1528  0.3469
 3897TIP3    H233183   2.525   6.744  16.799 -1.8601 -1.2956 -0.1812
 3898TIP3   OH233184   5.986   2.359   1.679  0.3941  0.6463 -0.1768
 3898TIP3    H133185   6.008   2.276   1.637  1.1197  0.7396 -0.0015
 3898TIP3    H233186   6.059   2.376   1.739 -0.4268  0.7241  0.8137
 3899TIP3   OH233187   3.923   6.450  15.489  0.0714 -0.0180  0.0833
 3899TIP3    H133188   3.928   6.472  15.396 -2.1995  1.3388  0.2012
 3899TIP3    H233189   3.977   6.517  15.532  0.3822 -0.0965 -0.1775
 3900TIP3   OH233190   6.249   0.896   3.175  0.1119  1.2868 -0.2637
 3900TIP3    H133191   6.235   0.946   3.094  1.1799  2.2883  0.1391
 3900TIP3    H233192   6.302   0.821   3.148 -0.3954  1.0548 -0.6471
 3901TIP3   OH233193   4.434   5.568  15.020 -0.4063  0.3446  0.1258
 3901TIP3    H133194   4.355   5.514  15.023 -0.3459  0.2878  1.3414
 3901TIP3    H233195   4.421   5.632  15.091  0.1024  1.0988 -0.4516
 3902TIP3   OH233196   3.712   2.470  11.658 -0.3545 -0.6016  0.0551
 3902TIP3    H133197   3.623   2.435  11.649  0.2707 -2.3833  0.4373
 3902TIP3    H233198   3.763   2.420  11.594  0.4466  0.1904  0.0659
 3903TIP3   OH233199   1.533   0.873   3.063  0.1007 -0.4418  0.0195
 3903TIP3    H133200   1.489   0.950   3.099 -0.6669 -2.3022  3.4962
 3903TIP3    H233201   1.498   0.864   2.974 -2.0666  1.5150  0.5832
 3904TIP3   OH233202   2.354   2.873  16.928  0.3039 -0.1109 -0.6955
 3904TIP3    H133203   2.400   2.823  16.861 -1.0311 -2.6392  0.1421
 3904TIP3    H233204   2.262   2.872  16.900 -0.3251 -1.4329  1.1910
 3905TIP3   OH233205   0.239   1.907  11.840  1.0463  0.1086  0.7772
 3905TIP3    H133206   0.307   1.850  11.804  0.4444  0.0446 -0.2913
 3905TIP3    H233207   0.193   1.942  11.764  0.1395  0.4728  1.4640
 3906TIP3   OH233208   1.025   0.241  14.915 -0.0171  0.0695  0.1309
 3906TIP3    H133209   1.040   0.335  14.913 -0.3960  0.1228 -0.2126
 3906TIP3    H233210   0.946   0.227  14.862  0.8123 -0.5882 -0.9723
 3907TIP3   OH233211   4.308   2.548   3.263  0.1116 -0.6803  0.0626
 3907TIP3    H133212   4.327   2.587   3.349  0.0086 -0.1280 -0.1578
 3907TIP3    H233213   4.249   2.476   3.282 -0.9727  0.2435  0.3503
 3908TIP3   OH233214   2.735   3.610  16.195 -0.7681  0.3246 -0.0514
 3908TIP3    H133215   2.641   3.610  16.174 -0.5265 -0.7487 -1.2746
 3908TIP3    H233216   2.741   3.660  16.276 -2.5018 -0.3183  0.5239
 3909TIP3   OH233217   5.494   1.955   4.040  0.2360  0.3629 -0.4363
 3909TIP3    H133218   5.518   1.980   3.951 -1.0941  0.4839 -0.7790
 3909TIP3    H233219   5.451   2.032   4.076 -1.0329 -0.3501 -0.3910
 3910TIP3   OH233220   3.878   6.359   5.671 -0.0858  0.2905 -0.9742
 3910TIP3    H133221   3.878   6.264   5.664  0.2373  0.3768 -2.3128
 3910TIP3    H233222   3.825   6.389   5.597  1.9734  1.2358 -2.1498
 3911TIP3   OH233223   2.324   1.152  12.075 -0.1276  0.6419  0.4439
 3911TIP3    H133224   2.373   1.221  12.118  1.1294 -0.5929  1.0735
 3911TIP3    H233225   2.248   1.137  12.132 -0.4422  1.5217  0.2688
 3912TIP3   OH233226   1.177   4.781   3.895 -0.2099  0.0228 -0.2517
 3912TIP3    H133227   1.084   4.763   3.898 -0.7235  2.3350 -0.5865
 3912TIP3    H233228   1.204   4.753   3.807 -0.3317 -1.5243  0.1662
 3913TIP3   OH233229   4.974   1.536  15.745 -0.4763 -0.4858 -0.3029
 3913TIP3    H133230   5.057   1.505  15.780  0.1712  3.4936  2.3299
 3913TIP3    H233231   4.908   1.491  15.797  0.2375 -0.5983  0.5344
 3914TIP3   OH233232   2.631   1.581  13.745 -0.1815 -0.2001 -0.1370
 3914TIP3    H133233   2.606   1.506  13.692 -1.8812 -0.0541  0.3987
 3914TIP3    H233234   2.554   1.600  13.798  1.0169  0.4739  1.4466
 3915TIP3   OH233235   5.176   2.088  11.551  0.1375  0.0483  0.2622
 3915TIP3    H133236   5.148   2.046  11.632  0.7354 -0.1018  0.3948
 3915TIP3    H233237   5.097   2.130  11.517 -0.3002 -0.5500  0.5153
 3916TIP3   OH233238   4.975   0.532  16.947  0.3042 -0.1470  0.0526
 3916TIP3    H133239   5.032   0.505  17.019  0.2257 -1.4607 -0.3582
 3916TIP3    H233240   4.906   0.584  16.990  1.7097  1.3749  0.5603
 3917TIP3   OH233241   3.448   5.460  11.518  0.4350  0.3194 -0.4350
 3917TIP3    H133242   3.493   5.450  11.434  0.5099  0.8997 -0.4726
 3917TIP3    H233243   3.445   5.555  11.531  0.3962  0.2298  0.2018
 3918TIP3   OH233244   1.476   5.348   3.058 -0.9565  0.1874 -0.3503
 3918TIP3    H133245   1.414   5.392   3.000 -1.7508 -0.1996  0.1991
 3918TIP3    H233246   1.436   5.352   3.145 -0.4397 -0.4865 -0.0685
 3919TIP3   OH233247   3.902   1.005   2.874 -0.2937  0.3324  0.0548
 3919TIP3    H133248   3.806   1.002   2.880 -0.3861  1.1402 -0.7855
 3919TIP3    H233249   3.922   0.957   2.794  0.0439 -0.1862  0.4445
 3920TIP3   OH233250   3.855   2.083  14.013 -0.8513  0.4075 -0.1689
 3920TIP3    H133251   3.932   2.122  14.055 -2.2620  2.6504  0.5419
 3920TIP3    H233252   3.863   2.109  13.921 -1.6332  2.3132  0.2451
 3921TIP3   OH233253   4.956   6.379   4.699 -0.0633  0.9599  0.0095
 3921TIP3    H133254   5.030   6.371   4.639  0.0172  0.9540  0.1088
 3921TIP3    H233255   4.882   6.404   4.643  0.0998  1.3492 -0.0326
 3922TIP3   OH233256   4.545   3.899  11.484  0.1914  0.1163  0.3630
 3922TIP3    H133257   4.605   3.892  11.410 -0.5452 -1.1039 -0.1490
 3922TIP3    H233258   4.533   3.808  11.514 -0.2747  0.4905  1.3678
 3923TIP3   OH233259   6.340   4.147  11.401 -0.5231 -0.3514 -0.2575
 3923TIP3    H133260   6.262   4.203  11.399 -0.8080 -0.7679 -1.1423
 3923TIP3    H233261   6.316   4.071  11.349  0.3213 -0.7038 -0.1457
 3924TIP3   OH233262   5.185   4.448   2.114 -0.1559 -0.3739 -0.0110
 3924TIP3    H133263   5.138   4.529   2.132  3.1939  1.7321  0.1547
 3924TIP3    H233264   5.208   4.413   2.200  0.0221 -0.4581 -0.0909
 3925TIP3   OH233265   4.635   5.178   0.279 -0.0871 -0.3230 -0.3758
 3925TIP3    H133266   4.685   5.201   0.358 -1.8835 -0.5170  0.8935
 3925TIP3    H233267   4.645   5.253   0.221 -0.0393  0.5412  0.7247
 3926TIP3   OH233268   3.102   5.450  11.165 -0.2431  0.0113  0.1869
 3926TIP3    H133269   3.080   5.374  11.220  0.5876 -0.9735 -0.7845
 3926TIP3    H233270   3.197   5.444  11.153 -0.0410  1.6638  0.7199
 3927TIP3   OH233271   6.572   0.429  15.137 -0.1451  0.1071 -0.4720
 3927TIP3    H133272   6.521   0.360  15.094  1.0736 -0.5644 -0.9155
 3927TIP3    H233273   6.585   0.495  15.069 -0.1928  0.1504 -0.4393
 3928TIP3   OH233274   4.132   5.798   5.288  0.1836 -0.1170 -0.6930
 3928TIP3    H133275   4.155   5.722   5.235  0.8631 -0.6508  0.3337
 3928TIP3    H233276   4.202   5.805   5.353 -0.7934  0.2773  0.3713
 3929TIP3   OH233277   1.249   5.520   4.934 -0.2855 -0.3265  0.3297
 3929TIP3    H133278   1.320   5.489   4.879 -0.2414  1.1582 -0.5197
 3929TIP3    H233279   1.169   5.497   4.887 -0.2826  0.0230  0.1507
 3930TIP3   OH233280   0.951   1.674   3.688 -0.3379 -0.8410  0.0036
 3930TIP3    H133281   1.010   1.748   3.676 -2.8796  0.9962 -2.4649
 3930TIP3    H233282   0.905   1.693   3.770  0.0039 -0.3900  0.0923
 3931TIP3   OH233283   6.712   4.205   3.148 -0.0844 -0.0358 -0.0392
 3931TIP3    H133284   6.668   4.191   3.232 -1.4045  0.4704 -0.6125
 3931TIP3    H233285   6.770   4.130   3.139 -0.3817 -0.4180  1.0499
 3932TIP3   OH233286   4.655   0.085  12.061 -0.0553  0.6237 -0.2229
 3932TIP3    H133287   4.731   0.064  12.114 -0.6448  0.1187  0.4422
 3932TIP3    H233288   4.675   0.048  11.975 -0.9229 -2.6298  0.8184
 3933TIP3   OH233289   5.916   0.469   6.677  0.5168 -0.2375  0.0704
 3933TIP3    H133290   5.886   0.526   6.606  0.1263  1.4367  1.5298
 3933TIP3    H233291   5.950   0.529   6.743  0.0465 -1.6999  1.6973
 3934TIP3   OH233292   5.475   2.314  14.427 -0.2436  0.7279 -0.3013
 3934TIP3    H133293   5.514   2.240  14.473 -2.4895 -1.2490 -1.3367
 3934TIP3    H233294   5.412   2.351  14.489 -1.4063 -0.2977 -0.8324
 3935TIP3   OH233295   2.439   6.497   3.991  0.0400  0.1436  0.2504
 3935TIP3    H133296   2.463   6.585   3.965 -0.9783  0.1755 -0.6895
 3935TIP3    H233297   2.516   6.463   4.036  0.7753  1.1871 -0.1736
 3936TIP3   OH233298   1.841   2.544   4.141  0.5951  0.2237  0.2985
 3936TIP3    H133299   1.874   2.603   4.210  0.6252  1.9306 -1.0997
 3936TIP3    H233300   1.911   2.544   4.075 -1.4013  2.7890 -2.0729
 3937TIP3   OH233301   1.613   5.170  15.066  0.5876  0.0393 -0.2831
 3937TIP3    H133302   1.539   5.111  15.083  0.1873  0.3836 -0.7789
 3937TIP3    H233303   1.657   5.132  14.991  1.9514 -1.1083  1.0402
 3938TIP3   OH233304   1.892   0.703  11.575 -0.5589  0.5358  0.0058
 3938TIP3    H133305   1.826   0.725  11.510 -1.6454  2.0732  1.5388
 3938TIP3    H233306   1.913   0.787  11.617  3.6156  0.4521 -1.4903
 3939TIP3   OH233307   2.528   0.978   1.124 -0.0951  0.1887  0.1043
 3939TIP3    H133308   2.610   0.934   1.146 -0.4860 -0.5841  0.0503
 3939TIP3    H233309   2.555   1.053   1.070  0.7519  1.2826  1.9437
 3940TIP3   OH233310   3.511   4.471  17.048  0.2594 -0.3496 -0.3763
 3940TIP3    H133311   3.590   4.419  17.032  1.2027  0.5165  1.1890
 3940TIP3    H233312   3.485   4.447  17.137 -1.5241 -0.9347 -1.0257
 3941TIP3   OH233313   3.667   6.277   6.436 -0.3020 -0.0768  0.1880
 3941TIP3    H133314   3.733   6.209   6.422 -0.1271  0.2381 -0.5534
 3941TIP3    H233315   3.588   6.228   6.458  0.2330 -0.4485  1.3619
 3942TIP3   OH233316   0.592   0.008  16.318 -0.1063 -0.2172  0.4621
 3942TIP3    H133317   0.546   0.052  16.246  0.3180 -0.4791  0.0270
 3942TIP3    H233318   0.648   0.076  16.356 -0.9026  0.1308  1.0588
 3943TIP3   OH233319   5.809   6.459   1.305 -0.7435 -0.0451 -0.3252
 3943TIP3    H133320   5.875   6.499   1.362  0.9327 -0.7996 -1.6524
 3943TIP3    H233321   5.825   6.498   1.219 -1.0774 -1.3155 -0.9819
 3944TIP3   OH233322   4.103   2.962   2.749 -0.5505 -0.1276 -0.7279
 3944TIP3    H133323   4.123   3.034   2.690 -1.2980  1.3270  0.7129
 3944TIP3    H233324   4.116   2.999   2.837 -2.1816 -1.3377  0.0826
 3945TIP3   OH233325   0.453   6.354   4.214  0.2939  0.3417  0.1699
 3945TIP3    H133326   0.364   6.319   4.214  0.4561 -0.4179 -2.9216
 3945TIP3    H233327   0.445   6.441   4.253 -0.8624 -1.3693  4.2566
 3946TIP3   OH233328   3.637   5.466   3.045  0.4571  0.4362 -0.6251
 3946TIP3    H133329   3.713   5.523   3.037 -0.3463  2.0431  1.9421
 3946TIP3    H233330   3.573   5.517   3.096 -1.2656 -1.8521 -0.2866
 3947TIP3   OH233331   2.392   3.454  16.878 -0.0178 -0.2474 -0.4011
 3947TIP3    H133332   2.378   3.495  16.963 -1.6272  1.2009 -1.2998
 3947TIP3    H233333   2.462   3.506  16.838 -0.5308  0.2555 -0.6638
 3948TIP3   OH233334   3.968   1.852   3.976 -0.2133 -0.3840 -0.0450
 3948TIP3    H133335   4.030   1.875   4.045  0.8790  0.8158 -1.3588
 3948TIP3    H233336   4.012   1.783   3.926 -0.4024 -0.2680 -0.3730
 3949TIP3   OH233337   1.697   2.935  10.847 -0.0559  0.1019 -0.3700
 3949TIP3    H133338   1.651   2.922  10.764  0.1814 -0.6700 -0.3861
 3949TIP3    H233339   1.782   2.893  10.834  1.1074  2.4027 -0.7138
 3950TIP3   OH233340   6.185   0.434   4.172 -0.3580 -0.2810 -0.2793
 3950TIP3    H133341   6.118   0.403   4.110  0.6120 -0.0237 -1.4925
 3950TIP3    H233342   6.182   0.371   4.243 -0.7749 -1.2098 -1.0849
 3951TIP3   OH233343   1.618   6.277   2.631  0.3642  0.6435 -0.2464
 3951TIP3    H133344   1.638   6.184   2.626 -1.2461  0.3002 -3.8327
 3951TIP3    H233345   1.553   6.285   2.701  1.4055 -0.6654  0.9183
 3952TIP3   OH233346   4.268   1.810   6.815  0.0471  0.2704  0.0282
 3952TIP3    H133347   4.174   1.811   6.833  0.5090  0.9433  2.8999
 3952TIP3    H233348   4.282   1.884   6.756 -1.2477 -0.1801 -0.9067
 3953TIP3   OH233349   0.049   0.750  11.703 -0.4613  0.1524  0.6754
 3953TIP3    H133350   0.105   0.777  11.631 -0.8143 -0.2357  0.2461
 3953TIP3    H233351   0.110   0.733  11.775 -0.3095  3.2748  1.4060
 3954TIP3   OH233352   2.991   4.012  12.471 -0.0508 -0.5419 -0.2301
 3954TIP3    H133353   3.009   3.919  12.459 -0.0260 -0.7628  1.3648
 3954TIP3    H233354   2.962   4.020  12.561 -1.1452  0.8496 -0.6714
 3955TIP3   OH233355   1.425   2.443  13.289  0.2603  0.3127  0.3582
 3955TIP3    H133356   1.515   2.423  13.316  0.0087 -1.7169 -0.1145
 3955TIP3    H233357   1.372   2.425  13.367  0.2762  1.8860  0.7536
 3956TIP3   OH233358   0.129   2.564  14.427  0.3700 -0.4202 -0.3984
 3956TIP3    H133359   0.095   2.639  14.379 -0.4759 -0.8033 -0.4250
 3956TIP3    H233360   0.139   2.595  14.517 -0.3673 -0.3852 -0.3246
 3957TIP3   OH233361   0.298   1.623   2.904  0.0280  0.1825 -0.0867
 3957TIP3    H133362   0.243   1.658   2.834 -0.3112 -0.4060 -0.1256
 3957TIP3    H233363   0.244   1.556   2.946  0.2620  0.4713  0.6891
 3958TIP3   OH233364   4.751   3.759  12.931 -0.4082  0.6055  0.1198
 3958TIP3    H133365   4.703   3.841  12.925 -1.8712 -0.1935  0.2006
 3958TIP3    H233366   4.712   3.715  13.007  0.3636 -0.1478  0.0938
 3959TIP3   OH233367   6.625   1.772  14.691  0.1285 -0.2395  0.2115
 3959TIP3    H133368   6.702   1.777  14.633  0.3595  0.1854  0.5547
 3959TIP3    H233369   6.574   1.699  14.656  1.4983 -1.6127  0.9393
 3960TIP3   OH233370   0.201   0.530  16.036 -0.2305 -0.3170 -0.2104
 3960TIP3    H133371   0.280   0.579  16.013 -0.3283  0.7311  1.4878
 3960TIP3    H233372   0.152   0.589  16.094 -1.8474 -1.2777 -0.5196
 3961TIP3   OH233373   5.293   6.029   1.961 -0.4636  0.2950  0.0786
 3961TIP3    H133374   5.298   6.049   1.867  0.6679  0.5817  0.1778
 3961TIP3    H233375   5.339   5.946   1.970 -0.9843  0.0288  0.3271
 3962TIP3   OH233376   2.245   1.162   0.903 -0.1802 -0.2845 -0.2344
 3962TIP3    H133377   2.196   1.080   0.901  0.9904 -1.2284  2.9261
 3962TIP3    H233378   2.238   1.192   0.993  2.4807  1.1057 -0.3732
 3963TIP3   OH233379   4.650   3.347   5.729 -0.0530 -0.4857  0.1581
 3963TIP3    H133380   4.591   3.401   5.677 -0.7387 -2.3453 -1.1058
 3963TIP3    H233381   4.691   3.289   5.665  3.4331  0.8924  0.9428
 3964TIP3   OH233382   5.184   0.507  15.443 -0.1129  0.1800  0.2962
 3964TIP3    H133383   5.255   0.487  15.382 -0.8149 -1.4021 -0.0499
 3964TIP3    H233384   5.112   0.450  15.417 -0.4966 -0.4576  2.5015
 3965TIP3   OH233385   3.386   3.182   4.109  0.6912 -0.2089 -0.0646
 3965TIP3    H133386   3.410   3.090   4.100  2.3481  0.2151 -0.3533
 3965TIP3    H233387   3.302   3.181   4.153  1.8189 -1.8211  2.2395
 3966TIP3   OH233388   2.594   3.094   2.809  0.3416  0.2962 -0.4074
 3966TIP3    H133389   2.584   2.998   2.810  0.4059  0.2864  1.4471
 3966TIP3    H233390   2.512   3.126   2.774  0.0046 -0.4081 -0.2905
 3967TIP3   OH233391   5.020   1.148  15.391 -0.0352 -0.1950 -0.2365
 3967TIP3    H133392   4.999   1.133  15.484  0.4980 -2.5231 -0.4296
 3967TIP3    H233393   5.090   1.213  15.393  0.2460 -0.4949  1.0310
 3968TIP3   OH233394   3.232   0.089   4.157  0.1944 -0.2534 -0.1089
 3968TIP3    H133395   3.318   0.118   4.189 -0.0338  0.0676  0.2106
 3968TIP3    H233396   3.217   0.141   4.078 -0.4749  0.9426  0.7767
 3969TIP3   OH233397   6.784   4.162  15.016  0.3399  0.2018 -0.7200
 3969TIP3    H133398   6.788   4.173  14.921 -1.6476 -1.9026 -1.1537
 3969TIP3    H233399   6.694   4.185  15.039  0.6719  0.2810  0.6056
 3970TIP3   OH233400   2.973   3.765   5.941  0.8133  0.4545 -0.0044
 3970TIP3    H133401   3.041   3.737   5.880  0.7142 -0.1151  0.1456
 3970TIP3    H233402   3.021   3.807   6.013  1.1235 -1.1814  0.7819
 3971TIP3   OH233403   1.254   3.343  11.467 -0.3043 -0.0313 -0.3688
 3971TIP3    H133404   1.331   3.375  11.513  0.8347 -3.2632  0.2247
 3971TIP3    H233405   1.197   3.309  11.536 -1.3095  0.4062 -0.9616
 3972TIP3   OH233406   3.604   4.660  13.123 -0.2927 -0.2759  0.0330
 3972TIP3    H133407   3.542   4.708  13.178 -0.4401 -0.7829  0.3101
 3972TIP3    H233408   3.672   4.631  13.184 -0.4225 -0.7861 -0.0690
 3973TIP3   OH233409   6.013   5.953  12.314  0.1112 -0.2226 -1.0046
 3973TIP3    H133410   6.105   5.940  12.293  0.1982 -1.3872 -0.0562
 3973TIP3    H233411   6.009   6.037  12.359  1.3112 -1.6095  1.9615
 3974TIP3   OH233412   4.371   5.000   6.465 -0.4125 -0.6223 -0.1893
 3974TIP3    H133413   4.326   4.977   6.546 -0.5181 -3.7662 -0.9849
 3974TIP3    H233414   4.457   4.959   6.473 -0.4939 -1.1692 -1.6790
 3975TIP3   OH233415   2.479   6.414  16.057 -0.0603 -0.3478  0.0148
 3975TIP3    H133416   2.467   6.321  16.077  1.8084 -0.1675  2.4211
 3975TIP3    H233417   2.466   6.459  16.140 -1.9158  1.7413 -1.2768
 3976TIP3   OH233418   6.458   5.827   0.839 -0.3647 -0.1160  0.4905
 3976TIP3    H133419   6.472   5.921   0.830 -1.5088  0.0038 -0.3037
 3976TIP3    H233420   6.529   5.787   0.789  0.9758  0.2590  2.0244
 3977TIP3   OH233421   0.446   6.827  16.553  0.1282 -0.1167 -0.1650
 3977TIP3    H133422   0.488   6.819  16.467  1.6363  0.8722  0.4338
 3977TIP3    H233423   0.380   6.896  16.541  0.0936 -0.2224 -0.6088
 3978TIP3   OH233424   1.581   6.814  13.456  0.2875  0.1246 -0.4666
 3978TIP3    H133425   1.576   6.772  13.371  1.2222  0.9920 -0.9714
 3978TIP3    H233426   1.534   6.896  13.446 -1.2785 -0.6088  0.4334
 3979TIP3   OH233427   2.162   5.464  14.407  0.1273  0.0521 -0.0431
 3979TIP3    H133428   2.253   5.444  14.383 -0.2462 -2.1272  0.1424
 3979TIP3    H233429   2.119   5.378  14.412 -1.3598  0.8326  2.2514
 3980TIP3   OH233430   0.105   2.584  11.906 -0.1439  0.1544  0.3971
 3980TIP3    H133431   0.111   2.670  11.948 -0.6866 -0.4815  1.8841
 3980TIP3    H233432   0.012   2.560  11.915  0.0960 -0.7911  0.4758
 3981TIP3   OH233433   6.180   0.494  11.753  0.3019  0.1162 -0.6871
 3981TIP3    H133434   6.169   0.460  11.842  0.7786 -1.0096 -1.0394
 3981TIP3    H233435   6.264   0.458  11.724 -0.4321 -0.5633 -2.0448
 3982TIP3   OH233436   2.320   4.317  12.349 -0.9216  0.0306  0.3858
 3982TIP3    H133437   2.349   4.362  12.428 -1.7382  1.5985 -0.1709
 3982TIP3    H233438   2.325   4.224  12.371 -1.2076  0.4393  2.3078
 3983TIP3   OH233439   6.458   1.367  15.712  0.1359 -0.2926 -0.5692
 3983TIP3    H133440   6.446   1.278  15.747 -0.7551  1.2976  3.7951
 3983TIP3    H233441   6.372   1.391  15.677 -0.4581 -0.2327  0.8611
 3984TIP3   OH233442   5.311   4.420   2.386  0.0489  0.1488  0.6233
 3984TIP3    H133443   5.254   4.392   2.457 -1.3209  0.6266 -0.2555
 3984TIP3    H233444   5.400   4.403   2.418 -0.5976 -2.1931  1.3844
 3985TIP3   OH233445   1.299   6.097  16.860  0.0609  0.0694  0.4029
 3985TIP3    H133446   1.390   6.066  16.868 -0.3859 -0.8862  2.3907
 3985TIP3    H233447   1.288   6.157  16.934 -0.4962  1.3889 -0.7234
 3986TIP3   OH233448   3.237   6.548   1.801  0.6659  0.2636  0.4261
 3986TIP3    H133449   3.144   6.565   1.814  0.6277 -0.7278  1.6991
 3986TIP3    H233450   3.241   6.483   1.731  0.4700  0.9192 -0.2089
 3987TIP3   OH233451   6.428   3.863  14.018 -0.5897 -0.1068  0.2239
 3987TIP3    H133452   6.501   3.866  14.080 -0.8999 -2.5803  0.8142
 3987TIP3    H233453   6.405   3.770  14.013 -3.0451  0.4826 -0.7358
 3988TIP3   OH233454   6.163   0.939   4.061  0.1317 -0.1049 -0.2749
 3988TIP3    H133455   6.245   0.985   4.081  0.0005 -0.3505  0.9063
 3988TIP3    H233456   6.188   0.847   4.052  0.0987 -0.0747 -0.6976
 3989TIP3   OH233457   6.120   2.630  14.397 -0.3808 -0.0709 -0.4183
 3989TIP3    H133458   6.039   2.582  14.413 -0.1960 -0.6883 -1.2630
 3989TIP3    H233459   6.141   2.671  14.481 -1.0573 -0.6805  0.0592
 3990TIP3   OH233460   1.885   4.812  15.313 -0.2722  0.5005 -0.1165
 3990TIP3    H133461   1.929   4.742  15.265 -0.8189  0.4700 -0.5752
 3990TIP3    H233462   1.930   4.815  15.397 -0.6857 -0.8713  0.1817
 3991TIP3   OH233463   0.156   4.709  10.997 -0.3162  0.4083  0.5444
 3991TIP3    H133464   0.250   4.691  11.008 -0.6838 -0.9784  1.7116
 3991TIP3    H233465   0.149   4.804  11.002  0.8739  0.4565  1.9852
 3992TIP3   OH233466   0.726   3.730  15.396 -0.6725  0.0057  0.2074
 3992TIP3    H133467   0.801   3.789  15.389  0.2721 -1.3553 -2.7816
 3992TIP3    H233468   0.658   3.783  15.438  1.3781  1.8282  1.4709
 3993TIP3   OH233469   1.411   5.154   1.906  0.1490 -0.3048 -0.4702
 3993TIP3    H133470   1.326   5.128   1.869  0.6582 -1.5190 -0.8309
 3993TIP3    H233471   1.398   5.245   1.934 -0.7103  0.1756 -2.2692
 3994TIP3   OH233472   5.727   6.711   4.589  0.3299  0.0590  0.7273
 3994TIP3    H133473   5.797   6.650   4.565 -0.4688  0.4770 -3.2591
 3994TIP3    H233474   5.646   6.661   4.578 -0.2630  1.3427 -1.3806
 3995TIP3   OH233475   4.540   2.600   0.373 -0.6306  0.3701 -0.0426
 3995TIP3    H133476   4.530   2.692   0.400  0.2398  0.3359  0.4392
 3995TIP3    H233477   4.575   2.605   0.284 -1.0066  0.4966 -0.1868
 3996TIP3   OH233478   2.565   3.951   0.110  0.6660 -0.1473  0.0034
 3996TIP3    H133479   2.533   3.927   0.024  0.0598 -0.4506  0.3093
 3996TIP3    H233480   2.613   3.874   0.141  0.4544 -0.2243  0.1428
 3997TIP3   OH233481   0.261   2.540  11.396  0.4112  0.2007 -0.2090
 3997TIP3    H133482   0.213   2.466  11.359  1.3586 -0.4842 -0.1195
 3997TIP3    H233483   0.231   2.544  11.487 -0.6296  0.7818 -0.5691
 3998TIP3   OH233484   6.800   4.556  14.374  0.3990  0.0177  0.5399
 3998TIP3    H133485   6.826   4.621  14.309  0.3511  0.0355  0.5378
 3998TIP3    H233486   6.735   4.502  14.328 -0.5213  0.7571  0.9411
 3999TIP3   OH233487   2.024   0.084  15.544  0.6016 -0.0954  0.7064
 3999TIP3    H133488   2.001   0.135  15.622 -2.9927 -1.0022  0.4309
 3999TIP3    H233489   1.970   0.005  15.551 -1.8441  0.8603 -3.7842
 4000TIP3   OH233490   0.867   4.807   5.030 -0.0723 -0.5377 -0.3528
 4000TIP3    H133491   0.888   4.820   4.937 -1.8396 -2.7352 -1.1595
 4000TIP3    H233492   0.945   4.764   5.066  0.9991  1.1686 -0.5346
 4001TIP3   OH233493   2.267   4.022  12.210  0.0352 -0.8185  0.1626
 4001TIP3    H133494   2.208   4.098  12.202  0.0057 -0.9488 -0.9974
 4001TIP3    H233495   2.292   4.022  12.302 -0.1371  0.4805  0.2382
 4002TIP3   OH233496   4.192   2.927  11.883  0.1684  0.5160 -0.2435
 4002TIP3    H133497   4.227   2.884  11.961  2.1426 -1.1106 -1.9275
 4002TIP3    H233498   4.136   2.862  11.842  0.0856  0.9472 -0.8277
 4003TIP3   OH233499   5.405   2.718   2.917 -0.1339  0.1601 -0.0688
 4003TIP3    H133500   5.478   2.743   2.861  0.6081  0.1460  0.8728
 4003TIP3    H233501   5.357   2.800   2.932  0.9913  0.6334  1.1436
 4004TIP3   OH233502   1.689   5.600   4.698  0.0755  0.1613 -0.0932
 4004TIP3    H133503   1.697   5.678   4.644  0.8887  0.5103  0.5107
 4004TIP3    H233504   1.689   5.633   4.788 -1.8240 -0.3529  0.1486
 4005TIP3   OH233505   0.167   6.748  16.308 -0.1306  0.4470  0.5861
 4005TIP3    H133506   0.158   6.754  16.213  0.5571 -0.4198  0.4434
 4005TIP3    H233507   0.182   6.838  16.337  0.2627  0.6454 -0.2036
 4006TIP3   OH233508   0.087   5.251   4.456  0.5934  0.0882  0.1138
 4006TIP3    H133509   0.078   5.165   4.498  1.0893  0.6389  1.3914
 4006TIP3    H233510   0.175   5.251   4.420  1.5328  0.9298  2.2491
 4007TIP3   OH233511   0.449   3.207  14.233  0.3128 -0.4443 -0.3192
 4007TIP3    H133512   0.527   3.151  14.224  0.6020 -0.1286  0.1313
 4007TIP3    H233513   0.479   3.279  14.289 -0.8350 -1.3709  1.6104
 4008TIP3   OH233514   5.914   1.707   5.950 -0.2069  0.3518 -0.4475
 4008TIP3    H133515   5.916   1.732   5.857  1.1024 -1.7157 -1.0612
 4008TIP3    H233516   6.005   1.685   5.970 -0.5552  0.3535  1.2179
 4009TIP3   OH233517   5.970   5.523  16.129 -0.5293  0.4673 -0.0928
 4009TIP3    H133518   5.913   5.557  16.198 -0.6921  2.1767 -1.0146
 4009TIP3    H233519   6.055   5.511  16.171 -1.0780 -0.3308  0.8379
 4010TIP3   OH233520   6.612   0.301  12.400  0.3141 -0.0384 -0.5537
 4010TIP3    H133521   6.557   0.240  12.449  0.6517  0.3777  0.3617
 4010TIP3    H233522   6.605   0.272  12.309  1.1753 -1.9819 -0.0386
 4011TIP3   OH233523   2.336   1.582   6.320  0.2677  0.2492  0.4623
 4011TIP3    H133524   2.338   1.674   6.348  0.5315  0.2669  0.3903
 4011TIP3    H233525   2.261   1.545   6.365  0.0403  0.5519  0.3330
 4012TIP3   OH233526   1.944   0.332  11.616  0.4853  0.1787  0.2499
 4012TIP3    H133527   1.872   0.348  11.677  0.6243  2.4909 -0.1163
 4012TIP3    H233528   2.017   0.305  11.672 -0.0181  0.0520  0.8634
 4013TIP3   OH233529   4.677   6.156   1.581 -0.1762  0.2191  0.4811
 4013TIP3    H133530   4.699   6.068   1.550 -0.2895  0.0518  0.8751
 4013TIP3    H233531   4.739   6.213   1.535  1.4067 -0.2833  1.8684
 4014TIP3   OH233532   1.183   6.106   5.590 -0.1604 -0.4189  0.0651
 4014TIP3    H133533   1.186   6.198   5.618 -1.1115 -0.6075  0.8156
 4014TIP3    H233534   1.192   6.110   5.494  1.9198  0.3081  0.2282
 4015TIP3   OH233535   4.731   2.875   3.248  0.0359 -0.1099 -0.1417
 4015TIP3    H133536   4.769   2.897   3.333 -0.5872 -2.1484  0.7287
 4015TIP3    H233537   4.641   2.908   3.253  0.0518 -0.0756 -0.0779
 4016TIP3   OH233538   5.387   4.771  15.490  0.1129  0.0407  0.0973
 4016TIP3    H133539   5.459   4.716  15.521  0.5435  1.4404  1.7320
 4016TIP3    H233540   5.429   4.842  15.442 -0.2356  0.4208  0.3503
 4017TIP3   OH233541   4.148   0.341  13.099 -0.0634 -0.3714  0.1825
 4017TIP3    H133542   4.212   0.372  13.034 -0.8992  1.1562  0.0141
 4017TIP3    H233543   4.099   0.420  13.123 -1.9844 -1.4946  0.1848
 4018TIP3   OH233544   5.198   6.627  12.663 -0.2068  0.5336  0.2215
 4018TIP3    H133545   5.233   6.593  12.745 -0.6148  1.6859  0.9057
 4018TIP3    H233546   5.184   6.550  12.609 -2.1260 -0.5570  2.0904
 4019TIP3   OH233547   5.277   3.995  14.241 -0.4801  0.1347 -0.3667
 4019TIP3    H133548   5.319   4.057  14.181  0.9630 -1.7813 -1.4513
 4019TIP3    H233549   5.237   4.050  14.308  2.3168  2.1886 -0.2181
 4020TIP3   OH233550   1.816   1.826  14.094 -0.6111 -0.3949  0.7781
 4020TIP3    H133551   1.877   1.824  14.168  1.0099  0.3826 -0.4728
 4020TIP3    H233552   1.802   1.919  14.076  0.3056 -0.5267 -0.8536
 4021TIP3   OH233553   3.044   2.693  16.210  0.0572  0.5396 -0.5424
 4021TIP3    H133554   2.968   2.694  16.153  0.0278  0.2462 -0.5050
 4021TIP3    H233555   3.008   2.693  16.299  0.0077  4.7679 -0.3464
 4022TIP3   OH233556   0.206   1.367   4.463  0.1096  0.3915 -0.0830
 4022TIP3    H133557   0.280   1.362   4.523  0.7253  1.8815 -0.6774
 4022TIP3    H233558   0.131   1.338   4.515  1.0451 -0.9468  0.5874
 4023TIP3   OH233559   4.656   1.520   3.053 -0.2200  1.1304  0.2812
 4023TIP3    H133560   4.616   1.538   2.967 -0.5146  0.2635  0.2188
 4023TIP3    H233561   4.585   1.479   3.103  0.8321 -1.4834 -0.1986
 4024TIP3   OH233562   0.397   0.802   1.395  0.0695  0.4534 -0.0624
 4024TIP3    H133563   0.430   0.820   1.483  0.5507 -0.9596  0.0734
 4024TIP3    H233564   0.343   0.878   1.374 -0.6894  0.4777  1.7624
 4025TIP3   OH233565   5.070   3.611   5.592  0.1344  0.1538  0.0365
 4025TIP3    H133566   5.046   3.663   5.515 -0.1797  0.4859  0.3531
 4025TIP3    H233567   5.105   3.675   5.654  0.7319 -0.1646  0.0375
 4026TIP3   OH233568   4.585   1.057  16.152 -0.3909 -0.6439 -0.2433
 4026TIP3    H133569   4.508   1.004  16.130 -0.5649 -1.1368  1.4127
 4026TIP3    H233570   4.648   0.994  16.186  1.0030 -0.3237 -2.0864
 4027TIP3   OH233571   1.283   6.332  12.076  0.4421  0.3511  0.3839
 4027TIP3    H133572   1.376   6.343  12.095  0.6012  0.2903 -0.3314
 4027TIP3    H233573   1.271   6.373  11.990 -0.6340  2.3834  1.4230
 4028TIP3   OH233574   0.650   1.129  12.818  0.6486 -0.1161 -0.3275
 4028TIP3    H133575   0.731   1.179  12.818  0.7856 -0.3399  0.2656
 4028TIP3    H233576   0.627   1.121  12.725  1.4827 -0.3514 -0.5144
 4029TIP3   OH233577   0.064   4.396   3.090  0.7719 -0.7299 -0.4664
 4029TIP3    H133578   0.062   4.480   3.137 -1.5443 -0.3816 -1.0722
 4029TIP3    H233579  -0.009   4.347   3.126  1.0913 -1.8532 -1.2952
 4030TIP3   OH233580   6.546   1.717  16.805 -0.2755 -0.2718 -0.0889
 4030TIP3    H133581   6.515   1.633  16.771 -1.0076  0.7347 -2.0825
 4030TIP3    H233582   6.519   1.781  16.739 -0.3112  1.6371  1.6580
 4031TIP3   OH233583   2.729   3.044  11.976  0.6550  1.0974  0.2426
 4031TIP3    H133584   2.793   2.974  11.964 -0.1787  0.3390  0.1513
 4031TIP3    H233585   2.646   3.007  11.946  0.6393  2.9699 -2.4022
 4032TIP3   OH233586   5.777   3.878  10.727  0.2547 -0.4419 -0.4577
 4032TIP3    H133587   5.835   3.886  10.651 -0.9746 -0.4264 -1.4315
 4032TIP3    H233588   5.768   3.784  10.739 -1.6680 -0.5337 -2.0763
 4033TIP3   OH233589   2.182   1.301  11.853 -0.6021  0.4812  0.0605
 4033TIP3    H133590   2.194   1.247  11.931  2.4232 -0.3927 -0.8642
 4033TIP3    H233591   2.135   1.245  11.792  1.3114 -0.7167 -0.4024
 4034TIP3   OH233592   5.196   1.493   1.726  0.0532  0.3247 -0.3481
 4034TIP3    H133593   5.128   1.435   1.692  0.2009 -0.4837  0.6931
 4034TIP3    H233594   5.149   1.555   1.781  0.0781  0.1938 -0.1790
 4035TIP3   OH233595   3.770   1.495  11.250  0.2894  0.2154 -0.2172
 4035TIP3    H133596   3.711   1.509  11.324 -1.7825 -2.8271 -1.0948
 4035TIP3    H233597   3.850   1.460  11.289  0.7788  2.2591  0.7919
 4036TIP3   OH233598   1.520   4.382  12.139 -1.1211  0.2471  0.8561
 4036TIP3    H133599   1.584   4.312  12.128 -2.3148 -1.1260  2.1066
 4036TIP3    H233600   1.572   4.461  12.152  0.2697 -0.2165 -1.3586
 4037TIP3   OH233601   5.797   4.015  15.685  0.2372 -0.2773 -0.1833
 4037TIP3    H133602   5.877   3.999  15.736  0.6744 -0.1024 -0.8167
 4037TIP3    H233603   5.739   4.061  15.746  0.5428 -0.5679  0.3387
 4038TIP3   OH233604   0.447   1.752   6.038 -0.1952 -0.3559  0.3080
 4038TIP3    H133605   0.365   1.787   6.075 -1.6602 -1.3355 -1.8298
 4038TIP3    H233606   0.480   1.822   5.982 -0.5429 -0.6112 -0.2210
 4039TIP3   OH233607   2.230   3.407  13.358 -0.3704 -0.1294 -0.4905
 4039TIP3    H133608   2.153   3.422  13.303 -1.2179  0.5879  0.8279
 4039TIP3    H233609   2.203   3.436  13.445  1.8692  1.6132 -0.2827
 4040TIP3   OH233610   3.063   4.095   3.940  0.0617 -0.0795  0.5909
 4040TIP3    H133611   2.985   4.130   3.896 -0.6229 -1.5631  0.5620
 4040TIP3    H233612   3.038   4.090   4.032  0.4373  0.2571  0.7110
 4041TIP3   OH233613   6.032   0.287  14.770  0.1062  0.2030  0.4609
 4041TIP3    H133614   5.995   0.252  14.689  0.7473  0.1372  0.1827
 4041TIP3    H233615   6.033   0.212  14.830  2.6188 -0.6996 -0.5248
 4042TIP3   OH233616   2.394   2.284  13.743  0.5829 -0.1887  0.1176
 4042TIP3    H133617   2.444   2.304  13.822  0.1850  1.0533  0.0626
 4042TIP3    H233618   2.460   2.277  13.674  0.6842  2.0994 -0.0892
 4043TIP3   OH233619   2.502   0.180   1.930  0.0376 -0.2773  0.5060
 4043TIP3    H133620   2.588   0.219   1.917  0.5994 -2.3207 -3.1706
 4043TIP3    H233621   2.452   0.205   1.852 -1.3481 -2.3337  0.6571
 4044TIP3   OH233622   5.514   2.442   4.990  0.6941 -0.0555 -0.3478
 4044TIP3    H133623   5.607   2.432   4.968  0.6654  1.4665 -1.2718
 4044TIP3    H233624   5.514   2.480   5.078  0.9411 -0.1137 -0.3207
 4045TIP3   OH233625   3.271   5.494   2.633  0.3769  0.0531 -0.0586
 4045TIP3    H133626   3.305   5.558   2.695 -1.2420 -0.9943  2.0879
 4045TIP3    H233627   3.304   5.410   2.666 -1.7214 -0.6732  0.3502
 4046TIP3   OH233628   0.465   2.091  15.587 -0.7446 -0.0801  0.1684
 4046TIP3    H133629   0.390   2.143  15.558  0.1504  0.9101 -0.4425
 4046TIP3    H233630   0.446   2.003  15.555 -1.8509  0.0508  0.4064
 4047TIP3   OH233631   2.305   5.737   5.067 -0.2510 -0.1137  0.2698
 4047TIP3    H133632   2.275   5.654   5.029 -1.4421 -0.3199  1.5811
 4047TIP3    H233633   2.318   5.718   5.160  0.7873  0.8421  0.3436
 4048TIP3   OH233634   5.997   3.224  14.617  0.4797 -0.4001 -0.3530
 4048TIP3    H133635   6.069   3.227  14.679  0.4699  2.5277 -0.3449
 4048TIP3    H233636   5.918   3.228  14.671  0.4243  0.1067 -0.4633
 4049TIP3   OH233637   0.465   3.759   6.385 -0.3330 -0.3303 -0.5959
 4049TIP3    H133638   0.457   3.786   6.477  2.2122  0.7642 -0.6103
 4049TIP3    H233639   0.375   3.756   6.353 -1.2086  0.4684  1.5942
 4050TIP3   OH233640   3.814   0.373   6.019  0.1652 -0.3408  0.2055
 4050TIP3    H133641   3.735   0.428   6.022  0.4074 -0.0171  0.7700
 4050TIP3    H233642   3.848   0.384   5.930 -0.0241  0.0826  0.1863
 4051TIP3   OH233643   4.982   6.634  14.551  0.1090  0.0842 -0.1393
 4051TIP3    H133644   5.054   6.585  14.511  0.2279 -1.0882  1.4080
 4051TIP3    H233645   4.920   6.567  14.580 -0.5018  0.9457  0.6197
 4052TIP3   OH233646   0.722   2.986   2.012  0.4914  0.0165 -0.9173
 4052TIP3    H133647   0.673   2.968   2.092 -0.4375 -0.0558 -1.4852
 4052TIP3    H233648   0.725   2.902   1.966  2.2234 -0.2812 -0.3413
 4053TIP3   OH233649   3.544   6.693   2.516 -0.5663  0.3603 -0.1547
 4053TIP3    H133650   3.474   6.733   2.464 -1.6453 -2.1936 -0.7835
 4053TIP3    H233651   3.533   6.730   2.603 -1.6679  1.2118 -0.6295
 4054TIP3   OH233652   6.482   2.644   3.060  0.3051  0.1001  0.4716
 4054TIP3    H133653   6.522   2.649   2.973 -0.8941 -3.1838 -0.4342
 4054TIP3    H233654   6.556   2.647   3.121  1.6332 -1.6362 -0.9409
 4055TIP3   OH233655   0.581   1.262   3.754 -0.2807 -0.5158 -0.2515
 4055TIP3    H133656   0.647   1.240   3.688 -0.7438  1.6469 -1.5485
 4055TIP3    H233657   0.618   1.231   3.837  0.3392 -3.2610 -1.4626
 4056TIP3   OH233658   1.330   2.038   5.823 -0.3568  0.1328 -0.1051
 4056TIP3    H133659   1.294   2.127   5.832  0.5483  0.5070 -0.0042
 4056TIP3    H233660   1.282   1.986   5.888  0.5746  1.0394  1.3722
 4057TIP3   OH233661   5.314   1.998   4.855  0.3633 -0.0100  0.5542
 4057TIP3    H133662   5.245   2.051   4.893  0.0916 -1.3359  1.9908
 4057TIP3    H233663   5.362   1.963   4.930 -0.2239 -2.7768 -0.2416
 4058TIP3   OH233664   1.249   5.858  10.768 -0.1583  0.4071 -0.4538
 4058TIP3    H133665   1.183   5.789  10.763 -0.6855  0.8221  0.4875
 4058TIP3    H233666   1.291   5.858  10.682 -0.2430 -0.9857 -0.5198
 4059TIP3   OH233667   0.996   1.066  16.774 -0.2693 -0.0538 -0.6917
 4059TIP3    H133668   0.923   1.058  16.713 -1.6592  1.3934  0.6769
 4059TIP3    H233669   1.000   1.160  16.794  0.7126 -0.3697  0.7159
 4060TIP3   OH233670   4.727   0.274   2.498 -0.0229 -0.2175 -0.2229
 4060TIP3    H133671   4.664   0.338   2.464  0.4486  0.5045  0.2511
 4060TIP3    H233672   4.699   0.258   2.588  0.8783  0.6306  0.2118
 4061TIP3   OH233673   4.652   5.746  16.958  0.3759 -0.5544 -0.3904
 4061TIP3    H133674   4.621   5.755  16.868  0.3041  0.1959 -0.2939
 4061TIP3    H233675   4.740   5.708  16.950  1.6995  2.3779 -0.9772
 4062TIP3   OH233676   5.867   0.239  11.323  0.1672  0.5839  0.2958
 4062TIP3    H133677   5.850   0.332  11.305  1.6054  0.6720 -0.7639
 4062TIP3    H233678   5.832   0.193  11.247  0.5383  0.3658  0.2560
 4063TIP3   OH233679   2.346   0.304   1.698 -0.5479  0.3931  0.0947
 4063TIP3    H133680   2.287   0.358   1.750  2.4373  0.3042  4.0763
 4063TIP3    H233681   2.401   0.367   1.652 -0.0990  0.7065  1.0165
 4064TIP3   OH233682   0.995   5.922   1.029 -0.0168 -0.1695 -0.1911
 4064TIP3    H133683   1.016   6.010   1.060  1.0427 -0.5832  0.2710
 4064TIP3    H233684   0.968   5.935   0.938 -1.1773  0.7869  0.2505
 4065TIP3   OH233685   3.353   2.222  12.505 -0.2583  0.2693  0.7625
 4065TIP3    H133686   3.390   2.287  12.446 -1.0594  0.2703  0.2534
 4065TIP3    H233687   3.313   2.157  12.447 -1.0813  0.2853  1.3041
 4066TIP3   OH233688   0.685   0.883   3.296 -0.3560 -0.2087 -0.2454
 4066TIP3    H133689   0.606   0.837   3.265  0.1400 -1.4233  0.2347
 4066TIP3    H233690   0.756   0.843   3.247  0.0044  0.6581 -0.4363
 4067TIP3   OH233691   4.426   6.592  10.547  0.7496 -0.7001  0.2657
 4067TIP3    H133692   4.336   6.593  10.581  1.5059  1.1148  2.5398
 4067TIP3    H233693   4.456   6.503  10.563 -1.2093 -1.9933 -2.4742
 4068TIP3   OH233694   4.735   2.891  11.753 -0.0236  0.3053  0.0812
 4068TIP3    H133695   4.828   2.888  11.729  0.0168 -0.7747  0.2789
 4068TIP3    H233696   4.734   2.858  11.843 -0.6163  0.1415  0.0151
 4069TIP3   OH233697   1.198   5.728   2.357  0.4587  0.7452  0.7765
 4069TIP3    H133698   1.113   5.756   2.391  0.1795 -1.0818  1.6962
 4069TIP3    H233699   1.239   5.809   2.325 -1.5746  1.6664  0.3606
 4070TIP3   OH233700   3.288   3.977  14.769 -0.1207 -0.1077 -0.8775
 4070TIP3    H133701   3.337   3.936  14.840  0.1971  0.6699 -0.6434
 4070TIP3    H233702   3.354   3.997  14.703 -0.1477  0.7613 -0.6450
 4071TIP3   OH233703   3.461   3.998   0.836 -0.4000  0.1261 -0.1780
 4071TIP3    H133704   3.407   3.921   0.817 -0.9981  0.5577 -0.2854
 4071TIP3    H233705   3.406   4.072   0.810 -0.0768  0.6129  0.4961
 4072TIP3   OH233706   1.088   2.415   3.553 -0.0234  0.2154 -0.5278
 4072TIP3    H133707   1.039   2.381   3.628  0.5620  0.4595 -0.0303
 4072TIP3    H233708   1.024   2.414   3.481  0.0688 -2.3127 -0.6553
 4073TIP3   OH233709   2.717   4.658  14.669 -0.2560  0.3352  0.4906
 4073TIP3    H133710   2.801   4.699  14.689 -1.0275  0.8904  2.9687
 4073TIP3    H233711   2.652   4.715  14.709 -2.0272  0.7446 -2.6665
 4074TIP3   OH233712   5.074   4.225   4.929  0.6403 -0.2661 -0.4947
 4074TIP3    H133713   5.099   4.308   4.968  0.4775 -0.3120 -0.2914
 4074TIP3    H233714   5.134   4.214   4.855  0.7363 -0.0250 -0.4534
 4075TIP3   OH233715   6.851   6.239  15.229 -0.2796 -0.3610  0.0071
 4075TIP3    H133716   6.799   6.275  15.301  0.4204  2.2611 -0.6634
 4075TIP3    H233717   6.877   6.316  15.178  1.0997 -1.9219 -1.7978
 4076TIP3   OH233718   3.349   1.641   2.532 -0.4634 -0.1336  0.3366
 4076TIP3    H133719   3.428   1.695   2.531 -0.2162 -0.5013 -0.1280
 4076TIP3    H233720   3.277   1.704   2.543 -0.2018  0.3198 -0.4643
 4077TIP3   OH233721   2.945   2.400  15.477 -0.5709 -0.5562 -0.0044
 4077TIP3    H133722   2.927   2.342  15.551  1.8007 -0.3914  0.7917
 4077TIP3    H233723   2.872   2.462  15.478 -1.5175 -1.6297  1.0884
 4078TIP3   OH233724   6.296   4.115  14.123  0.1213  0.1000  0.6000
 4078TIP3    H133725   6.335   4.028  14.134  0.2627 -0.0064 -0.6416
 4078TIP3    H233726   6.333   4.167  14.195  1.0364 -0.5218  0.5911
 4079TIP3   OH233727   5.272   6.293   2.846  0.5405  0.4045 -0.6204
 4079TIP3    H133728   5.344   6.344   2.884  0.7049 -0.4558  0.2831
 4079TIP3    H233729   5.251   6.338   2.765  1.2089  1.4429 -0.2439
 4080TIP3   OH233730   5.854   0.336   4.767  0.0915  0.2626 -0.3838
 4080TIP3    H133731   5.948   0.353   4.753  0.2706 -2.1344 -2.9536
 4080TIP3    H233732   5.810   0.388   4.700 -0.3612  0.5158  0.0999
 4081TIP3   OH233733   1.789   0.261   2.584 -0.1162 -0.3679 -0.2004
 4081TIP3    H133734   1.864   0.202   2.590  1.0492  1.0701 -0.1226
 4081TIP3    H233735   1.821   0.345   2.617 -1.5208  0.5124 -0.9538
 4082TIP3   OH233736   3.676   2.914   1.233  0.6435  0.0098  0.0489
 4082TIP3    H133737   3.670   2.900   1.327 -0.9708 -2.2563 -0.2933
 4082TIP3    H233738   3.703   2.829   1.198 -1.9385 -0.1894 -1.7193
 4083TIP3   OH233739   4.502   3.946  17.018  0.0753 -0.0817 -0.1264
 4083TIP3    H133740   4.483   3.852  17.015 -0.5186  0.0125  0.5332
 4083TIP3    H233741   4.528   3.968  16.929 -0.1666 -0.7945 -0.3790
 4084TIP3   OH233742   5.567   0.278   3.865  0.1965  0.8967  0.0519
 4084TIP3    H133743   5.660   0.259   3.866 -0.1827 -1.3160 -0.9569
 4084TIP3    H233744   5.542   0.282   3.957  1.0770  0.2420  0.3305
 4085TIP3   OH233745   4.552   0.960  13.669  0.4888  0.0497 -0.4337
 4085TIP3    H133746   4.497   0.959  13.591 -1.9855 -1.2687  1.1644
 4085TIP3    H233747   4.518   1.033  13.721  0.5234 -0.5025  0.3901
 4086TIP3   OH233748   6.008   0.596  15.404  0.1544  0.8361 -0.0497
 4086TIP3    H133749   6.020   0.608  15.498  0.3007 -0.1506  0.0732
 4086TIP3    H233750   6.071   0.655  15.363 -0.2455  1.6217  0.4599
 4087TIP3   OH233751   2.804   5.077  14.428 -0.0631  0.3927 -0.4990
 4087TIP3    H133752   2.865   5.101  14.498  0.0874 -0.3962 -0.3495
 4087TIP3    H233753   2.849   5.007  14.381 -0.5514  0.2975 -0.8268
 4088TIP3   OH233754   0.471   4.532   6.292 -0.3281 -0.0880 -0.2356
 4088TIP3    H133755   0.419   4.518   6.371 -0.7622 -0.6157 -0.6094
 4088TIP3    H233756   0.411   4.514   6.220  0.9525 -3.0991 -0.7056
 4089TIP3   OH233757   5.220   2.793   0.082 -0.2994  0.7731 -0.5158
 4089TIP3    H133758   5.146   2.846   0.050  0.4298  2.0603 -0.1617
 4089TIP3    H233759   5.288   2.858   0.102  0.4891 -0.2902  0.3275
 4090TIP3   OH233760   0.197   2.909  16.210 -0.5459  0.1770  0.4873
 4090TIP3    H133761   0.146   2.947  16.281  0.9105 -0.4358  1.9282
 4090TIP3    H233762   0.192   2.814  16.224  3.3966  0.0661  2.6441
 4091TIP3   OH233763   2.439   0.272   1.233 -0.6325 -0.6035  0.2159
 4091TIP3    H133764   2.453   0.284   1.139  0.2039 -0.1628  0.3889
 4091TIP3    H233765   2.367   0.331   1.255 -1.5496 -1.4800 -0.3279
 4092TIP3   OH233766   5.668   4.072  10.875 -0.1943 -0.6258  0.3221
 4092TIP3    H133767   5.709   3.993  10.842 -1.2084 -1.1944  0.3985
 4092TIP3    H233768   5.585   4.079  10.828 -0.9105 -0.5645  1.5311
 4093TIP3   OH233769   5.743   1.544   4.203 -0.2054  0.1420  0.1418
 4093TIP3    H133770   5.732   1.639   4.208  0.0911  0.1212  1.6363
 4093TIP3    H233771   5.658   1.511   4.176  0.0340  0.8940 -1.6822
 4094TIP3   OH233772   3.019   3.696   2.418 -0.1882 -0.4395  0.0246
 4094TIP3    H133773   2.962   3.645   2.475 -0.1258  1.2622  1.7135
 4094TIP3    H233774   2.987   3.678   2.329 -2.3899 -0.6855  0.8103
 4095TIP3   OH233775   2.319   4.070  12.465 -0.1184  0.3284  0.0389
 4095TIP3    H133776   2.398   4.040  12.509  0.3018  0.0284 -0.8909
 4095TIP3    H233777   2.250   4.061  12.531  0.3024 -1.0560  0.3206
 4096TIP3   OH233778   6.092   4.659  11.347 -0.6137 -0.2571  0.0434
 4096TIP3    H133779   6.138   4.721  11.290 -1.9799  1.0964  0.3227
 4096TIP3    H233780   6.085   4.705  11.431 -3.0738 -0.0633 -0.2021
 4097TIP3   OH233781   0.861   1.277  12.496  0.4122  0.0569  0.3241
 4097TIP3    H133782   0.900   1.350  12.544  0.6526 -0.0788  0.3393
 4097TIP3    H233783   0.933   1.242  12.444 -0.3744  1.6958 -2.0097
 4098TIP3   OH233784   5.190   2.329  14.451  0.5731 -0.0487 -0.2017
 4098TIP3    H133785   5.116   2.275  14.422 -0.0597  0.7622 -0.1369
 4098TIP3    H233786   5.170   2.352  14.542 -0.6371  2.6080 -1.0195
 4099TIP3   OH233787   6.415   1.564   6.365 -0.2160 -0.0272 -0.7343
 4099TIP3    H133788   6.474   1.499   6.404 -1.1087 -0.6502 -0.4082
 4099TIP3    H233789   6.425   1.642   6.420 -1.5048 -0.9119  0.8134
 4100TIP3   OH233790   6.277   6.572   4.374  1.0145  0.0107  0.5904
 4100TIP3    H133791   6.330   6.650   4.390 -4.0566  4.4470 -1.3129
 4100TIP3    H233792   6.320   6.529   4.300  3.4207  1.6005  0.9538
 4101TIP3   OH233793   5.746   6.357  15.137  0.1980  0.2295  0.2810
 4101TIP3    H133794   5.658   6.320  15.145 -0.5182  1.4143 -1.5357
 4101TIP3    H233795   5.746   6.402  15.053  2.8877 -0.5618 -0.2340
 4102TIP3   OH233796   6.679   0.439   6.116  0.9406  0.2982 -0.9351
 4102TIP3    H133797   6.695   0.365   6.057  2.6046  0.5179 -0.8011
 4102TIP3    H233798   6.766   0.470   6.140  0.3978 -0.2956  2.3279
 4103TIP3   OH233799   0.855   4.958  11.617  0.2256 -0.2950  0.4320
 4103TIP3    H133800   0.930   4.974  11.675  1.3290  0.3773 -1.1006
 4103TIP3    H233801   0.871   5.015  11.542 -1.4410 -0.7297 -0.2908
 4104TIP3   OH233802   6.377   4.039   4.093 -0.3623 -0.0250 -0.9839
 4104TIP3    H133803   6.302   4.094   4.114 -1.9666 -1.3735 -2.7734
 4104TIP3    H233804   6.346   3.950   4.109  1.4398 -0.5638 -0.2094
 4105TIP3   OH233805   0.405   5.593  14.831  0.3224  0.5327 -0.1536
 4105TIP3    H133806   0.351   5.533  14.882 -1.2380  1.2821 -0.8492
 4105TIP3    H233807   0.494   5.561  14.842 -0.2614 -0.7690  1.0203
 4106TIP3   OH233808   4.004   5.823   1.073  0.3230  0.2865  0.4021
 4106TIP3    H133809   3.979   5.910   1.043  0.0899 -0.2827 -1.1526
 4106TIP3    H233810   3.962   5.764   1.010  2.2395 -0.8641  0.1358
 4107TIP3   OH233811   3.407   1.011   3.998 -0.2419  0.3612 -0.4335
 4107TIP3    H133812   3.421   0.921   3.969 -0.6191 -0.1251  0.8348
 4107TIP3    H233813   3.473   1.025   4.066  0.1087  1.2047 -0.9309
 4108TIP3   OH233814   0.486   4.116  11.820 -0.1418 -0.5328 -0.1799
 4108TIP3    H133815   0.514   4.031  11.785 -1.0730 -1.1366  0.4907
 4108TIP3    H233816   0.475   4.102  11.914 -0.8150  0.1773 -0.1359
 4109TIP3   OH233817   0.574   5.344  12.974 -0.8514  0.2977  0.1990
 4109TIP3    H133818   0.534   5.334  12.888 -0.4451  1.6258 -0.1655
 4109TIP3    H233819   0.558   5.436  12.998  0.8887  0.5337  0.5732
 4110TIP3   OH233820   3.493   6.849  11.602 -0.1113 -0.3452 -0.0198
 4110TIP3    H133821   3.436   6.925  11.620  0.0462  0.2856 -1.9533
 4110TIP3    H233822   3.552   6.879  11.534 -0.6117 -2.4719 -1.4908
 4111TIP3   OH233823   0.828   6.466  12.691 -0.3300 -0.4866 -0.7693
 4111TIP3    H133824   0.895   6.401  12.671  0.4198 -0.1004  0.4149
 4111TIP3    H233825   0.873   6.550  12.682 -0.9969 -0.1644 -1.1943
 4112TIP3   OH233826   0.746   3.429  11.048 -0.1724 -0.5908  0.3561
 4112TIP3    H133827   0.677   3.447  10.984  0.3759 -1.4509 -0.5086
 4112TIP3    H233828   0.819   3.484  11.020 -0.6923  0.8700  1.6930
 4113TIP3   OH233829   1.214   0.218  12.276 -0.2495 -0.5227 -0.7134
 4113TIP3    H133830   1.202   0.227  12.182  1.5100  0.0701 -0.9175
 4113TIP3    H233831   1.184   0.129  12.296 -1.3121 -0.4100 -1.6836
 4114TIP3   OH233832   1.285   3.954  16.319 -0.3786 -0.3933 -0.2463
 4114TIP3    H133833   1.374   3.971  16.349 -0.2561  0.7209 -1.1668
 4114TIP3    H233834   1.230   3.968  16.396  0.1289  0.2149  0.0132
 4115TIP3   OH233835   1.349   3.249  14.155  0.4344 -0.4468 -1.2268
 4115TIP3    H133836   1.375   3.224  14.066  0.6856  1.5975 -1.7846
 4115TIP3    H233837   1.269   3.199  14.171  0.6211 -1.1828 -2.4368
 4116TIP3   OH233838   2.345   0.637  15.730 -0.1327 -0.2793  0.4024
 4116TIP3    H133839   2.360   0.655  15.822 -1.3286 -1.8204  0.9464
 4116TIP3    H233840   2.266   0.687  15.708  0.1196  0.0433  0.2138
 4117TIP3   OH233841   2.123   3.881   4.638 -0.3718 -0.0197 -0.3189
 4117TIP3    H133842   2.121   3.944   4.566  0.7373 -0.5893 -0.8739
 4117TIP3    H233843   2.210   3.841   4.632 -0.2844 -0.1217  1.3087
 4118TIP3   OH233844   6.598   1.546   0.230 -0.1280  0.3276  0.8183
 4118TIP3    H133845   6.533   1.612   0.206 -1.4542 -1.6336 -1.2909
 4118TIP3    H233846   6.575   1.522   0.320 -0.0174  2.1966  1.3962
 4119TIP3   OH233847   4.203   6.175   1.098  0.4102  0.7468 -0.6023
 4119TIP3    H133848   4.195   6.258   1.146 -2.2902  1.1871 -1.6667
 4119TIP3    H233849   4.278   6.189   1.040  0.8944  1.8833  0.2424
 4120TIP3   OH233850   3.013   3.348  11.465  0.0611  0.3010 -0.1752
 4120TIP3    H133851   2.974   3.264  11.489 -0.2805  0.4013 -0.3749
 4120TIP3    H233852   3.106   3.338  11.486  0.3843 -0.7844 -1.8723
 4121TIP3   OH233853   3.788   1.491   2.594 -0.0569  0.0236 -0.2309
 4121TIP3    H133854   3.784   1.497   2.499  0.5011  0.2108 -0.2487
 4121TIP3    H233855   3.752   1.404   2.614 -0.5576  0.1471 -0.5786
 4122TIP3   OH233856   5.629   6.581   3.665 -0.0948 -0.1080  0.1457
 4122TIP3    H133857   5.681   6.646   3.712  0.3434 -0.0667 -0.3878
 4122TIP3    H233858   5.544   6.581   3.710  0.3988 -0.2719  1.1026
 4123TIP3   OH233859   6.328   6.527  12.701 -0.2007 -0.0922  0.5720
 4123TIP3    H133860   6.295   6.449  12.657 -0.3478 -0.1023  0.7000
 4123TIP3    H233861   6.332   6.504  12.793 -3.2205  0.9919  1.1035
 4124TIP3   OH233862   0.723   6.822  11.416  0.6556 -0.2802 -0.4460
 4124TIP3    H133863   0.715   6.892  11.352  0.5888  0.6154  0.5064
 4124TIP3    H233864   0.722   6.741  11.365  0.5478  0.4080 -1.5491
 4125TIP3   OH233865   0.999   0.777   1.837  0.2564 -0.1281 -0.7587
 4125TIP3    H133866   1.047   0.859   1.842  1.1787 -0.6655 -0.4747
 4125TIP3    H233867   0.951   0.772   1.919 -1.0639  0.8614 -1.4439
 4126TIP3   OH233868   2.064   2.377  17.056  0.3657 -0.2474  0.5627
 4126TIP3    H133869   2.006   2.399  17.128 -0.4790  0.0805 -0.2074
 4126TIP3    H233870   2.121   2.453  17.046 -0.5858  0.3835 -0.1599
 4127TIP3   OH233871   6.622   3.608  13.229  0.3121 -0.3731 -0.3733
 4127TIP3    H133872   6.648   3.651  13.147 -0.3263  0.5888 -0.0842
 4127TIP3    H233873   6.604   3.517  13.203  1.4488 -0.4273 -1.0356
 4128TIP3   OH233874   4.034   4.409   2.398 -0.6336 -0.1945 -0.1472
 4128TIP3    H133875   4.105   4.407   2.333 -0.0680 -0.6808  0.4722
 4128TIP3    H233876   3.964   4.356   2.359  0.0797 -1.3216  0.0608
 4129TIP3   OH233877   0.709   1.520   5.863  0.0989  0.0137  0.1435
 4129TIP3    H133878   0.644   1.478   5.921  0.6443  0.7359  1.3080
 4129TIP3    H233879   0.685   1.489   5.776 -3.1263  1.8629  0.2179
 4130TIP3   OH233880   5.577   2.305   3.958  0.4461  0.6620 -0.1155
 4130TIP3    H133881   5.493   2.348   3.946 -0.8487 -1.6561  0.1263
 4130TIP3    H233882   5.605   2.330   4.046 -1.6211 -1.0688  1.1127
 4131TIP3   OH233883   1.165   4.570  12.190  0.3323 -0.4207  0.7275
 4131TIP3    H133884   1.082   4.543  12.152 -0.5596 -0.0862  2.3462
 4131TIP3    H233885   1.212   4.488  12.206 -0.2659 -0.7015  1.0530
 4132TIP3   OH233886   0.446   5.876   3.709 -0.3710  0.0976  0.5138
 4132TIP3    H133887   0.474   5.961   3.743 -2.8120  0.6714  1.3396
 4132TIP3    H233888   0.470   5.814   3.778  0.6966  0.2175  0.2669
 4133TIP3   OH233889   4.485   1.273   6.335 -0.5113  0.3893  0.2854
 4133TIP3    H133890   4.445   1.188   6.356 -0.2125  0.2203  0.1797
 4133TIP3    H233891   4.515   1.306   6.420 -1.7075  0.9524  0.5024
 4134TIP3   OH233892   3.116   3.612  11.664  0.5189 -0.3545  0.8515
 4134TIP3    H133893   3.192   3.669  11.675 -0.7132  1.5058  0.2831
 4134TIP3    H233894   3.117   3.588  11.571  2.1576 -3.0476  1.4590
 4135TIP3   OH233895   1.303   0.960  11.927  0.0552 -0.0151  0.5710
 4135TIP3    H133896   1.321   0.866  11.921  0.8659  0.1851 -0.5233
 4135TIP3    H233897   1.389   1.001  11.923 -0.3565  0.8180 -0.1867
 4136TIP3   OH233898   0.974   0.409  16.942  0.6562  0.2957 -0.0451
 4136TIP3    H133899   0.883   0.430  16.964  0.5886 -0.7354  0.7260
 4136TIP3    H233900   0.971   0.318  16.913  1.8126 -0.7459  2.7439
 4137TIP3   OH233901   2.296   6.311   1.532 -0.0097  0.3563  0.4510
 4137TIP3    H133902   2.216   6.288   1.579 -1.6168  0.0822 -2.2247
 4137TIP3    H233903   2.271   6.385   1.476  1.7923  0.6630 -0.0273
 4138TIP3   OH233904   6.001   0.041   4.296 -0.5712  0.4296  0.3366
 4138TIP3    H133905   5.955  -0.039   4.322 -0.3269  0.8857  2.2639
 4138TIP3    H233906   6.062   0.012   4.228  2.1499 -1.8479  3.4516
 4139TIP3   OH233907   5.897   0.023   5.401  0.4548 -0.4941 -0.0553
 4139TIP3    H133908   5.809   0.031   5.363  0.2176  1.5169  0.8042
 4139TIP3    H233909   5.953   0.077   5.344  0.5123  0.7350  1.1093
 4140TIP3   OH233910   3.489   2.324   2.492 -0.4231  0.2931  0.4391
 4140TIP3    H133911   3.552   2.253   2.503  1.6626  1.7915 -1.0113
 4140TIP3    H233912   3.406   2.287   2.522  1.4203 -1.1288  4.4600
 4141TIP3   OH233913   4.391   5.262   0.369 -1.2959  0.2828  0.0923
 4141TIP3    H133914   4.477   5.226   0.345 -1.7972 -0.5088 -0.5856
 4141TIP3    H233915   4.336   5.245   0.292 -2.0380  0.8691  0.4808
 4142TIP3   OH233916   5.469   6.712  16.957 -0.3038  0.4463 -0.0188
 4142TIP3    H133917   5.492   6.627  16.918 -1.0474 -0.0195  0.5324
 4142TIP3    H233918   5.503   6.777  16.895 -0.1134 -0.2593 -0.6673
 4143TIP3   OH233919   3.914   3.773   0.691  0.0122 -0.2181  1.2522
 4143TIP3    H133920   3.885   3.757   0.780  0.0174  0.7349  1.4322
 4143TIP3    H233921   3.889   3.864   0.673  1.2870  0.0555  0.7884
 4144TIP3   OH233922   1.220   2.637   1.309  0.0452  0.4249 -0.3196
 4144TIP3    H133923   1.248   2.640   1.218  2.6665 -2.3616  0.2111
 4144TIP3    H233924   1.299   2.612   1.358 -1.5492  0.4897  2.5399
 4145TIP3   OH233925   2.533   4.843   4.077  0.1248  0.0841  0.1081
 4145TIP3    H133926   2.555   4.935   4.090 -0.1065  0.0523  0.7348
 4145TIP3    H233927   2.437   4.843   4.066  0.0740 -0.1255  0.5352
 4146TIP3   OH233928   0.926   5.373   2.321 -0.1124  0.3083  0.1694
 4146TIP3    H133929   1.004   5.351   2.270  0.6277  2.3014  0.3722
 4146TIP3    H233930   0.949   5.352   2.411 -0.4299 -0.6377  0.0424
 4147TIP3   OH233931   2.333   4.732  10.635  0.2533  0.0320 -0.0754
 4147TIP3    H133932   2.384   4.808  10.662 -0.3262  0.5941 -0.5512
 4147TIP3    H233933   2.336   4.733  10.540 -0.1967 -0.2404 -0.0975
 4148TIP3   OH233934   0.204   5.056   3.400 -0.5208  0.5638 -0.2977
 4148TIP3    H133935   0.280   5.040   3.455 -1.0467 -2.6583 -0.3348
 4148TIP3    H233936   0.154   5.124   3.447  0.3555 -0.1740  1.8117
 4149TIP3   OH233937   3.144   3.711   4.902 -0.2052 -0.0639 -0.3947
 4149TIP3    H133938   3.105   3.798   4.893 -0.4689 -0.0002  1.0592
 4149TIP3    H233939   3.237   3.724   4.882 -0.2408  0.5515 -0.1791
 4150TIP3   OH233940   1.432   4.656   3.387 -0.6991 -0.1634 -0.4541
 4150TIP3    H133941   1.469   4.657   3.299  0.8966  0.8968  0.1761
 4150TIP3    H233942   1.502   4.621   3.442 -1.5918 -0.6018  0.4397
 4151TIP3   OH233943   2.806   5.182   1.798 -1.0133  0.1314  0.4299
 4151TIP3    H133944   2.848   5.157   1.715 -1.1424  0.1706  0.3532
 4151TIP3    H233945   2.814   5.277   1.801 -0.1660  0.0577  0.9092
 4152TIP3   OH233946   4.346   3.630   4.841 -0.1445 -0.6320  0.5365
 4152TIP3    H133947   4.298   3.699   4.795  1.2473  0.9325  1.3214
 4152TIP3    H233948   4.398   3.588   4.773  1.2736  1.1230  0.4390
 4153TIP3   OH233949   0.343   3.420   4.534  0.5414  0.2483 -0.0750
 4153TIP3    H133950   0.345   3.451   4.444  0.5357  2.4449  0.6079
 4153TIP3    H233951   0.419   3.362   4.542  0.0757 -0.6230 -1.6719
 4154TIP3   OH233952   2.328   2.384  12.802  0.4938  0.3250  0.0737
 4154TIP3    H133953   2.345   2.434  12.882  0.6323 -0.1835  0.3671
 4154TIP3    H233954   2.409   2.391  12.751  1.6087 -1.9060  1.3648
 4155TIP3   OH233955   0.912   5.646   5.220  0.1663 -0.3442 -0.5769
 4155TIP3    H133956   0.990   5.658   5.165 -0.0487  0.2086 -0.7633
 4155TIP3    H233957   0.839   5.656   5.160 -0.0470 -1.2588 -0.4750
 4156TIP3   OH233958   5.290   3.483   3.416  0.2236  0.5219 -0.8103
 4156TIP3    H133959   5.310   3.507   3.506 -0.5018  0.0613 -0.5167
 4156TIP3    H233960   5.202   3.444   3.420  0.5474 -0.3226 -1.5747
 4157TIP3   OH233961   4.825   0.256   4.678  1.0817  0.2308  0.4261
 4157TIP3    H133962   4.784   0.249   4.764 -0.4750 -0.7495 -0.3656
 4157TIP3    H233963   4.901   0.198   4.683  0.7498 -0.1639  1.0065
 4158TIP3   OH233964   4.348   0.504  11.696  0.1459  0.1781 -0.6764
 4158TIP3    H133965   4.339   0.550  11.779  0.1704 -0.5920 -0.2402
 4158TIP3    H233966   4.271   0.446  11.693 -0.4194  0.9384 -1.6709
 4159TIP3   OH233967   3.768   4.271   1.356  0.3473  0.4124 -0.1066
 4159TIP3    H133968   3.787   4.203   1.421  0.3178  1.4738  1.0539
 4159TIP3    H233969   3.697   4.235   1.302 -0.1509 -0.1905  0.9333
 4160TIP3   OH233970   5.788   4.442   4.622  0.5336  0.6882 -0.3948
 4160TIP3    H133971   5.812   4.349   4.616 -0.1857  0.4256  0.5018
 4160TIP3    H233972   5.848   4.486   4.562  3.2188  0.0911  1.6584
 4161TIP3   OH233973   4.340   2.442  12.283 -0.2457  0.5131 -0.1920
 4161TIP3    H133974   4.404   2.374  12.261 -1.7595  0.0031 -3.6815
 4161TIP3    H233975   4.362   2.468  12.373  3.6579 -0.8633 -0.5674
 4162TIP3   OH233976   3.338   6.791  13.232  0.3744 -0.6741  0.1887
 4162TIP3    H133977   3.274   6.824  13.295  1.5761  2.7749 -0.1936
 4162TIP3    H233978   3.422   6.794  13.279  1.2263  1.5761 -1.3179
 4163TIP3   OH233979   6.781   6.600   2.126 -0.3110  0.0128 -0.3048
 4163TIP3    H133980   6.715   6.550   2.174  0.1877  0.0130  0.3879
 4163TIP3    H233981   6.787   6.683   2.173 -0.2424  0.2506 -0.7235
 4164TIP3   OH233982   5.852   2.528  14.063  0.1215  0.2901  0.5718
 4164TIP3    H133983   5.825   2.512  13.972  0.0360  3.2637 -0.0446
 4164TIP3    H233984   5.772   2.562  14.105  0.8939  1.8121  0.8749
 4165TIP3   OH233985   4.189   4.479  13.566 -0.3400 -0.5743  0.0503
 4165TIP3    H133986   4.271   4.471  13.614 -0.6087  0.6403  0.7563
 4165TIP3    H233987   4.207   4.545  13.499 -0.4947 -0.9447 -0.3631
 4166TIP3   OH233988   2.478   4.794   4.709  0.4902 -0.0634  0.0182
 4166TIP3    H133989   2.388   4.772   4.735 -0.8327  1.2102 -2.9913
 4166TIP3    H233990   2.524   4.710   4.708 -1.6624 -1.3211 -1.6094
 4167TIP3   OH233991   2.641   3.838  13.130 -0.6197  0.5164 -0.0045
 4167TIP3    H133992   2.670   3.916  13.081  0.2482 -0.2322 -0.7137
 4167TIP3    H233993   2.699   3.768  13.100 -0.8809 -0.2434  1.1986
 4168TIP3   OH233994   3.726   1.532  16.954 -0.1205  0.8050  0.2432
 4168TIP3    H133995   3.796   1.468  16.945  0.4888  1.6691 -1.7311
 4168TIP3    H233996   3.728   1.558  17.046  1.3636 -0.0501  0.4737
 4169TIP3   OH233997   6.348   6.741   0.023 -0.3532 -0.5403  0.0648
 4169TIP3    H133998   6.272   6.731  -0.035  1.0078  0.2851 -1.9837
 4169TIP3    H233999   6.341   6.830   0.056  0.3867  0.0077 -1.1939
 4170TIP3   OH234000   6.486   0.930   1.678  0.1025 -0.1314  0.6993
 4170TIP3    H134001   6.556   0.993   1.693 -0.2547  0.3156  0.4892
 4170TIP3    H234002   6.531   0.846   1.667  0.8100  0.5024 -1.7970
 4171TIP3   OH234003   2.647   6.593  14.475 -0.7420 -0.1303 -0.1102
 4171TIP3    H134004   2.695   6.617  14.397  0.3935 -0.4091  0.4822
 4171TIP3    H234005   2.701   6.526  14.518 -0.3358  1.3572  1.8842
 4172TIP3   OH234006   6.798   5.810   1.586  0.3146  0.2541  0.0123
 4172TIP3    H134007   6.809   5.833   1.678 -0.0693  0.8307 -0.0807
 4172TIP3    H234008   6.742   5.879   1.550  1.5954  0.8369 -0.9864
 4173TIP3   OH234009   3.824   4.128   5.581 -0.0930 -0.7339 -0.0586
 4173TIP3    H134010   3.817   4.223   5.577 -0.7318 -0.7717  0.0344
 4173TIP3    H234011   3.868   4.111   5.664  2.0275 -0.4464 -1.0478
 4174TIP3   OH234012   2.011   0.096   2.586 -0.1137  0.5533 -0.3572
 4174TIP3    H134013   2.056   0.130   2.664 -0.1488  1.5541 -0.7485
 4174TIP3    H234014   2.074   0.036   2.546 -0.0579  0.1105  0.3783
 4175TIP3   OH234015   0.322   1.327  14.894  0.4820 -0.4177 -0.4503
 4175TIP3    H134016   0.345   1.411  14.933  0.4535 -0.4840 -0.2903
 4175TIP3    H234017   0.245   1.345  14.841 -1.5019 -0.9596  2.0650
 4176TIP3   OH234018   3.362   3.202  14.122  0.9515  0.3229  0.0381
 4176TIP3    H134019   3.350   3.294  14.097 -0.4448  0.3532  0.7481
 4176TIP3    H234020   3.410   3.163  14.049  0.3804  1.3068 -0.8861
 4177TIP3   OH234021   3.749   0.189  14.660  0.4341  0.1436 -0.3559
 4177TIP3    H134022   3.827   0.216  14.611  1.7261 -0.1231  1.4753
 4177TIP3    H234023   3.684   0.257  14.639  1.1682  0.4443 -1.8118
 4178TIP3   OH234024   6.302   6.323   0.974  0.3861 -0.0243  0.6881
 4178TIP3    H134025   6.297   6.360   0.886 -0.6406 -1.9766 -0.1239
 4178TIP3    H234026   6.240   6.374   1.025  0.4611  0.6585  0.1180
 4179TIP3   OH234027   0.125   6.163  16.620 -0.4032  0.0694 -0.5404
 4179TIP3    H134028   0.102   6.095  16.557 -1.4102  0.1786 -0.3003
 4179TIP3    H234029   0.063   6.234  16.604 -0.4519  0.2448  0.3352
 4180TIP3   OH234030   1.788   5.202  12.673 -0.7931  0.3916  0.0453
 4180TIP3    H134031   1.773   5.291  12.705 -0.3352  0.2361  0.7059
 4180TIP3    H234032   1.756   5.203  12.583  2.3328  2.1829 -1.1680
 4181TIP3   OH234033   3.762   1.398   5.993 -0.0445  0.4582  0.5610
 4181TIP3    H134034   3.729   1.310   5.975  2.7730 -0.4632 -0.5618
 4181TIP3    H234035   3.759   1.405   6.089 -1.9756 -0.1133  0.5842
 4182TIP3   OH234036   5.720   6.449  15.650 -0.4174  0.4068 -0.5313
 4182TIP3    H134037   5.692   6.359  15.664  0.3906  0.4464  1.8526
 4182TIP3    H234038   5.773   6.446  15.570  1.4818 -1.7481  0.6987
 4183TIP3   OH234039   5.321   5.309  11.663 -0.0248 -0.6404 -0.1234
 4183TIP3    H134040   5.384   5.286  11.731 -0.3787  0.9229  0.7735
 4183TIP3    H234041   5.294   5.224  11.626  1.6536 -1.4089  0.2924
 4184TIP3   OH234042   5.692   5.139   5.135  0.2867 -0.3498 -0.4654
 4184TIP3    H134043   5.726   5.050   5.129  1.1420 -0.0009 -0.9623
 4184TIP3    H234044   5.770   5.195   5.137 -0.2382  0.4017 -0.3199
 4185TIP3   OH234045   5.072   5.243  10.974  0.2898 -0.2460  0.1550
 4185TIP3    H134046   4.993   5.241  10.920  0.2672  0.2227  0.1644
 4185TIP3    H234047   5.120   5.320  10.942  1.4776 -1.3644 -0.8754
 4186TIP3   OH234048   2.546   6.380   5.941 -0.1236 -0.1172 -0.3931
 4186TIP3    H134049   2.474   6.390   5.879  0.4976  2.0627 -0.8566
 4186TIP3    H234050   2.582   6.468   5.950  2.4298 -1.0992 -0.1267
 4187TIP3   OH234051   4.782   2.110   1.532 -0.2008 -0.0645 -0.3389
 4187TIP3    H134052   4.759   2.184   1.588  0.2521 -0.1530 -0.0288
 4187TIP3    H234053   4.876   2.099   1.545 -0.4263 -1.3559  0.4319
 4188TIP3   OH234054   2.510   2.945   4.533  0.0175  0.7755  0.0273
 4188TIP3    H134055   2.533   3.035   4.558  0.8756  1.3335 -2.4435
 4188TIP3    H234056   2.538   2.938   4.442  0.7167 -2.2914  0.3634
 4189TIP3   OH234057   1.324   3.384  10.865  0.3770 -0.2189 -0.0095
 4189TIP3    H134058   1.237   3.356  10.838  0.2225  0.7172 -0.5084
 4189TIP3    H234059   1.383   3.316  10.831 -0.0150 -0.1044 -0.9405
 4190TIP3   OH234060   2.999   4.033  14.278  0.4587 -0.9633 -0.3447
 4190TIP3    H134061   2.924   4.074  14.234  0.3664 -2.4675 -1.6978
 4190TIP3    H234062   3.036   4.102  14.332 -0.6859  0.3957 -1.2290
 4191TIP3   OH234063   0.588   6.219   2.173  0.2437  0.7674  0.3931
 4191TIP3    H134064   0.546   6.147   2.220  1.3576 -0.4950 -0.4998
 4191TIP3    H234065   0.521   6.287   2.170 -0.4035  0.2800  2.3688
 4192TIP3   OH234066   1.287   6.057  11.163 -0.2250  0.0939 -0.1314
 4192TIP3    H134067   1.314   5.966  11.176  0.2203  0.3280  0.6731
 4192TIP3    H234068   1.369   6.104  11.148 -0.5540  0.1667 -1.9119
 4193TIP3   OH234069   6.264   4.811  11.975 -0.5201 -0.1126 -0.1295
 4193TIP3    H134070   6.212   4.850  12.046  1.3970  1.9705  0.2088
 4193TIP3    H234071   6.280   4.722  12.004 -0.5956  0.4096  1.6086
 4194TIP3   OH234072   0.832   0.887  15.722  0.2830  0.2478  0.3440
 4194TIP3    H134073   0.763   0.873  15.786 -0.2587 -0.7290 -0.4243
 4194TIP3    H234074   0.913   0.885  15.772  0.0064 -2.3133  0.7948
 4195TIP3   OH234075   4.975   1.692  16.643  0.3035 -0.2363 -0.4270
 4195TIP3    H134076   4.955   1.774  16.597 -1.2580  0.3609  1.1854
 4195TIP3    H234077   4.992   1.719  16.733 -1.3506 -1.7598  0.4076
 4196TIP3   OH234078   2.375   5.220  10.896 -0.0960 -0.1722 -0.1234
 4196TIP3    H134079   2.334   5.305  10.909  1.0655  0.3085  0.5261
 4196TIP3    H234080   2.353   5.196  10.806 -1.2019  0.3792 -0.0147
 4197TIP3   OH234081   4.130   5.427   5.804 -0.1649 -0.3468 -0.2854
 4197TIP3    H134082   4.167   5.339   5.803  0.0041 -0.3587  1.6671
 4197TIP3    H234083   4.050   5.418   5.856  0.2080  0.7452  0.5205
 4198TIP3   OH234084   3.943   0.393   1.235  0.2494  0.3388  0.0318
 4198TIP3    H134085   3.890   0.464   1.199 -1.2256 -0.8246 -0.1882
 4198TIP3    H234086   3.980   0.350   1.158  0.8942  0.6638  0.1526
 4199TIP3   OH234087   6.251   5.348  15.911 -0.4578 -0.6062 -0.2815
 4199TIP3    H134088   6.285   5.259  15.924 -0.0761 -0.5060 -0.5600
 4199TIP3    H234089   6.186   5.338  15.842 -0.3277 -0.6498 -0.3986
 4200TIP3   OH234090   5.581   0.864   1.409  0.1980 -0.0551  0.0666
 4200TIP3    H134091   5.563   0.826   1.494 -0.7706  0.5425  0.1399
 4200TIP3    H234092   5.645   0.933   1.426 -1.1956  1.1623  0.5862
 4201TIP3   OH234093   2.528   6.313  10.782  0.4680  0.1019  0.0806
 4201TIP3    H134094   2.527   6.251  10.855  1.5174 -0.0310  0.0040
 4201TIP3    H234095   2.494   6.262  10.708 -2.3287  0.7581  0.8172
 4202TIP3   OH234096   0.667   3.973   3.910 -0.1768  0.3794  0.1389
 4202TIP3    H134097   0.595   3.973   3.847  0.0754 -0.5390 -0.1651
 4202TIP3    H234098   0.745   3.958   3.856 -0.1147 -2.1282  0.8004
 4203TIP3   OH234099   5.505   6.709  14.314 -0.2718  0.4111 -0.0178
 4203TIP3    H134100   5.596   6.732  14.296  0.3448 -0.7130  1.5014
 4203TIP3    H234101   5.490   6.738  14.404 -0.8838 -0.9249  0.3321
 4204TIP3   OH234102   4.293   0.673  11.899 -0.4523  0.2652  0.3346
 4204TIP3    H134103   4.225   0.739  11.913 -0.5084  0.3862 -0.4614
 4204TIP3    H234104   4.352   0.684  11.973  0.2772  2.1285 -0.4669
 4205TIP3   OH234105   1.352   3.877  13.161  0.0389  0.0611 -0.0945
 4205TIP3    H134106   1.424   3.933  13.131 -0.1409  1.4469  1.8513
 4205TIP3    H234107   1.392   3.790  13.171  0.9292  0.3647 -0.8624
 4206TIP3   OH234108   1.148   0.478   5.659 -0.5973 -0.4294 -0.8148
 4206TIP3    H134109   1.197   0.559   5.643 -0.2230 -0.4422  0.2339
 4206TIP3    H234110   1.084   0.501   5.726 -0.8148 -0.8824 -0.8634
 4207TIP3   OH234111   4.795   0.521   5.530  0.6349 -0.5401 -0.1696
 4207TIP3    H134112   4.856   0.511   5.457  1.6105 -0.1416  0.5655
 4207TIP3    H234113   4.787   0.616   5.542  1.3428 -0.6014  0.9211
 4208TIP3   OH234114   4.262   1.922   4.514 -0.3222  0.3739 -0.2958
 4208TIP3    H134115   4.283   1.872   4.593 -0.2493  1.6547  0.5129
 4208TIP3    H234116   4.307   1.875   4.444 -1.4100 -1.5227  0.1981
 4209TIP3   OH234117   1.890   4.128  13.999  0.0365  0.1991  0.3434
 4209TIP3    H134118   1.893   4.155  14.091  0.0525 -0.9841  0.7135
 4209TIP3    H234119   1.896   4.032  14.003  1.1413  0.1996 -0.9556
 4210TIP3   OH234120   4.919   0.168  12.873  0.6247  0.2083 -0.1914
 4210TIP3    H134121   4.964   0.115  12.808  0.5502  0.7465 -0.6909
 4210TIP3    H234122   4.961   0.253  12.869 -0.7648  0.9003 -1.0756
 4211TIP3   OH234123   4.692   3.380   6.485  0.1456  0.0767 -0.2380
 4211TIP3    H134124   4.732   3.393   6.571 -1.2513 -0.3048  0.4965
 4211TIP3    H234125   4.705   3.463   6.439  0.5605  0.4182  0.4832
 4212TIP3   OH234126   0.586   1.837   3.640  0.4281 -0.2960  0.8165
 4212TIP3    H134127   0.626   1.799   3.719  1.5675 -1.0127 -0.0787
 4212TIP3    H234128   0.601   1.771   3.572 -1.1482 -0.0008  0.1327
 4213TIP3   OH234129   4.482   1.611  12.061 -0.4123 -0.7367 -0.8336
 4213TIP3    H134130   4.548   1.633  11.995 -0.6042 -2.1228 -1.5107
 4213TIP3    H234131   4.399   1.618  12.014 -0.9415  2.0542  0.2658
 4214TIP3   OH234132   6.203   4.510   4.672  0.2431 -0.2955 -0.4321
 4214TIP3    H134133   6.255   4.468   4.604  1.8742  0.4067  0.3216
 4214TIP3    H234134   6.265   4.526   4.744 -1.4179 -1.0840  1.2645
 4215TIP3   OH234135   6.747   3.879   0.815  0.0084  0.2153  0.1327
 4215TIP3    H134136   6.749   3.962   0.766  0.4004  0.7405  1.0231
 4215TIP3    H234137   6.761   3.812   0.748  2.8663  1.0344 -0.2181
 4216TIP3   OH234138   1.432   0.432  13.569 -0.5040 -0.0040  0.2225
 4216TIP3    H134139   1.509   0.487  13.583 -0.5886  0.3330 -0.5993
 4216TIP3    H234140   1.363   0.494  13.545 -0.5378 -0.4917 -0.9469
 4217TIP3   OH234141   6.741   5.077  11.937  0.3281  0.6992 -0.1581
 4217TIP3    H134142   6.673   5.011  11.927  2.1592 -1.1369 -1.1161
 4217TIP3    H234143   6.752   5.113  11.849  0.2176  1.3993  0.1084
 4218TIP3   OH234144   5.305   4.269  11.143 -0.3785  0.3237 -0.0182
 4218TIP3    H134145   5.280   4.197  11.201  1.3182 -1.1936 -1.0751
 4218TIP3    H234146   5.400   4.258  11.131 -0.7609  0.1060 -3.6703
 4219TIP3   OH234147   6.513   5.123   0.213 -0.2662 -0.4906  0.0832
 4219TIP3    H134148   6.606   5.128   0.235  0.0061 -0.5399 -0.9847
 4219TIP3    H234149   6.481   5.213   0.223 -0.0969 -0.4707  0.4387
 4220TIP3   OH234150   4.589   5.095  16.364 -0.1452  0.5383 -0.2455
 4220TIP3    H134151   4.543   5.028  16.314  0.0829  0.9257 -0.9794
 4220TIP3    H234152   4.542   5.099  16.448 -0.6048 -0.0236 -0.4737
 4221TIP3   OH234153   3.117   2.683  11.028  0.2973 -0.5250 -0.4769
 4221TIP3    H134154   3.110   2.774  11.001  0.7389 -0.3682 -0.0843
 4221TIP3    H234155   3.206   2.675  11.064 -0.0367 -0.8856  0.2946
 4222TIP3   OH234156   3.394   1.114  12.301 -0.4367 -0.0384 -0.3356
 4222TIP3    H134157   3.335   1.106  12.226 -0.2667  0.1486 -0.4930
 4222TIP3    H234158   3.337   1.112  12.377 -0.4352 -2.5142 -0.3462
 4223TIP3   OH234159   2.163   0.144  13.849 -0.0774  0.9627  0.3354
 4223TIP3    H134160   2.220   0.218  13.829  0.4370  0.9783  1.7482
 4223TIP3    H234161   2.163   0.092  13.769  1.0803  1.5170 -0.0553
 4224TIP3   OH234162   1.904   6.003  16.254  0.5963 -0.1025 -0.1982
 4224TIP3    H134163   1.813   5.975  16.256  0.7496 -0.6879 -1.2415
 4224TIP3    H234164   1.901   6.091  16.217  0.6523 -1.0517 -2.6138
 4225TIP3   OH234165   6.437   2.632  14.520 -0.5210 -0.0115 -0.2272
 4225TIP3    H134166   6.353   2.669  14.491 -0.8173  0.2091  0.8609
 4225TIP3    H234167   6.413   2.560  14.578  0.0416 -0.0671 -0.0574
 4226TIP3   OH234168   4.504   4.647  15.188 -0.0482  0.0483  0.7106
 4226TIP3    H134169   4.456   4.628  15.268  0.4929 -2.7831  0.4938
 4226TIP3    H234170   4.587   4.683  15.217  0.0008 -0.6227  1.4338
 4227TIP3   OH234171   4.397   3.032  16.792 -0.2440 -0.3376  0.2012
 4227TIP3    H134172   4.404   3.048  16.698  1.8051  0.2046  0.3974
 4227TIP3    H234173   4.366   3.116  16.828  2.1107  0.5640  0.3022
 4228TIP3   OH234174   5.505   1.550   5.487  0.6138  0.3028  0.2000
 4228TIP3    H134175   5.574   1.607   5.519  0.3901  0.3052  0.6785
 4228TIP3    H234176   5.443   1.542   5.560  1.0874 -1.2632  0.4768
 4229TIP3   OH234177   1.949   3.018  15.944  0.3520 -0.0820  0.1821
 4229TIP3    H134178   2.016   2.998  15.878 -1.1141  0.1141 -1.4356
 4229TIP3    H234179   1.886   2.946  15.936 -0.8018  0.9224  0.0394
 4230TIP3   OH234180   2.497   0.364   2.179 -0.4517  0.1047  0.0174
 4230TIP3    H134181   2.591   0.347   2.192 -0.7169 -1.4564  0.0365
 4230TIP3    H234182   2.476   0.320   2.097 -1.0295  1.0799 -0.3774
 4231TIP3   OH234183   6.275   1.065   2.951  0.1230  0.5163 -0.0704
 4231TIP3    H134184   6.191   1.109   2.942  1.2511  2.8450  0.1867
 4231TIP3    H234185   6.324   1.089   2.872  0.2207 -1.7014 -0.7529
 4232TIP3   OH234186   3.601   0.965   2.575  0.7110 -0.4349  0.2805
 4232TIP3    H134187   3.543   1.017   2.519  1.3464  1.2294  1.1173
 4232TIP3    H234188   3.543   0.903   2.619 -0.1605 -0.0274 -0.2788
 4233TIP3   OH234189   6.661   1.090   2.261  0.0202  1.0552  0.4360
 4233TIP3    H134190   6.743   1.121   2.222  0.3568  1.3184  1.3174
 4233TIP3    H234191   6.609   1.060   2.187  1.6357 -0.9113 -0.0003
 4234TIP3   OH234192   1.096   1.745  15.159  0.7059  0.2599  0.5463
 4234TIP3    H134193   1.091   1.838  15.135  1.7251  0.4289  0.9709
 4234TIP3    H234194   1.141   1.744  15.243  0.9868 -0.6485  0.3927
 4235TIP3   OH234195   4.783   5.451   1.452 -0.1356  0.7132  0.0909
 4235TIP3    H134196   4.721   5.439   1.380  1.5686  0.1586 -1.3576
 4235TIP3    H234197   4.815   5.540   1.443 -2.0696  1.7030  2.0351
 4236TIP3   OH234198   1.730   6.623   1.725  0.2919  0.3527  0.5142
 4236TIP3    H134199   1.696   6.582   1.646 -1.5299 -1.1738  2.0117
 4236TIP3    H234200   1.784   6.556   1.765  1.4378  1.2149  0.4841
 4237TIP3   OH234201   5.333   2.685  13.922  0.3460  0.1860  0.1276
 4237TIP3    H134202   5.246   2.666  13.888 -0.6671  0.6966  2.3024
 4237TIP3    H234203   5.350   2.775  13.894  0.5931 -0.2027 -1.0476
 4238TIP3   OH234204   3.176   3.820   3.082 -0.1279  0.2746 -0.7842
 4238TIP3    H134205   3.198   3.830   2.989  1.6683  0.8936 -0.3303
 4238TIP3    H234206   3.260   3.807   3.125 -0.9333  0.0475  0.7747
 4239TIP3   OH234207   0.050   2.084  12.008 -0.3474  0.1332  0.2984
 4239TIP3    H134208   0.110   2.018  11.973 -0.7696  0.3251 -0.8062
 4239TIP3    H234209  -0.033   2.067  11.966 -0.1380  2.2239 -1.1241
 4240TIP3   OH234210   5.862   1.555   5.589 -0.0566  0.3188 -0.3174
 4240TIP3    H134211   5.878   1.648   5.605  0.0390  0.1937  0.3176
 4240TIP3    H234212   5.942   1.524   5.546 -0.5363  0.7796 -1.5712
 4241TIP3   OH234213   4.699   4.560  15.489 -0.1858  0.3474  0.0043
 4241TIP3    H134214   4.704   4.577  15.583 -0.0999  1.5202 -0.1876
 4241TIP3    H234215   4.717   4.467  15.480 -0.3731  0.1816  1.1622
 4242TIP3   OH234216   5.756   1.429   1.934 -0.0023  0.2676  0.3693
 4242TIP3    H134217   5.847   1.457   1.931 -0.4207  1.6957  0.0397
 4242TIP3    H234218   5.720   1.474   2.010 -0.0698 -1.5340  1.4480
 4243TIP3   OH234219   3.804   2.942  12.290  0.2070 -0.4019  0.3213
 4243TIP3    H134220   3.774   2.930  12.200  1.5177  0.4108 -0.2530
 4243TIP3    H234221   3.754   2.878  12.340 -2.1898  0.6044 -0.6060
 4244TIP3   OH234222   2.979   2.556   3.388 -0.3602  0.1829 -0.7127
 4244TIP3    H134223   2.989   2.483   3.449  0.1518  0.9267  0.0990
 4244TIP3    H234224   2.910   2.610   3.426  0.9485  1.4098 -0.0005
 4245TIP3   OH234225   1.969   6.827   4.803  0.4671  0.0213 -0.0900
 4245TIP3    H134226   1.942   6.899   4.747 -2.0396  0.4898  1.5325
 4245TIP3    H234227   1.898   6.820   4.868  1.7914 -2.3574  1.2273
 4246TIP3   OH234228   2.280   3.294   3.016 -0.2085 -0.2495 -0.5384
 4246TIP3    H134229   2.262   3.383   3.046  0.4439  0.0996 -1.1263
 4246TIP3    H234230   2.347   3.305   2.949 -0.0483 -1.1982 -0.5534
 4247TIP3   OH234231   6.709   0.086  13.772 -0.3880 -0.0704  0.5068
 4247TIP3    H134232   6.625   0.043  13.753 -1.1461  1.5726 -0.0730
 4247TIP3    H234233   6.708   0.165  13.717  1.2330  0.3426  1.0271
 4248TIP3   OH234234   3.244   3.338   0.704 -1.0441 -0.0925 -0.1006
 4248TIP3    H134235   3.232   3.427   0.738  0.2358  0.3578 -0.7480
 4248TIP3    H234236   3.319   3.304   0.753 -2.2162 -1.2628  0.9472
 4249TIP3   OH234237   0.163   4.242  11.988  0.4895 -0.0834  0.3695
 4249TIP3    H134238   0.208   4.312  11.941 -1.2930  0.3588 -0.7676
 4249TIP3    H234239   0.111   4.286  12.055 -0.0889 -0.3621  0.1129
 4250TIP3   OH234240   5.399   6.380   2.428 -0.2336  0.4560 -0.2024
 4250TIP3    H134241   5.481   6.429   2.429 -0.6074  1.0952  0.6105
 4250TIP3    H234242   5.425   6.289   2.441  0.2413  0.9192  3.1513
 4251TIP3   OH234243   1.968   0.896  13.807 -0.0522  0.2078 -0.5120
 4251TIP3    H134244   2.053   0.868  13.774  0.9925  1.0420  1.3589
 4251TIP3    H234245   1.988   0.953  13.881 -2.2660 -0.1399  0.4279
 4252TIP3   OH234246   6.592   2.840  15.460 -0.1527 -0.7379  0.0360
 4252TIP3    H134247   6.611   2.872  15.371  0.3011 -1.2176 -0.0456
 4252TIP3    H234248   6.502   2.868  15.477  0.9428  2.8593  0.9305
 4253TIP3   OH234249   0.298   3.041   9.896  0.3684  0.1982  0.3895
 4253TIP3    H134250   0.232   3.049   9.965 -0.4102  0.8028 -0.3997
 4253TIP3    H234251   0.351   3.120   9.905 -1.5312  1.8445 -1.4713
 4254TIP3   OH234252   0.633   0.320   1.102  0.5181  0.2452  0.0698
 4254TIP3    H134253   0.585   0.352   1.178 -1.1843 -0.5006 -0.6444
 4254TIP3    H234254   0.575   0.340   1.028  1.7381  0.1458 -0.9413
 4255TIP3   OH234255   2.050   2.959  14.609  0.5750  0.8578 -0.0092
 4255TIP3    H134256   2.033   2.932  14.518 -1.7758  1.8683  0.0591
 4255TIP3    H234257   2.139   2.995  14.607  0.6259  0.7239 -1.8753
 4256TIP3   OH234258   4.502   3.656  15.374 -0.8750 -0.8910 -0.0258
 4256TIP3    H134259   4.500   3.649  15.469 -1.1260 -1.3778 -0.0644
 4256TIP3    H234260   4.592   3.634  15.350 -0.1328  1.4789  0.2556
 4257TIP3   OH234261   3.945   5.132   1.423  0.4821 -0.0245 -0.4443
 4257TIP3    H134262   3.973   5.207   1.475  0.3394 -0.3958  0.1808
 4257TIP3    H234263   3.976   5.151   1.334  0.5072  0.7351 -0.2784
 4258TIP3   OH234264   3.744   0.248  16.222  0.6873 -0.0967 -0.5715
 4258TIP3    H134265   3.649   0.254  16.224  0.6396 -1.0310  0.7168
 4258TIP3    H234266   3.762   0.167  16.174  0.7552 -1.0594  1.0256
 4259TIP3   OH234267   2.987   1.184  13.052 -0.2218 -0.1104 -0.1130
 4259TIP3    H134268   3.012   1.163  13.142  0.3055 -2.6264 -0.7711
 4259TIP3    H234269   2.894   1.204  13.057 -0.3250 -0.7747  0.9147
 4260TIP3   OH234270   3.399   5.200  16.494  0.1424  0.1221 -0.7980
 4260TIP3    H134271   3.485   5.197  16.454  0.8216  1.0658  0.5181
 4260TIP3    H234272   3.340   5.166  16.427  1.4108  0.2571 -2.0237
 4261TIP3   OH234273   3.661   2.542  14.389  0.4290 -0.1794 -0.1763
 4261TIP3    H134274   3.718   2.564  14.463 -0.9884 -1.8450  1.5438
 4261TIP3    H234275   3.721   2.513  14.320  1.7467 -0.0385  0.8641
 4262TIP3   OH234276   6.477   2.558  12.164 -0.1410  0.2064  0.0330
 4262TIP3    H134277   6.469   2.618  12.090 -0.3806 -1.3867 -1.2942
 4262TIP3    H234278   6.390   2.518  12.172  0.3434 -0.8830  0.0369
 4263TIP3   OH234279   6.361   1.282  12.153  0.5630 -0.2219 -0.0892
 4263TIP3    H134280   6.298   1.302  12.222  3.4498  0.2787  2.6600
 4263TIP3    H234281   6.357   1.357  12.093  1.2710  1.8164  2.2573
 4264TIP3   OH234282   0.828   1.920   5.007  0.5751  0.0521  0.1775
 4264TIP3    H134283   0.811   1.845   4.950  0.5107  0.8368 -0.8726
 4264TIP3    H234284   0.772   1.989   4.973  0.6421  0.5891  1.1187
 4265TIP3   OH234285   4.193   6.105   5.771  0.0824 -0.2689 -0.0147
 4265TIP3    H134286   4.254   6.065   5.833  2.2653  0.7550 -1.4126
 4265TIP3    H234287   4.209   6.199   5.778 -2.7679  0.2670  0.9445
 4266TIP3   OH234288   0.758   3.579   3.347 -0.0441  0.0309  0.0992
 4266TIP3    H134289   0.792   3.664   3.316 -1.4234  1.2276  1.6690
 4266TIP3    H234290   0.674   3.600   3.386 -0.8998 -2.2681 -0.3559
 4267TIP3   OH234291   1.724   6.334  16.346 -0.0678  1.2483 -0.2455
 4267TIP3    H134292   1.800   6.296  16.390  0.4733  0.8287 -1.4927
 4267TIP3    H234293   1.678   6.383  16.415  0.2705 -0.0731  0.9577
 4268TIP3   OH234294   1.974   2.054  15.797 -0.1929 -0.0053  0.1783
 4268TIP3    H134295   2.057   2.100  15.808 -0.0767 -0.1695 -0.0069
 4268TIP3    H234296   1.998   1.961  15.790 -0.5505 -0.3120  2.3499
 4269TIP3   OH234297   5.310   6.020   0.055  0.0861 -0.5029  0.0217
 4269TIP3    H134298   5.294   5.958   0.126 -1.9056 -1.0390 -0.8074
 4269TIP3    H234299   5.358   5.969  -0.011  1.6105 -0.1074  0.7903
 4270TIP3   OH234300   2.144   0.416   3.072  0.5414  0.3640 -0.3200
 4270TIP3    H134301   2.199   0.413   3.150  0.0908  0.7123  0.0191
 4270TIP3    H234302   2.169   0.339   3.022 -0.4973 -0.9734  1.0907
 4271TIP3   OH234303   0.872   6.054  15.968 -0.1615 -0.0172 -0.5933
 4271TIP3    H134304   0.945   6.087  16.021  0.2926  0.2309 -1.3600
 4271TIP3    H234305   0.823   5.997  16.028  0.5093  0.0174  0.0067
 4272TIP3   OH234306   4.941   5.337   5.917  0.2420  0.1248  0.2276
 4272TIP3    H134307   4.916   5.290   5.997  1.2780 -0.3154  0.3070
 4272TIP3    H234308   4.936   5.272   5.848  1.3336 -0.0358  0.2803
 4273TIP3   OH234309   3.469   6.510   2.157 -0.4674 -0.1932  0.1592
 4273TIP3    H134310   3.408   6.445   2.192 -0.8077  0.0110 -0.0447
 4273TIP3    H234311   3.413   6.584   2.132 -0.0242  0.4457  0.9971
 4274TIP3   OH234312   3.898   3.425   4.175  0.1657 -0.4209  0.3567
 4274TIP3    H134313   3.896   3.520   4.163 -2.3756 -0.4355  0.0594
 4274TIP3    H234314   3.822   3.393   4.126  1.3009 -2.6988 -0.0629
 4275TIP3   OH234315   0.528   6.265   5.118  0.3668  0.3054 -0.6778
 4275TIP3    H134316   0.610   6.312   5.101  1.3313 -1.2905 -0.6463
 4275TIP3    H234317   0.522   6.201   5.047  1.0403 -2.0204  1.2490
 4276TIP3   OH234318   1.075   0.522   3.107  0.1459  0.7365  0.2574
 4276TIP3    H134319   1.150   0.580   3.094  0.3950  0.7952  1.7676
 4276TIP3    H234320   1.101   0.464   3.178  0.0047 -1.4586 -1.3612
 4277TIP3   OH234321   6.584   1.899  16.210  0.6398  0.0386 -0.2870
 4277TIP3    H134322   6.643   1.824  16.217 -0.3671 -0.9776 -1.8310
 4277TIP3    H234323   6.504   1.870  16.255  0.8782  0.9471  0.7678
 4278TIP3   OH234324   4.106   2.585  10.549  0.0155  0.6540 -0.6214
 4278TIP3    H134325   4.110   2.496  10.514 -0.6115  0.1344  0.5651
 4278TIP3    H234326   4.185   2.594  10.603 -0.6803  0.2352  0.5128
 4279TIP3   OH234327   5.741   1.318  15.600  0.5602 -0.1423 -0.3941
 4279TIP3    H134328   5.723   1.410  15.584 -0.8529 -0.2680  0.3198
 4279TIP3    H234329   5.787   1.288  15.522 -0.0525  0.8633 -1.1583
 4280TIP3   OH234330   3.942   5.583  10.947  0.0491  0.5245  0.4299
 4280TIP3    H134331   3.942   5.501  10.898 -1.7866  0.5685  0.2670
 4280TIP3    H234332   3.973   5.648  10.884 -0.1898  0.2311  0.0016
 4281TIP3   OH234333   5.132   5.726   4.543 -0.9804 -0.2348 -0.1790
 4281TIP3    H134334   5.227   5.726   4.531 -0.9048  2.6638 -0.5405
 4281TIP3    H234335   5.116   5.797   4.605 -2.7900 -2.5006  2.1248
 4282TIP3   OH234336   4.518   1.949  13.322  0.3829 -0.3218 -0.0085
 4282TIP3    H134337   4.501   1.861  13.355 -1.4640 -0.1551 -0.3955
 4282TIP3    H234338   4.609   1.967  13.346  0.4395 -1.8799  1.0738
 4283TIP3   OH234339   2.510   3.646   4.027  0.0593  0.1339 -0.3541
 4283TIP3    H134340   2.493   3.579   3.961 -0.0029 -0.2916  0.0858
 4283TIP3    H234341   2.529   3.725   3.977 -1.5606  0.2275 -0.8944
 4284TIP3   OH234342   0.199   6.229  13.116 -0.5944  0.1983 -0.4425
 4284TIP3    H134343   0.224   6.162  13.180 -0.1626  0.7784  0.0182
 4284TIP3    H234344   0.104   6.218  13.105 -1.0249  1.1808  1.6541
 4285TIP3   OH234345   3.084   6.445  12.461  0.4421  0.1776  0.0049
 4285TIP3    H134346   3.133   6.364  12.479  3.1821  1.5607 -0.7312
 4285TIP3    H234347   3.104   6.465  12.369 -1.0155  1.1863 -0.1250
 4286TIP3   OH234348   0.819   4.157   1.377 -0.0684 -0.1325  0.4100
 4286TIP3    H134349   0.853   4.242   1.350 -0.2373 -0.2359 -0.1404
 4286TIP3    H234350   0.804   4.110   1.295  0.0307 -0.6955  0.7128
 4287TIP3   OH234351   1.455   2.876   5.735  0.3680  0.4498  0.5892
 4287TIP3    H134352   1.469   2.954   5.681 -1.2182  0.7555  0.5711
 4287TIP3    H234353   1.375   2.895   5.784  0.4951 -0.7769  1.3120
 4288TIP3   OH234354   0.108   6.480  10.997 -0.0746  0.2524  0.2805
 4288TIP3    H134355   0.019   6.514  10.986 -0.5639 -1.0467 -0.0173
 4288TIP3    H234356   0.100   6.386  10.977  1.0439 -0.2043  1.7841
 4289TIP3   OH234357   3.678   4.471   1.998  0.5871  0.1424 -0.3924
 4289TIP3    H134358   3.605   4.465   2.059  0.3329  0.6187 -0.6363
 4289TIP3    H234359   3.740   4.531   2.040  0.9892 -0.5138 -0.0406
 4290TIP3   OH234360   3.327   0.324  14.716 -1.0920 -0.2559 -0.0207
 4290TIP3    H134361   3.273   0.258  14.674 -0.6050  0.0148 -1.1282
 4290TIP3    H234362   3.357   0.284  14.798  0.4583 -2.0375 -1.3595
 4291TIP3   OH234363   4.403   4.381   2.430 -0.2191  0.2530 -0.1623
 4291TIP3    H134364   4.412   4.429   2.512 -0.8120  0.4944 -0.2370
 4291TIP3    H234365   4.365   4.297   2.455 -0.8807  0.5202 -0.2411
 4292TIP3   OH234366   2.000   0.687   3.686 -0.2734 -0.5583 -0.0616
 4292TIP3    H134367   1.987   0.689   3.781 -0.4667  0.8988 -0.0890
 4292TIP3    H234368   1.916   0.656   3.651  0.2732 -2.5229  0.2840
 4293TIP3   OH234369   3.065   3.333   3.944 -0.2281  0.2458  0.0866
 4293TIP3    H134370   3.058   3.243   3.978 -0.5419 -0.1495 -0.9854
 4293TIP3    H234371   3.118   3.324   3.865 -0.7699  0.9191 -0.3606
 4294TIP3   OH234372   4.557   5.861   2.541 -0.0514  0.3500 -0.4939
 4294TIP3    H134373   4.589   5.874   2.630  0.1275 -2.9605  0.0594
 4294TIP3    H234374   4.547   5.949   2.505 -0.9535  1.8620  3.0588
 4295TIP3   OH234375   3.508   0.666   4.827 -0.5532  0.1408 -0.3226
 4295TIP3    H134376   3.575   0.696   4.888  1.0083 -1.1869 -1.3083
 4295TIP3    H234377   3.458   0.601   4.876  1.0346 -1.3248 -0.5265
 4296TIP3   OH234378   5.654   4.610   0.379  0.3933  0.4214  0.1595
 4296TIP3    H134379   5.614   4.635   0.296 -1.1305  0.0345  0.7413
 4296TIP3    H234380   5.649   4.514   0.380 -0.4340  0.4580  1.0666
 4297TIP3   OH234381   2.784   3.069  14.977  0.0615  0.2984 -0.0454
 4297TIP3    H134382   2.736   3.084  15.058 -0.7646  0.7249 -0.6024
 4297TIP3    H234383   2.873   3.099  14.995 -0.0774  0.2480  0.7415
 4298TIP3   OH234384   6.101   3.483   1.950  1.0283  0.8291  0.5310
 4298TIP3    H134385   6.027   3.439   1.992  1.3019  0.8637  1.0586
 4298TIP3    H234386   6.061   3.541   1.885  0.6359  0.2278  0.2219
 4299TIP3   OH234387   3.015   3.602  13.234  0.1425 -0.3711 -0.3264
 4299TIP3    H134388   3.004   3.622  13.327  1.4266  0.3435 -0.3070
 4299TIP3    H234389   2.946   3.651  13.190  0.5540  0.6295  0.1142
 4300TIP3   OH234390   0.354   5.721  13.199  0.6778 -0.0536 -0.2829
 4300TIP3    H134391   0.317   5.720  13.287 -0.2282  0.0381 -0.6563
 4300TIP3    H234392   0.382   5.811  13.186 -0.3652  0.2452 -0.5594
 4301TIP3   OH234393   4.254   1.016  15.459  0.2728  0.3037 -0.4836
 4301TIP3    H134394   4.168   0.974  15.465  0.9230 -0.9401  0.8155
 4301TIP3    H234395   4.306   0.955  15.406  0.8186  0.1658  0.1931
 4302TIP3   OH234396   2.610   3.048  14.281 -0.0823  0.2420  0.1588
 4302TIP3    H134397   2.693   3.029  14.237 -0.5861 -0.8375 -0.3959
 4302TIP3    H234398   2.634   3.087  14.364  1.0262 -0.9630  0.4381
 4303TIP3   OH234399   2.273   2.038   0.171 -0.0999 -0.1479  0.6722
 4303TIP3    H134400   2.324   2.108   0.131 -0.2494 -0.5042 -0.1668
 4303TIP3    H234401   2.321   1.958   0.151  0.1544 -0.2811  1.7614
 4304TIP3   OH234402   4.439   1.485   1.442 -0.2302  0.0299  0.0680
 4304TIP3    H134403   4.363   1.541   1.460  0.0631  0.4966 -0.1358
 4304TIP3    H234404   4.401   1.404   1.407 -0.5781  0.7690 -1.3311
 4305TIP3   OH234405   5.613   1.644   0.536 -0.3392  0.0804  0.0561
 4305TIP3    H134406   5.641   1.645   0.444  1.1833  1.8789  0.4679
 4305TIP3    H234407   5.668   1.578   0.578 -0.5506 -0.2472 -0.1766
 4306TIP3   OH234408   1.956   2.616  12.559  0.0318  0.0362  0.6112
 4306TIP3    H134409   1.886   2.666  12.602  1.1351  0.0169  2.5061
 4306TIP3    H234410   1.959   2.652  12.470 -2.6358 -0.2480  0.3052
 4307TIP3   OH234411   4.968   4.949  16.548 -0.4692  0.0469  0.4752
 4307TIP3    H134412   4.889   4.897  16.532  1.1671 -2.8592  1.0540
 4307TIP3    H234413   4.989   4.931  16.639  2.3081 -1.5633 -0.3747
 4308TIP3   OH234414   4.017   6.834   4.010 -0.4174  0.4677 -0.2039
 4308TIP3    H134415   4.016   6.850   4.105  1.1056 -1.0363  0.1272
 4308TIP3    H234416   3.968   6.752   3.999 -2.6005  1.8211 -1.0466
 4309TIP3   OH234417   3.917   6.413   4.951  0.0317  0.6292  1.0000
 4309TIP3    H134418   3.908   6.405   5.046  0.9137  0.0587  1.0562
 4309TIP3    H234419   4.011   6.424   4.938 -0.0509  0.3818  0.1718
 4310TIP3   OH234420   5.969   0.919   0.719 -0.6773 -0.0466  0.8227
 4310TIP3    H134421   6.049   0.898   0.767 -0.7344 -0.4383  0.7493
 4310TIP3    H234422   5.946   1.007   0.748  0.9848  0.9775 -0.7675
 4311TIP3   OH234423   5.294   0.516   1.703 -0.1416 -0.3962 -0.2864
 4311TIP3    H134424   5.227   0.474   1.758 -0.7305  1.3624  0.4204
 4311TIP3    H234425   5.249   0.531   1.619 -0.2877 -0.2037 -0.1753
 4312TIP3   OH234426   2.319   1.014   1.306  0.1642  0.2812 -0.0148
 4312TIP3    H134427   2.392   0.967   1.267  0.4932  1.0882 -0.4077
 4312TIP3    H234428   2.354   1.101   1.325 -0.6174  0.6010  0.0224
 4313TIP3   OH234429   4.218   6.331   4.747  0.1308 -0.1654 -0.0780
 4313TIP3    H134430   4.168   6.285   4.678 -2.7398  1.4089  0.7819
 4313TIP3    H234431   4.171   6.310   4.828  0.3511  2.0606  0.6764
 4314TIP3   OH234432   5.735   2.556  11.029  0.2531 -0.3181 -0.7816
 4314TIP3    H134433   5.716   2.645  10.999  1.2655 -0.1189 -0.8781
 4314TIP3    H234434   5.779   2.515  10.954  0.0838 -0.7955 -0.6219
 4315TIP3   OH234435   3.939   6.192  12.350 -1.0062  0.4181 -1.0486
 4315TIP3    H134436   4.023   6.181  12.304  0.1212  2.4633  0.3478
 4315TIP3    H234437   3.930   6.113  12.403  1.1415  1.0093  0.3447
 4316TIP3   OH234438   3.226   0.806   4.729  0.3937  0.3443  0.2472
 4316TIP3    H134439   3.217   0.901   4.733 -2.5186  0.1000  1.5956
 4316TIP3    H234440   3.241   0.787   4.636 -0.1827  2.0312 -0.2153
 4317TIP3   OH234441   5.478   1.616  12.434 -0.2692  0.9901 -0.4854
 4317TIP3    H134442   5.432   1.591  12.353  0.0776  1.6488 -0.8984
 4317TIP3    H234443   5.411   1.608  12.502  0.3293 -3.2773 -0.1131
 4318TIP3   OH234444   4.265   4.169   4.356 -0.4329 -0.2318 -0.2482
 4318TIP3    H134445   4.198   4.153   4.289  0.2444  1.1219 -1.2895
 4318TIP3    H234446   4.313   4.087   4.361 -2.4656 -1.4444  0.9354
 4319TIP3   OH234447   5.934   0.562   2.635 -0.4150 -0.4323 -0.5837
 4319TIP3    H134448   5.902   0.623   2.568 -0.1163 -0.8204 -1.0870
 4319TIP3    H234449   5.913   0.604   2.718 -0.1461  0.3873 -0.9272
 4320TIP3   OH234450   1.619   5.306   0.854 -0.6605 -0.6517 -0.4132
 4320TIP3    H134451   1.683   5.337   0.918 -0.8356  0.4117 -0.7393
 4320TIP3    H234452   1.543   5.362   0.867 -1.5590 -1.9468  0.0050
 4321TIP3   OH234453   1.579   0.872  13.232  0.3854 -0.1453  0.2963
 4321TIP3    H134454   1.559   0.900  13.143  0.9410 -0.2710  0.1244
 4321TIP3    H234455   1.674   0.883  13.239  0.4397 -0.7729  0.6461
 4322TIP3   OH234456   0.913   0.315  14.518 -0.3135 -0.1158  0.0093
 4322TIP3    H134457   0.853   0.269  14.460  2.0802 -2.4646 -0.7955
 4322TIP3    H234458   0.875   0.306  14.605 -0.8245 -2.1289 -0.3852
 4323TIP3   OH234459   0.405   2.459   2.293 -0.1954 -0.0458 -0.2723
 4323TIP3    H134460   0.324   2.416   2.266 -0.3087  0.7232 -1.1994
 4323TIP3    H234461   0.383   2.552   2.296  0.1541  0.0085  1.3276
 4324TIP3   OH234462   2.837   6.422  15.658 -0.6958 -0.0293  0.1597
 4324TIP3    H134463   2.800   6.358  15.718 -1.4582  0.4346  0.1885
 4324TIP3    H234464   2.902   6.373  15.607 -0.4418 -0.5497  0.9727
 4325TIP3   OH234465   1.202   6.785  16.665  0.5537  0.3411  0.3032
 4325TIP3    H134466   1.194   6.869  16.711  2.1107  0.2612  0.7972
 4325TIP3    H234467   1.169   6.721  16.728 -0.5254  0.5460 -0.0286
 4326TIP3   OH234468   6.419   4.881  16.368 -0.3377 -0.0836  0.4820
 4326TIP3    H134469   6.437   4.974  16.354 -1.8863  0.1564 -0.2435
 4326TIP3    H234470   6.360   4.879  16.444 -1.2758 -0.3352 -0.2279
 4327TIP3   OH234471   2.683   6.160  15.574 -0.0112 -0.0508  0.2444
 4327TIP3    H134472   2.713   6.098  15.640 -0.8214  0.3359  1.0079
 4327TIP3    H234473   2.588   6.155  15.578 -0.0802  0.7501 -0.1618
 4328TIP3   OH234474   1.646   5.165  13.100  0.6263  0.1816  0.0091
 4328TIP3    H134475   1.691   5.241  13.138  0.9631 -0.4321  0.8755
 4328TIP3    H234476   1.708   5.130  13.036 -0.6204  2.2363 -2.4765
 4329TIP3   OH234477   4.891   2.172   0.493 -0.3148  0.1202 -0.2265
 4329TIP3    H134478   4.884   2.205   0.582  0.0113 -0.0934 -0.1189
 4329TIP3    H234479   4.893   2.250   0.438 -0.6473  0.2483 -0.0576
 4330TIP3   OH234480   6.237   6.123  14.144 -0.2711  0.0421  0.1792
 4330TIP3    H134481   6.322   6.096  14.179 -0.8076 -1.3469  0.4888
 4330TIP3    H234482   6.240   6.098  14.052 -1.0159 -1.8671  0.6111
 4331TIP3   OH234483   3.692   5.643  16.551  0.0278  0.4827  0.1060
 4331TIP3    H134484   3.778   5.660  16.589  0.7307 -0.2636 -1.0724
 4331TIP3    H234485   3.674   5.552  16.574  0.6135 -0.0914 -1.5323
 4332TIP3   OH234486   5.402   1.443   2.182  0.0994  0.0356  0.3266
 4332TIP3    H134487   5.466   1.499   2.137  0.3351 -0.6117 -0.1558
 4332TIP3    H234488   5.421   1.355   2.150  0.1567 -0.4133  1.5688
 4333TIP3   OH234489   2.903   4.538   0.674  0.5487  1.2107  0.5952
 4333TIP3    H134490   2.891   4.631   0.658 -0.0979  0.6868 -2.6102
 4333TIP3    H234491   2.816   4.499   0.663  1.3508 -0.1321 -1.9785
 4334TIP3   OH234492   1.272   0.236   2.463 -0.0740 -0.2503 -0.4703
 4334TIP3    H134493   1.329   0.227   2.387  0.7355 -1.0353  0.2062
 4334TIP3    H234494   1.219   0.157   2.462 -1.2048  0.4810 -1.1037
 4335TIP3   OH234495   2.397   1.581   5.364 -0.2115  0.1411 -0.2080
 4335TIP3    H134496   2.456   1.518   5.406 -0.1776 -0.2502 -0.8252
 4335TIP3    H234497   2.311   1.562   5.401 -0.3761 -0.9239 -1.0932
 4336TIP3   OH234498   6.212   3.896  11.607  0.0019  0.2282 -0.0320
 4336TIP3    H134499   6.253   3.945  11.536  0.1739 -1.2999 -1.0496
 4336TIP3    H234500   6.128   3.940  11.621 -0.8568 -0.4563 -2.4699
 4337TIP3   OH234501   6.676   3.713  13.518 -0.2686 -0.6766  0.3996
 4337TIP3    H134502   6.663   3.679  13.429 -0.9946 -0.6993  0.5030
 4337TIP3    H234503   6.615   3.786  13.525 -0.6474 -1.0443  1.0709
 4338TIP3   OH234504   3.081   3.133  14.122  0.2514 -0.1676 -0.2466
 4338TIP3    H134505   3.041   3.138  14.209  1.0943  2.5410  0.0845
 4338TIP3    H234506   3.175   3.143  14.138  0.3684  1.0715 -1.4550
 4339TIP3   OH234507   5.604   2.920  13.403  0.1209  0.4358  0.2676
 4339TIP3    H134508   5.519   2.961  13.385 -0.0538 -0.1376 -0.2301
 4339TIP3    H234509   5.666   2.993  13.402 -0.5855  1.1334  2.3612
 4340TIP3   OH234510   1.363   2.731  15.177  0.2241 -0.2799 -0.4557
 4340TIP3    H134511   1.449   2.763  15.150 -0.5597  2.1101 -0.3892
 4340TIP3    H234512   1.327   2.802  15.231 -1.3070 -1.7317  0.5463
 4341TIP3   OH234513   5.184   0.370  11.978 -0.1348 -0.5480  0.4201
 4341TIP3    H134514   5.225   0.286  11.999 -1.4904 -1.1908  0.5686
 4341TIP3    H234515   5.249   0.415  11.925 -0.4965 -2.8983 -2.2398
 4342TIP3   OH234516   0.807   3.100   3.223 -0.5383 -0.7996 -0.3835
 4342TIP3    H134517   0.887   3.140   3.188  0.2604 -0.9657  1.1847
 4342TIP3    H234518   0.823   3.006   3.217 -0.9020 -0.8452 -0.6725
 4343TIP3   OH234519   5.177   4.741  11.785 -1.1190  0.4550  0.5623
 4343TIP3    H134520   5.235   4.817  11.777 -2.8505  1.8494  0.6822
 4343TIP3    H234521   5.210   4.679  11.720 -0.8613  2.1251 -0.9983
 4344TIP3   OH234522   5.003   4.199  12.141  0.0860  0.0553 -0.3314
 4344TIP3    H134523   4.949   4.123  12.120 -1.8062  1.6275 -1.4490
 4344TIP3    H234524   5.039   4.227  12.057 -0.3741  1.2173 -0.1456
 4345TIP3   OH234525   0.024   5.750   4.411  0.7148  0.0259  0.0014
 4345TIP3    H134526  -0.048   5.812   4.413  1.0485  0.3953  1.0072
 4345TIP3    H234527  -0.017   5.665   4.428  0.6096  0.3454  1.4707
 4346TIP3   OH234528   6.621   4.478  12.274 -0.1280 -0.5319  0.1142
 4346TIP3    H134529   6.584   4.565  12.260  1.0598  0.1218  0.8662
 4346TIP3    H234530   6.546   4.419  12.273 -0.8136  0.3063 -1.8337
 4347TIP3   OH234531   5.412   0.181   5.741  0.5577 -0.3266 -0.0905
 4347TIP3    H134532   5.381   0.265   5.709  1.3460  0.0014 -0.0285
 4347TIP3    H234533   5.336   0.140   5.782  0.4422  0.8559  0.9054
 4348TIP3   OH234534   1.567   5.504   3.915  0.0687 -0.7272 -0.4677
 4348TIP3    H134535   1.602   5.508   4.004  1.6000  1.1610 -1.0682
 4348TIP3    H234536   1.494   5.566   3.915  1.0738  0.5138 -0.8600
 4349TIP3   OH234537   0.616   3.665  16.884  0.3534 -0.0375 -0.5074
 4349TIP3    H134538   0.649   3.656  16.973  0.0602 -0.3725 -0.4322
 4349TIP3    H234539   0.561   3.589  16.870  0.4630 -0.0337 -1.0062
 4350TIP3   OH234540   4.147   0.571  12.501  0.0065  0.1774  0.3906
 4350TIP3    H134541   4.167   0.483  12.533 -0.4031  0.4823  1.5309
 4350TIP3    H234542   4.055   0.566  12.474  0.1075  0.1445  0.0499
 4351TIP3   OH234543   2.840   1.459  16.364  0.2537 -0.0836 -0.2958
 4351TIP3    H134544   2.858   1.495  16.451  2.0232 -0.0354 -0.6463
 4351TIP3    H234545   2.824   1.366  16.379 -0.2418  0.0719  0.1599
 4352TIP3   OH234546   2.593   4.258  16.649  0.3937  0.1190  0.5731
 4352TIP3    H134547   2.660   4.327  16.655 -1.6224  2.1857  0.7746
 4352TIP3    H234548   2.566   4.260  16.557  0.0697 -0.1526  0.6630
 4353TIP3   OH234549   3.660   2.150  14.873  0.3384  0.0479 -0.1377
 4353TIP3    H134550   3.681   2.078  14.933  2.1287 -0.4505 -1.2915
 4353TIP3    H234551   3.567   2.168  14.890  1.0177  0.8753  3.7379
 4354TIP3   OH234552   1.501   0.618   4.561  0.1014 -0.0423 -0.0201
 4354TIP3    H134553   1.449   0.560   4.506 -0.8435  1.6386 -1.0063
 4354TIP3    H234554   1.592   0.596   4.540 -0.2165 -1.3821 -0.0808
 4355TIP3   OH234555   3.077   2.725  14.836 -0.0394  0.4173 -0.7805
 4355TIP3    H134556   3.011   2.655  14.843 -1.2900  1.6486  0.3536
 4355TIP3    H234557   3.160   2.678  14.837 -0.8516 -1.1572 -1.6438
 4356TIP3   OH234558   3.822   5.578  12.172  0.1759  0.9424 -0.1737
 4356TIP3    H134559   3.820   5.494  12.127  0.0523 -0.0303  1.5845
 4356TIP3    H234560   3.781   5.639  12.110 -0.7321 -0.4924 -1.0430
 4357TIP3   OH234561   0.711   2.822  11.444  0.2706 -0.1970  0.0832
 4357TIP3    H134562   0.686   2.730  11.454 -1.3158  0.1568 -0.2575
 4357TIP3    H234563   0.627   2.868  11.436  0.9514  1.5020  2.0050
 4358TIP3   OH234564   5.428   2.814   4.179  0.0708  0.3061  0.2520
 4358TIP3    H134565   5.377   2.759   4.119 -1.0411  0.7849  0.7454
 4358TIP3    H234566   5.415   2.903   4.147 -1.6968  0.7429  1.9669
 4359TIP3   OH234567   4.335   0.549  15.101  0.5530 -0.3803 -0.6367
 4359TIP3    H134568   4.249   0.538  15.060  1.3910 -0.9742 -2.3651
 4359TIP3    H234569   4.357   0.641  15.085 -0.9331  0.6157  2.3807
 4360TIP3   OH234570   1.866   0.496  13.516 -0.2771  0.2277  0.0564
 4360TIP3    H134571   1.936   0.498  13.452 -0.5712 -1.4810 -0.3528
 4360TIP3    H234572   1.881   0.574  13.570  0.7361  0.9728 -1.2559
 4361TIP3   OH234573   3.496   5.381   5.142 -0.1349 -0.0780 -0.0721
 4361TIP3    H134574   3.419   5.328   5.119  0.2343 -0.6917  0.0570
 4361TIP3    H234575   3.530   5.339   5.222  0.4143  0.0943 -0.2138
 4362TIP3   OH234576   5.230   5.803   5.485  0.4841  0.1395  0.5855
 4362TIP3    H134577   5.184   5.722   5.462  0.6908  0.4602 -1.0223
 4362TIP3    H234578   5.274   5.830   5.405  2.4383  0.5514  1.7394
 4363TIP3   OH234579   6.138   5.139   1.701 -0.1096  0.5750 -0.3045
 4363TIP3    H134580   6.124   5.186   1.618 -0.6168 -0.4001 -0.7898
 4363TIP3    H234581   6.114   5.049   1.681 -0.0964  0.3000  0.8822
 4364TIP3   OH234582   1.400   0.563  13.121 -0.0379 -0.0091 -0.2663
 4364TIP3    H134583   1.356   0.630  13.173 -1.3740 -0.2870 -1.0093
 4364TIP3    H234584   1.332   0.528  13.064 -0.2809 -4.2951  2.2599
 4365TIP3   OH234585   3.774   1.396   3.910  0.0101  0.6170 -0.4810
 4365TIP3    H134586   3.838   1.466   3.895  0.8150 -0.3367 -1.7015
 4365TIP3    H234587   3.748   1.369   3.823 -0.5815 -0.3469 -0.0156
 4366TIP3   OH234588   2.370   1.746   2.683  0.4168 -0.3906 -0.4425
 4366TIP3    H134589   2.429   1.819   2.704 -0.0741 -0.3140  0.7908
 4366TIP3    H234590   2.284   1.787   2.677  0.1751 -0.8156  0.0005
 4367TIP3   OH234591   5.122   3.532  10.292  0.4983  0.7034  0.0941
 4367TIP3    H134592   5.034   3.530  10.330  0.8879 -0.6548  1.0139
 4367TIP3    H234593   5.125   3.615  10.244 -1.2736  0.7869  0.0365
 4368TIP3   OH234594   3.667   3.257   0.786 -0.8352  0.4181 -0.4431
 4368TIP3    H134595   3.585   3.224   0.748 -2.0229  1.0682  1.4206
 4368TIP3    H234596   3.646   3.345   0.815  0.0910  0.0958  1.3457
 4369TIP3   OH234597   3.721   3.263  14.519 -0.0957 -0.4285 -0.0574
 4369TIP3    H134598   3.744   3.335  14.577  0.8529  0.5270 -1.5542
 4369TIP3    H234599   3.806   3.230  14.488 -0.3883 -3.3182  1.8336
 4370TIP3   OH234600   1.836   3.947   6.079  0.1657 -0.1210 -0.8443
 4370TIP3    H134601   1.884   3.889   6.020  1.6097  0.4612 -0.2818
 4370TIP3    H234602   1.865   4.035   6.055 -0.9224  0.2812 -0.7362
 4371TIP3   OH234603   2.193   4.602   2.940 -0.2717  0.0087  0.1339
 4371TIP3    H134604   2.281   4.612   2.978 -0.0276 -0.6982 -0.2249
 4371TIP3    H234605   2.203   4.628   2.849 -0.7429  1.2008  0.4041
 4372TIP3   OH234606   2.055   2.438  16.576 -0.8669 -0.9503 -0.4934
 4372TIP3    H134607   2.060   2.440  16.671 -0.5687 -1.2465 -0.5025
 4372TIP3    H234608   2.129   2.491  16.547 -0.6775 -1.2517 -0.5653
 4373TIP3   OH234609   5.018   3.819   4.229 -0.2766 -0.3794  0.0392
 4373TIP3    H134610   4.941   3.792   4.279 -0.5177 -0.9738 -0.6373
 4373TIP3    H234611   5.032   3.748   4.166 -0.1371  0.4660 -0.9126
 4374TIP3   OH234612   6.241   2.338   5.748 -0.5856 -0.3037 -0.2094
 4374TIP3    H134613   6.206   2.250   5.753 -0.8472 -0.1725  0.3090
 4374TIP3    H234614   6.252   2.365   5.839 -3.8670  1.5378 -0.1994
 4375TIP3   OH234615   6.378   5.953  14.896  0.2610 -0.1516  0.6982
 4375TIP3    H134616   6.332   6.017  14.951  0.6757  1.1051 -0.3792
 4375TIP3    H234617   6.412   5.888  14.959 -1.2197 -0.0113  1.6942
 4376TIP3   OH234618   1.284   1.978   2.488 -0.4373  0.4478  0.6860
 4376TIP3    H134619   1.249   2.028   2.414  1.0417  2.0847  1.0208
 4376TIP3    H234620   1.377   2.001   2.490  0.0132 -1.3187  1.6978
 4377TIP3   OH234621   0.892   0.138   4.466 -0.1573  0.3762 -0.5131
 4377TIP3    H134622   0.814   0.193   4.467 -0.5830 -0.0783  3.1603
 4377TIP3    H234623   0.864   0.057   4.425 -1.4147  0.5177  0.0234
 4378TIP3   OH234624   5.703   6.072  16.220 -0.4760 -0.4535  0.0795
 4378TIP3    H134625   5.727   6.000  16.163 -1.9119 -1.4581  0.6749
 4378TIP3    H234626   5.622   6.107  16.183 -2.3194 -2.1181  2.2256
 4379TIP3   OH234627   4.871   2.778   6.160  0.1979 -0.1328  0.1952
 4379TIP3    H134628   4.815   2.700   6.155 -0.3611  0.2798 -0.0116
 4379TIP3    H234629   4.813   2.848   6.188  0.5895  0.3210 -0.1154
 4380TIP3   OH234630   0.825   2.983  12.148 -0.2104 -0.1006  0.2928
 4380TIP3    H134631   0.761   2.917  12.175 -0.0367 -0.6059 -0.5083
 4380TIP3    H234632   0.793   3.064  12.187 -0.1786 -0.7232  1.6802
 4381TIP3   OH234633   4.504   1.339  15.268 -0.1691 -0.1215 -0.3974
 4381TIP3    H134634   4.504   1.432  15.290 -1.6062 -0.5284  1.6665
 4381TIP3    H234635   4.413   1.320  15.242  0.8240 -0.2853 -4.5438
 4382TIP3   OH234636   6.091   5.434   1.833  0.2030 -0.5566  0.6873
 4382TIP3    H134637   6.034   5.424   1.757  1.7432  1.4455 -0.8412
 4382TIP3    H234638   6.097   5.346   1.870 -2.2197 -1.2042 -0.2452
 4383TIP3   OH234639   6.494   6.130   2.093 -0.2598 -0.2053  0.0419
 4383TIP3    H134640   6.432   6.137   2.166  0.2465 -3.4307  0.9504
 4383TIP3    H234641   6.442   6.096   2.020 -0.2801  0.7437 -0.4034
 4384TIP3   OH234642   2.899   0.766  13.549 -0.0238 -0.6312  0.3590
 4384TIP3    H134643   2.938   0.709  13.615  0.8721 -1.4584 -0.8556
 4384TIP3    H234644   2.963   0.768  13.478 -0.5849  0.9316 -0.1411
 4385TIP3   OH234645   3.639   2.188  16.263  0.1671  0.6024  0.1800
 4385TIP3    H134646   3.591   2.202  16.181 -0.9070  0.0568  0.6991
 4385TIP3    H234647   3.571   2.185  16.330  0.9270 -0.2542  0.9303
 4386TIP3   OH234648   5.821   2.868  15.683 -0.2792  0.1425 -0.1443
 4386TIP3    H134649   5.824   2.894  15.775 -1.0031 -0.0471 -0.0641
 4386TIP3    H234650   5.870   2.936  15.637  1.3594 -0.5078  0.5440
 4387TIP3   OH234651   1.583   1.505  14.986  0.3787 -0.2616 -0.4006
 4387TIP3    H134652   1.594   1.448  14.909  1.0946 -1.8252  0.7976
 4387TIP3    H234653   1.505   1.470  15.030  1.7264 -1.3924  1.1924
 4388TIP3   OH234654   6.224   5.386  14.696  0.2337 -0.7203  0.3916
 4388TIP3    H134655   6.258   5.300  14.722 -0.1738 -1.4194 -1.2516
 4388TIP3    H234656   6.150   5.366  14.639 -0.8007  0.7546  1.1534
 4389TIP3   OH234657   3.765   3.538  11.970 -0.6075 -0.1133  0.2730
 4389TIP3    H134658   3.699   3.599  12.004 -1.6403  0.0197 -1.8415
 4389TIP3    H234659   3.761   3.463  12.030 -0.8506  0.9490  1.6484
 4390TIP3   OH234660   0.236   2.416   5.923 -0.0549 -0.1435 -0.3192
 4390TIP3    H134661   0.200   2.480   5.862  2.3045  0.8587 -0.7800
 4390TIP3    H234662   0.313   2.382   5.878  1.6239  0.4273  1.9565
 4391TIP3   OH234663   0.003   3.179   5.389 -0.0322 -0.1942  0.7528
 4391TIP3    H134664   0.095   3.170   5.413  0.3806  0.0758 -0.6601
 4391TIP3    H234665  -0.042   3.199   5.472  1.2257  0.0834  1.3849
 4392TIP3   OH234666   0.950   2.646   2.030 -0.5188  0.5114 -0.5167
 4392TIP3    H134667   0.886   2.688   1.972  0.0516  1.1342 -0.7037
 4392TIP3    H234668   0.951   2.702   2.108 -0.1649  0.5318 -0.5372
 4393TIP3   OH234669   6.279   6.071  13.891 -0.3827  0.1291 -0.8301
 4393TIP3    H134670   6.259   6.143  13.831  0.4327  0.8231 -0.2988
 4393TIP3    H234671   6.325   6.007  13.837 -1.5699 -0.2465 -1.4245
 4394TIP3   OH234672   4.920   6.668  10.816  0.0089  0.2678  0.2537
 4394TIP3    H134673   4.880   6.668  10.729 -0.8171  0.9518  0.6077
 4394TIP3    H234674   4.911   6.759  10.846  1.5576  0.3675  0.4900
 4395TIP3   OH234675   3.947   3.560   3.330 -0.0480 -0.1842  1.1168
 4395TIP3    H134676   3.873   3.598   3.283  0.3765  1.9459  2.0296
 4395TIP3    H234677   3.913   3.545   3.419 -0.2793 -2.2770  0.7079
 4396TIP3   OH234678   2.663   5.294  15.589 -0.6765 -0.3926  0.1595
 4396TIP3    H134679   2.658   5.201  15.612  1.1712 -0.2907  1.1492
 4396TIP3    H234680   2.572   5.324  15.590 -1.2443 -2.0293  0.5130
 4397TIP3   OH234681   4.024   6.092  15.187 -0.6990 -0.5622 -0.2277
 4397TIP3    H134682   3.989   6.051  15.108  0.4074 -2.0382  0.0147
 4397TIP3    H234683   4.097   6.146  15.156 -0.4646 -0.8958 -0.2661
 4398TIP3   OH234684   1.702   6.011  12.284 -0.2027  0.6613 -0.4884
 4398TIP3    H134685   1.749   5.938  12.243  0.1340  0.0489  0.9201
 4398TIP3    H234686   1.624   6.022  12.231 -0.2172 -0.6727 -0.7844
 4399TIP3   OH234687   0.837   0.495   0.950  0.0664 -0.2449 -0.3107
 4399TIP3    H134688   0.822   0.588   0.929 -1.6408 -0.2331  0.7949
 4399TIP3    H234689   0.750   0.460   0.967  0.7210 -2.0011 -0.4018
 4400TIP3   OH234690   1.793   5.384  11.326 -0.1398 -0.4380  0.3561
 4400TIP3    H134691   1.797   5.478  11.342  1.5266 -0.7472  2.2140
 4400TIP3    H234692   1.835   5.372  11.240  2.5950  0.3214  1.4651
 4401TIP3   OH234693   3.863   0.957   5.094 -0.3350 -0.2516  0.6332
 4401TIP3    H134694   3.956   0.958   5.073 -0.1065 -2.0422  1.3952
 4401TIP3    H234695   3.840   1.050   5.105  1.1509  0.2677 -0.3412
 4402TIP3   OH234696   1.028   0.400   4.528  0.0575 -0.3177  0.1636
 4402TIP3    H134697   0.998   0.458   4.459  1.4567 -2.3482 -2.3122
 4402TIP3    H234698   0.957   0.336   4.539 -0.2962  0.1819  0.8813
 4403TIP3   OH234699   3.547   4.868  15.107  0.1115 -0.1779 -0.9913
 4403TIP3    H134700   3.557   4.873  15.202  1.0458  1.3136 -1.1257
 4403TIP3    H234701   3.576   4.780  15.084  0.5523 -0.3114  0.0359
 4404TIP3   OH234702   1.065   3.668   2.336 -0.2447  0.2709  0.0607
 4404TIP3    H134703   1.048   3.628   2.250  0.4367  1.3343 -0.5986
 4404TIP3    H234704   1.043   3.600   2.399 -0.4275 -0.6579 -0.9707
 4405TIP3   OH234705   5.528   2.754   2.245 -0.0551  0.3460 -0.1091
 4405TIP3    H134706   5.435   2.743   2.266 -0.1959  1.9380  0.2279
 4405TIP3    H234707   5.575   2.707   2.314 -0.5934  1.0771  0.7652
 4406TIP3   OH234708   1.574   0.711  10.234 -0.2172  0.1082  0.0027
 4406TIP3    H134709   1.495   0.688  10.186  1.3047  0.1901 -2.7756
 4406TIP3    H234710   1.626   0.630  10.234  0.3091  0.4394  0.4818
 4407TIP3   OH234711   6.186   1.416  13.309 -0.0591 -0.2400 -0.4172
 4407TIP3    H134712   6.166   1.509  13.298  1.4783  0.8501  3.8955
 4407TIP3    H234713   6.258   1.400  13.249  0.1916  1.6116 -0.6706
 4408TIP3   OH234714   4.728   0.077  13.037  0.3650  0.1216  0.2668
 4408TIP3    H134715   4.737   0.140  13.108 -0.2184  1.0787 -0.4768
 4408TIP3    H234716   4.802   0.096  12.978  0.4172 -0.1566  0.2407
 4409TIP3   OH234717   4.522   3.306  13.348 -0.2230 -0.1945  0.1430
 4409TIP3    H134718   4.591   3.290  13.284 -0.6894 -0.0835 -0.3943
 4409TIP3    H234719   4.483   3.389  13.320  1.4013  1.3862  2.1986
 4410TIP3   OH234720   0.598   5.605   5.457 -0.3561 -0.2681  0.2085
 4410TIP3    H134721   0.672   5.665   5.461 -0.4206 -0.0639 -1.2754
 4410TIP3    H234722   0.586   5.576   5.548  1.2487  0.0234  0.5382
 4411TIP3   OH234723   6.347   2.329  15.901  0.1153 -0.3172 -0.7376
 4411TIP3    H134724   6.266   2.311  15.853  1.1428 -1.1322 -2.2425
 4411TIP3    H234725   6.371   2.417  15.875  0.2805 -0.4852 -1.1717
 4412TIP3   OH234726   3.760   4.210  12.107  0.4971 -0.2387  0.0267
 4412TIP3    H134727   3.795   4.121  12.103  2.1024  0.2779  1.3593
 4412TIP3    H234728   3.709   4.213  12.187  1.6698  0.4089  0.7804
 4413TIP3   OH234729   1.041   5.724  12.912 -0.5909  0.3070 -0.5579
 4413TIP3    H134730   0.994   5.789  12.964  0.4091  1.1326 -0.6582
 4413TIP3    H234731   1.113   5.773  12.872 -0.1862 -0.7359 -1.1312
 4414TIP3   OH234732   6.685   3.435  11.208  0.4644 -1.1336  0.3114
 4414TIP3    H134733   6.708   3.342  11.201  3.0295 -0.5647  0.4099
 4414TIP3    H234734   6.769   3.481  11.210 -0.7468  1.2695 -0.4970
 4415TIP3   OH234735   5.096   0.523   2.785 -0.2853  0.0742 -0.2181
 4415TIP3    H134736   5.004   0.551   2.787 -0.3724  0.1375 -2.6363
 4415TIP3    H234737   5.092   0.431   2.758  0.3283 -0.3807  1.1639
 4416TIP3   OH234738   6.477   5.882  10.341 -0.3920  0.3786 -0.2734
 4416TIP3    H134739   6.561   5.844  10.365 -0.8640  0.7377  2.1557
 4416TIP3    H234740   6.422   5.807  10.319  0.2425  0.0780 -0.8878
 4417TIP3   OH234741   5.500   5.813  14.416 -0.1050  0.6443  0.1574
 4417TIP3    H134742   5.440   5.834  14.344 -0.0718 -0.7368 -0.2987
 4417TIP3    H234743   5.452   5.839  14.495 -1.2976 -0.3328 -0.2048
 4418TIP3   OH234744   2.939   1.987   2.969 -0.0095 -0.0259  0.6597
 4418TIP3    H134745   2.910   1.994   2.878 -3.2291  1.6552  1.6488
 4418TIP3    H234746   2.946   1.893   2.985  1.1283 -0.3579 -1.3912
 4419TIP3   OH234747   1.337   3.618   2.414  0.7114  0.0296 -0.0127
 4419TIP3    H134748   1.371   3.666   2.489 -1.6211  1.3933  0.2667
 4419TIP3    H234749   1.273   3.677   2.374  0.3762 -1.4647 -1.8584
 4420TIP3   OH234750   3.495   1.813   5.606 -0.2463  0.1172 -0.2913
 4420TIP3    H134751   3.566   1.847   5.660  0.6996  0.4452 -1.6899
 4420TIP3    H234752   3.447   1.753   5.664 -1.3849  2.9855  1.9676
 4421TIP3   OH234753   3.778   6.334   5.424  0.5294 -0.3761 -0.2341
 4421TIP3    H134754   3.781   6.239   5.412 -0.3654 -0.4528  0.0564
 4421TIP3    H234755   3.687   6.351   5.448  1.2837  0.2390  2.4438
 4422TIP3   OH234756   0.242   6.264   5.566 -0.0710  0.6475  0.2993
 4422TIP3    H134757   0.245   6.208   5.644 -2.2176 -0.0621 -0.0575
 4422TIP3    H234758   0.152   6.299   5.565  0.6481  2.6327 -0.5265
 4423TIP3   OH234759   0.118   3.326  11.616 -0.6568  0.2362 -0.0552
 4423TIP3    H134760   0.035   3.279  11.607 -1.0948  0.4719  2.1239
 4423TIP3    H234761   0.092   3.415  11.638  0.1690  0.2668  0.8205
 4424TIP3   OH234762   2.774   4.994   3.198  0.3720  0.4280  0.0731
 4424TIP3    H134763   2.680   4.994   3.216  0.7828  2.8585  2.8894
 4424TIP3    H234764   2.815   4.975   3.282  2.4356  0.4426 -0.8685
 4425TIP3   OH234765   4.169   0.422   3.996 -0.1664 -0.3121  0.1197
 4425TIP3    H134766   4.231   0.449   3.928  0.4696  0.7326  1.0756
 4425TIP3    H234767   4.091   0.474   3.978 -0.8904 -1.7611 -1.1955
 4426TIP3   OH234768   2.842   3.892  17.074 -0.0500  0.3817  0.5579
 4426TIP3    H134769   2.912   3.827  17.065  0.2923  0.7706  0.3855
 4426TIP3    H234770   2.830   3.902  17.168 -0.5760 -0.4334  0.5865
 4427TIP3   OH234771   5.543   5.163  13.623 -0.0862 -0.4672 -0.3485
 4427TIP3    H134772   5.547   5.069  13.642 -0.1619 -0.5427 -0.6934
 4427TIP3    H234773   5.635   5.190  13.615 -0.0414 -0.3461  0.5288
 4428TIP3   OH234774   6.772   2.616  11.526 -0.1823  0.3846  0.2431
 4428TIP3    H134775   6.852   2.644  11.570  0.8130 -1.6018 -0.1615
 4428TIP3    H234776   6.797   2.610  11.433 -0.4967 -1.1731  0.2413
 4429TIP3   OH234777   3.550   0.740   1.359 -0.1743  0.0640  0.8008
 4429TIP3    H134778   3.582   0.650   1.353 -0.4061 -0.0402  1.0879
 4429TIP3    H234779   3.545   0.770   1.269 -3.2058 -1.2981  0.3819
 4430TIP3   OH234780   3.615   3.523   0.864  0.3016  0.4292  0.0212
 4430TIP3    H134781   3.664   3.605   0.872  0.5768  0.2206  0.5262
 4430TIP3    H234782   3.525   3.550   0.850  0.5915  0.8221 -1.2030
 4431TIP3   OH234783   5.540   1.580   3.238 -0.1615 -0.3305 -0.5966
 4431TIP3    H134784   5.497   1.627   3.310  2.1383  0.3337  0.4300
 4431TIP3    H234785   5.560   1.647   3.173 -0.0223 -0.5033 -0.7326
 4432TIP3   OH234786   5.808   1.210  14.308 -0.1161 -0.3495 -0.1393
 4432TIP3    H134787   5.843   1.122  14.318  1.8630  0.5807  2.1564
 4432TIP3    H234788   5.878   1.259  14.263 -0.9060  0.2401 -0.7697
 4433TIP3   OH234789   0.512   5.233  12.731 -0.6481 -0.3536 -0.0061
 4433TIP3    H134790   0.418   5.240  12.712 -0.5742 -0.4153 -0.4042
 4433TIP3    H234791   0.546   5.178  12.661 -0.1635  0.3654 -0.3403
 4434TIP3   OH234792   2.516   4.110  16.086 -0.2003  0.6792 -0.0353
 4434TIP3    H134793   2.504   4.017  16.066 -0.8379  0.7633 -0.0736
 4434TIP3    H234794   2.585   4.138  16.027 -0.4898  0.3832 -0.5270
 4435TIP3   OH234795   2.227   0.367  15.616  0.1869  0.2406  0.1746
 4435TIP3    H134796   2.263   0.445  15.656  2.4445  0.3890 -1.9520
 4435TIP3    H234797   2.194   0.396  15.531 -1.6424 -0.6275  0.5247
 4436TIP3   OH234798   4.108   4.919   6.597 -0.0882 -1.1568  0.1252
 4436TIP3    H134799   4.053   4.910   6.519 -0.6281 -1.4794  0.5385
 4436TIP3    H234800   4.074   4.996   6.642  0.9098 -0.3258 -0.4947
 4437TIP3   OH234801   3.946   4.345   1.587  0.1721  0.3668  0.9533
 4437TIP3    H134802   3.876   4.336   1.652  0.4143  2.2541  1.5598
 4437TIP3    H234803   3.903   4.335   1.503 -0.3998 -0.7441  1.3592
 4438TIP3   OH234804   6.288   5.601  11.947  0.0283 -0.5733  0.6022
 4438TIP3    H134805   6.372   5.556  11.941 -0.2498 -1.0400  0.1286
 4438TIP3    H234806   6.236   5.565  11.875 -0.3526  0.1937  0.4814
 4439TIP3   OH234807   4.480   3.863  15.125  0.4142 -0.1052  0.1816
 4439TIP3    H134808   4.573   3.885  15.129  0.1115  1.0789  1.4645
 4439TIP3    H234809   4.461   3.822  15.209 -0.5366  1.0482  0.5486
 4440TIP3   OH234810   5.980   3.210  15.181 -0.0831 -0.1190  0.2988
 4440TIP3    H134811   5.962   3.138  15.121  0.4656 -0.5087  0.5967
 4440TIP3    H234812   5.910   3.204  15.247 -1.3178  0.9487 -0.8372
 4441TIP3   OH234813   0.054   6.801   5.209 -0.2705 -0.0181  0.4037
 4441TIP3    H134814  -0.039   6.823   5.215 -0.9593 -1.6805 -2.3677
 4441TIP3    H234815   0.056   6.706   5.199  1.7944 -0.0899  1.0330
 4442TIP3   OH234816   2.769   4.800  16.951  0.1076 -0.4996 -0.5057
 4442TIP3    H134817   2.699   4.752  16.908  0.5105 -0.7547 -0.8872
 4442TIP3    H234818   2.840   4.803  16.887  0.4398 -0.2259 -0.1361
 4443TIP3   OH234819   2.818   2.350   5.050  0.3550  0.0230 -0.0803
 4443TIP3    H134820   2.800   2.256   5.047  0.1342  0.0664 -0.1153
 4443TIP3    H234821   2.738   2.391   5.017 -0.6311  0.3550  2.4798
 4444TIP3   OH234822   4.685   3.144   1.896 -0.2813 -0.0803 -0.2596
 4444TIP3    H134823   4.699   3.173   1.806  0.8462  1.3623  0.3237
 4444TIP3    H234824   4.742   3.200   1.948  2.1167 -3.4294  1.0468
 4445TIP3   OH234825   4.855   0.475  12.321 -0.7963  0.3573 -0.6357
 4445TIP3    H134826   4.761   0.461  12.325 -0.7590  0.1133 -0.5220
 4445TIP3    H234827   4.877   0.468  12.228 -0.4162 -3.0665 -0.4258
 4446TIP3   OH234828   2.925   3.168  12.701 -0.0680 -1.1444 -0.3729
 4446TIP3    H134829   2.904   3.113  12.777  1.2198 -0.2916  0.6348
 4446TIP3    H234830   3.011   3.204  12.720  0.7962 -1.7587 -2.7672
 4447TIP3   OH234831   4.718   0.151   0.894  0.2316 -0.2146  0.2481
 4447TIP3    H134832   4.786   0.084   0.896  0.5139  0.0766  0.5330
 4447TIP3    H234833   4.683   0.148   0.805  2.1695  1.1846 -0.6214
 4448TIP3   OH234834   5.318   0.430   0.652  0.0337 -0.6704  0.3005
 4448TIP3    H134835   5.409   0.418   0.624  1.2614  1.1852  3.0942
 4448TIP3    H234836   5.291   0.344   0.684  0.3932 -1.4872 -1.4729
 4449TIP3   OH234837   2.924   0.056  12.077 -0.6149 -0.4811 -0.2755
 4449TIP3    H134838   2.979   0.130  12.053  1.7329 -1.4294  1.7028
 4449TIP3    H234839   2.979  -0.021  12.061 -0.6108 -1.4019  3.2698
 4450TIP3   OH234840   3.583   3.955   0.591  0.4342  0.4155  0.0657
 4450TIP3    H134841   3.589   3.866   0.555  0.6340  0.1998  0.6122
 4450TIP3    H234842   3.528   3.946   0.669  1.0875  0.6187  0.5656
 4451TIP3   OH234843   6.541   1.282   4.274 -0.1765  0.7469 -0.3154
 4451TIP3    H134844   6.447   1.300   4.278  0.0170  1.5396  1.0746
 4451TIP3    H234845   6.552   1.199   4.321 -0.0711  1.1621  0.4075
 4452TIP3   OH234846   1.481   2.451   5.497 -0.0824  0.5594  1.0498
 4452TIP3    H134847   1.421   2.495   5.558  1.9378 -0.4368  4.0212
 4452TIP3    H234848   1.563   2.500   5.505  0.2925  0.3044 -0.8499
 4453TIP3   OH234849   5.307   1.669  14.698 -0.0997 -0.2828  0.4500
 4453TIP3    H134850   5.264   1.670  14.612 -0.4209 -1.0679  0.5934
 4453TIP3    H234851   5.378   1.606  14.688  0.7160  0.6328  0.3676
 4454TIP3   OH234852   6.048   1.796   5.218 -0.3161  0.4767 -0.1509
 4454TIP3    H134853   6.076   1.833   5.301  0.1603  0.1742 -0.1725
 4454TIP3    H234854   6.021   1.871   5.166  0.5076  0.7879 -0.1475
 4455TIP3   OH234855   1.052   5.582  11.511 -0.0717  0.3923  0.0062
 4455TIP3    H134856   1.082   5.617  11.428  0.0721  0.8370  0.2451
 4455TIP3    H234857   1.130   5.548  11.554 -0.3641 -1.3060 -0.7225
 4456TIP3   OH234858   4.782   0.962  14.546  0.0964 -0.2254 -0.4132
 4456TIP3    H134859   4.710   0.937  14.489 -0.2824  0.8629 -0.4374
 4456TIP3    H234860   4.821   1.039  14.504  1.7848 -1.2498 -0.8191
 4457TIP3   OH234861   4.886   1.071  14.203 -0.6732  0.3308  0.8840
 4457TIP3    H134862   4.853   1.126  14.274  0.7379 -0.6270  2.3484
 4457TIP3    H234863   4.807   1.039  14.158 -1.5470  1.9901  1.1766
 4458TIP3   OH234864   5.778   5.747  12.270 -0.5934  0.7004 -0.2345
 4458TIP3    H134865   5.722   5.684  12.224 -0.4572  1.2153 -1.1182
 4458TIP3    H234866   5.813   5.697  12.344  0.2698 -0.5710 -1.4396
 4459TIP3   OH234867   3.393   1.164  13.479  0.0532 -0.6160 -0.2270
 4459TIP3    H134868   3.475   1.208  13.456 -0.6713  0.4005 -0.9309
 4459TIP3    H234869   3.407   1.133  13.569  1.0673 -0.1493 -0.2085
 4460TIP3   OH234870   1.642   6.073   6.377 -0.4618 -0.6439  0.0134
 4460TIP3    H134871   1.672   6.139   6.315 -1.1701 -0.5445 -0.2285
 4460TIP3    H234872   1.637   6.118   6.460 -1.2925 -0.2894 -0.2203
 4461TIP3   OH234873   3.937   1.375   4.688  0.7941 -0.1786 -0.0332
 4461TIP3    H134874   3.920   1.468   4.705  0.4550 -0.3185  0.4130
 4461TIP3    H234875   3.941   1.369   4.593  1.9849  0.4996 -0.0540
 4462TIP3   OH234876   2.197   4.103   0.855 -0.5635 -0.3047 -0.1459
 4462TIP3    H134877   2.160   4.075   0.772  2.5694  0.9147 -2.1263
 4462TIP3    H234878   2.176   4.197   0.860 -0.0948 -0.2071  0.0587
 4463TIP3   OH234879   6.630   3.653  15.442  0.4262 -0.0883 -0.2311
 4463TIP3    H134880   6.537   3.676  15.446  0.6384  0.7656  0.0550
 4463TIP3    H234881   6.648   3.645  15.348 -0.1557 -1.2559 -0.2607
 4464TIP3   OH234882   2.039   5.563   6.061 -0.0592  0.1202  0.2593
 4464TIP3    H134883   2.016   5.512   6.139  1.2665 -0.0778  0.5473
 4464TIP3    H234884   2.006   5.651   6.079  2.0011  0.6277  2.0091
 4465TIP3   OH234885   4.398   0.416   6.125 -0.2257 -0.1328  0.2727
 4465TIP3    H134886   4.311   0.378   6.112 -0.6545  0.5322  1.0834
 4465TIP3    H234887   4.439   0.359   6.190 -0.7263  0.5588  1.2069
 4466TIP3   OH234888   6.578   3.365  13.096  0.2759 -0.4181 -0.4302
 4466TIP3    H134889   6.524   3.307  13.043  0.0660 -1.0108  0.4141
 4466TIP3    H234890   6.658   3.315  13.114  0.1345 -0.4207  0.2199
 4467TIP3   OH234891   6.384   1.181   0.738 -0.0034 -0.0789  0.2492
 4467TIP3    H134892   6.405   1.095   0.775 -1.1695 -0.2428  0.5662
 4467TIP3    H234893   6.313   1.214   0.793  0.0290  0.8358 -0.2374
 4468TIP3   OH234894   5.590   5.252  13.347  0.3568 -0.0069  0.4747
 4468TIP3    H134895   5.573   5.230  13.439  1.1677 -1.1701  0.3584
 4468TIP3    H234896   5.598   5.347  13.347  0.6023 -0.0098  1.6572
 4469TIP3   OH234897   0.035   0.240  12.449  0.5503  0.6658 -0.1807
 4469TIP3    H134898   0.072   0.329  12.445  0.7266  0.5590 -1.2647
 4469TIP3    H234899  -0.057   0.251  12.423 -0.2611  0.9340  2.5335
 4470TIP3   OH234900   1.553   0.502  16.517  0.3413  0.2900 -0.4030
 4470TIP3    H134901   1.551   0.574  16.581  1.1873 -0.9138  1.0500
 4470TIP3    H234902   1.636   0.458  16.534  0.1570 -0.6397 -1.7407
 4471TIP3   OH234903   2.135   3.637   6.147  0.1806  0.3505 -0.1047
 4471TIP3    H134904   2.178   3.718   6.177 -0.5406  1.0872 -0.9768
 4471TIP3    H234905   2.202   3.570   6.157  1.0368  1.1888  0.0097
 4472TIP3   OH234906   6.476   5.177  15.244 -0.0544  0.5537  0.3354
 4472TIP3    H134907   6.543   5.164  15.311  0.2169  1.0730  0.1706
 4472TIP3    H234908   6.523   5.221  15.172 -0.6082  1.0949  0.2969
 4473TIP3   OH234909   2.438   5.766   5.651 -0.1544 -0.2034 -0.1108
 4473TIP3    H134910   2.458   5.806   5.566 -1.4685  0.1768 -0.2584
 4473TIP3    H234911   2.510   5.705   5.666  0.5101  0.2998 -1.1246
 4474TIP3   OH234912   4.171   5.712   0.428 -0.4931 -0.0058 -0.0382
 4474TIP3    H134913   4.139   5.770   0.359 -1.4495 -0.4014  0.0453
 4474TIP3    H234914   4.091   5.676   0.468  0.0211 -2.5741 -1.1027
 4475TIP3   OH234915   4.320   4.874  11.660 -0.2090 -0.5982 -0.5274
 4475TIP3    H134916   4.277   4.822  11.727  0.9816  1.5799  2.1254
 4475TIP3    H234917   4.413   4.850  11.666  0.7173  2.7502  2.0342
 4476TIP3   OH234918   0.496   1.108  16.456 -0.2315 -0.2591  0.0408
 4476TIP3    H134919   0.418   1.161  16.466 -0.4768 -0.8414  1.5095
 4476TIP3    H234920   0.553   1.134  16.529 -0.0159 -1.3918  0.3049
 4477TIP3   OH234921   1.668   5.593  13.563  0.3330 -0.4734 -0.5972
 4477TIP3    H134922   1.674   5.556  13.475 -0.4318 -1.3359 -0.2920
 4477TIP3    H234923   1.580   5.571  13.593  0.8297 -0.8206  0.6708
 4478TIP3   OH234924   5.597   6.216   1.797  0.3452 -0.0194 -0.1885
 4478TIP3    H134925   5.656   6.144   1.816  0.7951  0.1362 -0.9566
 4478TIP3    H234926   5.520   6.175   1.757 -0.0358 -0.2098  0.7075
 4479TIP3   OH234927   1.700   2.458   0.697 -0.3455 -0.0907 -0.2596
 4479TIP3    H134928   1.685   2.531   0.757  1.0961  1.2685 -1.4669
 4479TIP3    H234929   1.640   2.390   0.727 -1.5156  1.4604  1.1085
 4480TIP3   OH234930   1.359   6.715   3.205  0.0555 -0.2162 -0.5038
 4480TIP3    H134931   1.309   6.635   3.219  0.4018 -0.5190 -0.9677
 4480TIP3    H234932   1.350   6.735   3.112  1.3040 -0.6362 -0.7386
 4481TIP3   OH234933   3.419   5.621  16.946  0.0265 -0.0819 -0.5920
 4481TIP3    H134934   3.470   5.682  16.999  1.5041 -0.2333 -1.7694
 4481TIP3    H234935   3.447   5.534  16.975 -0.7825 -0.2035 -0.1314
 4482TIP3   OH234936   5.285   1.723   4.846 -0.4986 -0.0330 -0.7211
 4482TIP3    H134937   5.248   1.682   4.768  0.7922 -0.0249 -1.3677
 4482TIP3    H234938   5.330   1.801   4.813  1.9115 -1.1552 -0.3159
 4483TIP3   OH234939   1.839   3.487  12.849  0.4309 -0.0943 -0.3871
 4483TIP3    H134940   1.799   3.529  12.773  0.7238 -0.4796 -0.7590
 4483TIP3    H234941   1.933   3.493  12.833  0.5426  0.8650  0.5157
 4484TIP3   OH234942   6.060   4.234   4.779 -0.3487  0.6314  0.0768
 4484TIP3    H134943   5.979   4.231   4.728 -0.0061  1.0849 -0.5174
 4484TIP3    H234944   6.104   4.313   4.747  1.2487 -0.6431 -1.0377
 4485TIP3   OH234945   1.159   4.052  14.069  0.0413 -0.0905 -0.2097
 4485TIP3    H134946   1.075   4.075  14.031  0.2354  0.4663 -0.3125
 4485TIP3    H234947   1.223   4.100  14.017  0.2938  0.9393  0.9749
 4486TIP3   OH234948   4.188   4.018   0.911  0.4509 -0.1704 -0.1913
 4486TIP3    H134949   4.232   3.988   0.832  1.6766  2.4357 -0.5749
 4486TIP3    H234950   4.132   4.090   0.882 -0.3954 -0.2773  1.0762
 4487TIP3   OH234951   2.063   1.980  12.917 -0.3198 -0.1617  0.1804
 4487TIP3    H134952   2.065   1.903  12.975 -0.6757 -0.0390  0.3587
 4487TIP3    H234953   2.019   2.048  12.969 -1.5000 -0.3272 -0.5713
 4488TIP3   OH234954   6.417   1.022   2.699 -0.1487  0.3200 -0.5230
 4488TIP3    H134955   6.425   1.042   2.606  0.9103  1.3713 -0.2321
 4488TIP3    H234956   6.401   0.927   2.702  1.5580 -0.0620 -1.7320
 4489TIP3   OH234957   6.247   6.060   2.557 -0.1622 -0.5173 -0.1034
 4489TIP3    H134958   6.206   6.132   2.510 -1.3762 -1.4937 -0.5726
 4489TIP3    H234959   6.242   5.985   2.497 -0.2532 -1.3679  0.9288
 4490TIP3   OH234960   1.101   2.040  15.104 -0.3348 -0.4875 -0.5284
 4490TIP3    H134961   1.161   2.114  15.092  1.0891 -1.7639 -1.9029
 4490TIP3    H234962   1.037   2.070  15.168  1.1690  1.3366  0.2122
 4491TIP3   OH234963   3.688   4.894   3.048  0.1897 -0.1369  0.2456
 4491TIP3    H134964   3.715   4.877   3.138  0.1157  0.7603  0.4448
 4491TIP3    H234965   3.616   4.833   3.033  1.4432 -1.6593  0.1287
 4492TIP3   OH234966   5.981   0.064  13.853  0.3072 -0.3763 -0.1139
 4492TIP3    H134967   6.033   0.134  13.892  0.5333 -1.2169  1.1423
 4492TIP3    H234968   6.001  -0.014  13.906 -2.5245 -0.6517  0.7089
 4493TIP3   OH234969   2.184   0.493  13.030  0.2175 -0.3597 -0.7346
 4493TIP3    H134970   2.147   0.432  13.094  0.6245  0.9113  0.7540
 4493TIP3    H234971   2.133   0.573  13.041  2.0224  0.7502 -0.0824
 4494TIP3   OH234972   3.938   6.794  10.486  0.0097  0.7260  0.0140
 4494TIP3    H134973   3.886   6.718  10.461  1.7801 -1.2861  1.9145
 4494TIP3    H234974   3.900   6.822  10.570  0.6170  0.5755  0.3495
 4495TIP3   OH234975   6.105   0.543   1.769  0.2742  0.2712  0.1077
 4495TIP3    H134976   6.157   0.490   1.708  0.6290 -0.8679  1.3695
 4495TIP3    H234977   6.081   0.620   1.718  2.0761  0.2077 -0.9433
 4496TIP3   OH234978   5.900   5.588  11.731 -0.1168 -0.1756  0.3103
 4496TIP3    H134979   5.928   5.529  11.802  0.5464  2.8537  2.8170
 4496TIP3    H234980   5.980   5.603  11.680  0.3368  0.3600  1.1446
 4497TIP3   OH234981   2.126   2.189   4.055 -0.5073 -0.3146  0.0714
 4497TIP3    H134982   2.110   2.097   4.074 -0.1538 -0.2147  0.9329
 4497TIP3    H234983   2.188   2.217   4.123 -0.6351  0.5632 -0.1548
 4498TIP3   OH234984   6.389   6.809  11.110 -0.0876  0.2707 -0.0305
 4498TIP3    H134985   6.372   6.729  11.060  0.2386  1.8172 -2.8762
 4498TIP3    H234986   6.301   6.845  11.127 -0.1925 -0.1435  0.3301
 4499TIP3   OH234987   6.606   0.108   4.472 -0.2063 -0.2128 -0.0764
 4499TIP3    H134988   6.662   0.109   4.394 -1.3870 -0.3270 -0.9698
 4499TIP3    H234989   6.637   0.181   4.525  1.2518 -0.7293 -0.1855
 4500TIP3   OH234990   0.412   3.905   5.693 -0.0513 -0.0488  0.1764
 4500TIP3    H134991   0.365   3.964   5.752 -0.6342  1.7355 -1.9629
 4500TIP3    H234992   0.504   3.921   5.712 -0.2288  0.1651  0.9044
 4501TIP3   OH234993   1.537   2.367  11.473 -0.1011 -0.5684  0.1518
 4501TIP3    H134994   1.621   2.409  11.491 -0.3769 -0.2698  0.7975
 4501TIP3    H234995   1.503   2.345  11.560 -0.0333 -2.0120 -0.1565
 4502TIP3   OH234996   3.796   3.191  13.641 -0.5034 -0.0279  1.0957
 4502TIP3    H134997   3.843   3.110  13.659 -0.7092 -0.2269  0.7501
 4502TIP3    H234998   3.708   3.163  13.614 -0.4875  0.2918  0.6936
 4503TIP3   OH234999   2.216   2.086  11.843  0.2736  0.5186  0.6278
 4503TIP3    H135000   2.234   2.124  11.757  0.9165  2.9196  1.7460
 4503TIP3    H235001   2.120   2.082  11.848  0.1118  2.9338  0.7609
 4504TIP3   OH235002   2.880   2.839  13.244 -0.2759 -0.4851 -0.4900
 4504TIP3    H135003   2.871   2.803  13.332  0.4739 -1.0691 -0.6420
 4504TIP3    H235004   2.876   2.934  13.256 -0.9342 -0.5846  0.0789
 4505TIP3   OH235005   3.708   0.777   3.704  0.4845 -0.5851  0.0378
 4505TIP3    H135006   3.680   0.790   3.794 -1.5886 -0.1415 -0.6139
 4505TIP3    H235007   3.803   0.766   3.709  0.8555  2.4726  1.9495
 4506TIP3   OH235008   3.096   0.455  14.609 -0.0286 -0.4832  0.2551
 4506TIP3    H135009   3.188   0.476  14.620  0.1024 -0.4863 -0.7046
 4506TIP3    H235010   3.096   0.362  14.582 -0.1772 -0.0904 -1.2246
 4507TIP3   OH235011   0.579   0.700   5.090  0.7230  0.1651 -0.1885
 4507TIP3    H135012   0.551   0.763   5.024  0.0349  0.3855  0.3052
 4507TIP3    H235013   0.583   0.750   5.172 -2.5695 -0.9392  0.8176
 4508TIP3   OH235014   6.813   1.902   0.158 -0.0564 -0.1961  0.0301
 4508TIP3    H135015   6.870   1.901   0.081 -0.9252 -0.5982 -0.6264
 4508TIP3    H235016   6.821   1.815   0.196  0.4094  0.0169  0.4453
 4509TIP3   OH235017   5.909   2.306  15.514 -0.2263  0.1676 -0.7834
 4509TIP3    H135018   5.956   2.294  15.596  0.8260 -0.6801 -1.4791
 4509TIP3    H235019   5.966   2.265  15.448 -1.0882  0.7512 -1.9132
 4510TIP3   OH235020   4.455   3.851  16.642  0.1223  0.3544  0.1516
 4510TIP3    H135021   4.443   3.758  16.621  1.2900  0.7469 -2.5513
 4510TIP3    H235022   4.368   3.880  16.671 -1.1392 -0.8401 -2.1750
 4511TIP3   OH235023   5.460   3.420   5.617  0.0063 -0.1333  0.5670
 4511TIP3    H135024   5.521   3.484   5.653 -0.4739  1.4899 -1.3404
 4511TIP3    H235025   5.426   3.461   5.537 -2.1766 -1.7452  0.5636
 4512TIP3   OH235026   4.543   6.594  15.937 -0.0895 -0.0951  0.0701
 4512TIP3    H135027   4.473   6.566  15.996 -0.3785  2.1430  0.8676
 4512TIP3    H235028   4.612   6.626  15.995 -0.4821  2.4167 -0.7387
 4513TIP3   OH235029   5.932   6.440   6.299 -0.7804  0.4052 -0.7554
 4513TIP3    H135030   6.003   6.485   6.252 -0.0266 -0.7544 -0.7719
 4513TIP3    H235031   5.889   6.386   6.232 -2.1205  1.5775 -0.8848
 4514TIP3   OH235032   1.203   6.634   2.756 -0.4454 -0.0238 -0.5250
 4514TIP3    H135033   1.165   6.719   2.735 -2.2773 -0.6085  0.1386
 4514TIP3    H235034   1.171   6.576   2.687 -0.8081 -0.5451  0.0665
 4515TIP3   OH235035   0.126   4.285   4.536 -0.4205 -0.2867  0.3628
 4515TIP3    H135036   0.126   4.226   4.612  0.0379 -1.4939 -0.5465
 4515TIP3    H235037   0.042   4.269   4.493  0.3884 -1.5520 -0.8177
 4516TIP3   OH235038   4.793   6.244  15.585 -0.4155 -0.3065 -0.1200
 4516TIP3    H135039   4.733   6.295  15.639  0.2876  0.9432 -0.4757
 4516TIP3    H235040   4.765   6.262  15.495 -0.2594 -0.6798 -0.2459
 4517TIP3   OH235041   4.967   4.337  12.661 -0.1636 -0.3537  0.3993
 4517TIP3    H135042   4.989   4.273  12.728  0.2486 -1.1897 -0.5020
 4517TIP3    H235043   5.030   4.407  12.672  0.4541 -0.8947  0.3459
 4518TIP3   OH235044   1.977   0.611  15.541  0.5493  0.5284  0.4148
 4518TIP3    H135045   1.943   0.694  15.507 -0.8831  0.1042  0.7818
 4518TIP3    H235046   2.014   0.567  15.464  0.2207  0.9689  0.0023
 4519TIP3   OH235047   2.162   3.142   5.739  0.2732 -0.1139 -0.6674
 4519TIP3    H135048   2.248   3.099   5.740  2.0324  3.0690 -0.8470
 4519TIP3    H235049   2.106   3.086   5.792  3.1573 -1.0835  1.6035
 4520TIP3   OH235050   3.144   1.281   1.719  0.3966 -0.7023  0.0301
 4520TIP3    H135051   3.218   1.327   1.759 -1.2063  1.1238  1.0331
 4520TIP3    H235052   3.143   1.311   1.628  0.5329 -0.2933  0.1643
 4521TIP3   OH235053   2.612   1.347   6.171  0.1538 -0.6462 -0.0074
 4521TIP3    H135054   2.552   1.313   6.237  0.5281  0.5006  0.9520
 4521TIP3    H235055   2.561   1.411   6.122  0.7512  0.8499  1.2671
 4522TIP3   OH235056   4.845   4.400  16.283  0.1908 -0.3844 -0.1173
 4522TIP3    H135057   4.889   4.350  16.213  0.2095 -0.0158 -0.3722
 4522TIP3    H235058   4.784   4.338  16.321  0.5700 -0.7542 -0.1005
 4523TIP3   OH235059   6.624   1.797   0.843 -0.4167  0.6204  0.1712
 4523TIP3    H135060   6.556   1.790   0.776 -0.3587  1.2134  0.0531
 4523TIP3    H235061   6.687   1.728   0.821 -0.8584  0.2124  0.1513
 4524TIP3   OH235062   0.205   2.971   0.864  0.2706 -0.0948 -0.3528
 4524TIP3    H135063   0.272   2.974   0.933  0.4436  0.1814 -0.5316
 4524TIP3    H235064   0.133   3.025   0.898 -1.1008 -2.6152  1.1098
 4525TIP3   OH235065   1.553   1.377   3.133  0.1173  0.3247  0.5075
 4525TIP3    H135066   1.479   1.345   3.183 -0.3608  1.1385  0.3334
 4525TIP3    H235067   1.616   1.407   3.199  0.4980 -0.7444  0.6693
 4526TIP3   OH235068   6.457   2.472  11.648 -0.1841 -0.1924  0.0956
 4526TIP3    H135069   6.509   2.432  11.577 -0.5915 -1.1214  0.3193
 4526TIP3    H235070   6.403   2.401  11.681 -1.2969  0.6662  0.1621
 4527TIP3   OH235071   6.189   1.553  14.262  0.1023 -0.0133 -0.3829
 4527TIP3    H135072   6.166   1.639  14.298 -3.0068 -1.3824  1.3472
 4527TIP3    H235073   6.256   1.519  14.321  0.2391  0.6038 -0.1742
 4528TIP3   OH235074   0.551   3.322   5.294  0.3761 -0.7776 -0.0635
 4528TIP3    H135075   0.534   3.416   5.299 -2.0409 -1.0893 -1.0473
 4528TIP3    H235076   0.597   3.301   5.376 -0.3937  1.0100  0.8764
 4529TIP3   OH235077   4.695   0.057   0.025 -0.3325 -0.5915 -0.4853
 4529TIP3    H135078   4.708   0.133   0.083 -0.8348 -0.8215 -0.0597
 4529TIP3    H235079   4.652   0.093  -0.052  1.1324 -0.1359 -1.1069
 4530TIP3   OH235080   2.161   5.505   1.980  0.3476 -0.0810 -0.3484
 4530TIP3    H135081   2.111   5.575   1.938  0.1178  0.4341  0.7518
 4530TIP3    H235082   2.160   5.527   2.073  2.3631 -0.2076 -0.2426
 4531TIP3   OH235083   5.258   4.585  13.254 -0.2405 -1.1083 -0.1340
 4531TIP3    H135084   5.317   4.566  13.180  0.2003 -0.9198  0.1607
 4531TIP3    H235085   5.311   4.639  13.313 -0.6369 -1.1376  0.2525
 4532TIP3   OH235086   6.466   4.371   4.266 -0.0456  0.3162  0.1757
 4532TIP3    H135087   6.483   4.414   4.182  0.4579 -0.0602  0.0774
 4532TIP3    H235088   6.389   4.317   4.251  0.4575 -0.2955 -0.2515
 4533TIP3   OH235089   2.535   1.482   1.311 -0.7775 -0.4060 -0.2415
 4533TIP3    H135090   2.551   1.390   1.331  2.7099 -0.2864 -1.7324
 4533TIP3    H235091   2.594   1.530   1.368  0.9210  0.5403 -2.6298
 4534TIP3   OH235092   0.853   3.803  12.517 -0.3692  0.0316 -0.3575
 4534TIP3    H135093   0.864   3.714  12.482 -0.6296 -0.2042  0.1605
 4534TIP3    H235094   0.876   3.860  12.443 -1.2028 -0.4619 -1.0164
 4535TIP3   OH235095   2.735   0.820   1.179 -0.2133 -0.2772  0.0707
 4535TIP3    H135096   2.820   0.834   1.221  1.0392 -2.6648 -1.4831
 4535TIP3    H235097   2.686   0.766   1.241  1.1231 -2.6232 -0.7794
 4536TIP3   OH235098   4.250   4.432  10.565 -0.0880  0.6760 -0.0381
 4536TIP3    H135099   4.232   4.522  10.594  2.1257  1.0538  0.3533
 4536TIP3    H235100   4.339   4.436  10.531 -0.0542 -1.3372 -0.2711
 4537TIP3   OH235101   0.693   6.501   2.168  0.0695  0.5648 -0.6910
 4537TIP3    H135102   0.605   6.520   2.133  0.1972  1.7021 -0.4594
 4537TIP3    H235103   0.750   6.505   2.092 -0.3192 -2.3607 -1.2273
 4538TIP3   OH235104   0.412   0.751  15.141 -0.3341 -0.3388 -0.7589
 4538TIP3    H135105   0.324   0.786  15.157 -0.5437 -1.0710 -0.2313
 4538TIP3    H235106   0.444   0.800  15.066  0.1950  2.4059  1.0933
 4539TIP3   OH235107   1.698   3.229  15.320 -0.2342  0.0685 -0.0609
 4539TIP3    H135108   1.692   3.214  15.226 -0.6630 -0.7934  0.0998
 4539TIP3    H235109   1.629   3.292  15.339 -1.5476 -1.3520 -0.0046
 4540TIP3   OH235110   2.703   4.563   3.391 -0.1021 -0.4050  0.1571
 4540TIP3    H135111   2.770   4.564   3.460  0.4397 -1.4264 -0.3247
 4540TIP3    H235112   2.651   4.485   3.410 -1.6984  0.7981  0.9840
 4541TIP3   OH235113   0.223   3.219   4.028 -0.4587 -0.1583  0.3018
 4541TIP3    H135114   0.227   3.125   4.011  0.3334 -0.4052  1.7298
 4541TIP3    H235115   0.312   3.251   4.011 -1.3815  0.9660 -3.2648
 4542TIP3   OH235116   1.277   1.886  14.964 -0.3982 -0.0261  0.1283
 4542TIP3    H135117   1.254   1.871  14.872  0.2759 -0.0354 -0.0402
 4542TIP3    H235118   1.201   1.932  15.000 -0.6092  0.1004 -0.4671
 4543TIP3   OH235119   0.369   1.023  16.197 -0.2006  0.2935 -0.5024
 4543TIP3    H135120   0.401   1.051  16.283 -1.4883 -0.7441  0.3677
 4543TIP3    H235121   0.313   1.094  16.168  0.2286  0.6445 -0.4801
 4544TIP3   OH235122   4.181   2.752   5.905 -0.4171  0.0601  0.1191
 4544TIP3    H135123   4.210   2.776   5.817  0.3308 -0.9874  0.0649
 4544TIP3    H235124   4.089   2.727   5.894 -0.9632  1.9427  0.0255
 4545TIP3   OH235125   1.477   4.185  11.734  0.3010  0.2637 -0.2694
 4545TIP3    H135126   1.565   4.153  11.714  0.1069 -1.0865  0.8616
 4545TIP3    H235127   1.491   4.269  11.778  1.1738 -0.7768  1.5649
 4546TIP3   OH235128   3.661   6.135   4.049 -0.5041  0.1433  0.6055
 4546TIP3    H135129   3.663   6.060   4.109 -1.8435 -1.0790 -0.7820
 4546TIP3    H235130   3.611   6.104   3.974 -1.3609  2.5424  0.0886
 4547TIP3   OH235131   1.131   2.789  16.732 -0.3603 -0.5440  0.2151
 4547TIP3    H135132   1.210   2.824  16.690 -1.1780  0.5654 -0.4436
 4547TIP3    H235133   1.093   2.864  16.777 -1.1958 -1.0157  0.3048
 4548TIP3   OH235134   5.075   6.656   4.824 -0.2354  0.6093  0.0562
 4548TIP3    H135135   5.151   6.708   4.851 -1.4940  3.4310 -1.4959
 4548TIP3    H235136   5.104   6.609   4.746  0.5608 -0.2225  0.8188
 4549TIP3   OH235137   6.430   0.593   1.871 -0.7552  0.1560 -0.4869
 4549TIP3    H135138   6.419   0.613   1.778 -0.3509  1.7617 -0.2139
 4549TIP3    H235139   6.515   0.630   1.894 -0.0623 -1.7504  0.1410
 4550TIP3   OH235140   1.997   0.302   5.381 -0.0672  0.2954  0.2283
 4550TIP3    H135141   1.981   0.393   5.354  0.0487  0.4743  0.7540
 4550TIP3    H235142   2.077   0.277   5.334 -1.3219 -0.3003 -1.7026
 4551TIP3   OH235143   4.503   5.592  11.219 -0.6315 -0.3133  0.5978
 4551TIP3    H135144   4.460   5.676  11.235 -0.0611 -0.1935  1.5591
 4551TIP3    H235145   4.458   5.556  11.142 -1.1651  0.6711  0.4366
 4552TIP3   OH235146   4.205   4.030  12.762 -0.4023 -1.2910 -0.2421
 4552TIP3    H135147   4.146   4.026  12.687 -1.7843 -0.4802  0.7591
 4552TIP3    H235148   4.248   3.944  12.763 -0.3159 -1.3061 -1.9597
 4553TIP3   OH235149   0.488   1.480   4.101 -0.0322 -0.0534  0.5306
 4553TIP3    H135150   0.397   1.466   4.126 -0.5286  0.6538 -0.7533
 4553TIP3    H235151   0.527   1.392   4.098 -0.8352 -0.4110  0.5108
 4554TIP3   OH235152   2.446   1.732   3.290 -0.4341 -0.0040  0.2189
 4554TIP3    H135153   2.355   1.760   3.276 -0.1386 -0.1641 -2.5351
 4554TIP3    H235154   2.495   1.814   3.293 -0.2230  0.0758 -2.6077
 4555TIP3   OH235155   0.382   6.770  15.030  0.0541  0.2827 -0.2266
 4555TIP3    H135156   0.328   6.696  15.058  2.4323 -1.3206  0.4548
 4555TIP3    H235157   0.417   6.807  15.112  0.1942  1.1114 -0.6492
 4556TIP3   OH235158   4.069   5.828  16.231  0.5000 -0.3454 -0.2672
 4556TIP3    H135159   3.984   5.796  16.260  1.5187 -1.1302  2.1779
 4556TIP3    H235160   4.081   5.791  16.144 -1.3222 -0.8372 -0.3490
 4557TIP3   OH235161   6.168   1.671   3.540 -0.0348  0.5910 -0.0632
 4557TIP3    H135162   6.096   1.696   3.481 -0.9133 -0.2420  0.6280
 4557TIP3    H235163   6.245   1.669   3.484 -0.9364 -0.7546 -1.3320
 4558TIP3   OH235164   3.345   0.799   4.427  0.1132  0.3662  0.3490
 4558TIP3    H135165   3.427   0.765   4.392  1.2356  1.1642  2.0466
 4558TIP3    H235166   3.359   0.893   4.433 -0.6617  0.4375  1.2936
 4559TIP3   OH235167   4.372   2.523  12.022  0.3801  0.3756  0.0136
 4559TIP3    H135168   4.465   2.510  12.003  0.5210  0.0182  0.9181
 4559TIP3    H235169   4.355   2.468  12.098 -0.7456 -0.1055 -0.5612
 4560TIP3   OH235170   2.151   6.736   1.436 -0.2201  0.2206 -0.0612
 4560TIP3    H135171   2.090   6.796   1.392  0.1641 -0.7084 -1.9985
 4560TIP3    H235172   2.220   6.793   1.470 -0.0993  0.9504 -1.4474
 4561TIP3   OH235173   1.794   1.811   3.042  0.3823  0.2786 -0.0749
 4561TIP3    H135174   1.874   1.759   3.035  0.3513  0.1861  0.2828
 4561TIP3    H235175   1.803   1.860   3.123  0.2473  0.5565 -0.2265
 4562TIP3   OH235176   4.484   4.179  11.557 -0.7691  0.4510 -0.6875
 4562TIP3    H135177   4.521   4.091  11.556 -1.7305 -0.2740  3.8400
 4562TIP3    H235178   4.395   4.169  11.522 -0.7933 -0.3974 -0.4069
 4563TIP3   OH235179   1.274   3.514  14.336 -0.1502  0.1037  0.5799
 4563TIP3    H135180   1.204   3.576  14.313 -2.1275 -2.1619  0.1596
 4563TIP3    H235181   1.234   3.428  14.329  2.3768 -1.2691  1.5735
 4564TIP3   OH235182   3.202   0.785   2.488  0.3238  0.6772 -0.0009
 4564TIP3    H135183   3.291   0.752   2.504 -0.1084 -0.1797  0.6686
 4564TIP3    H235184   3.164   0.795   2.575 -1.4105 -2.2433 -0.3090
 4565TIP3   OH235185   0.172   3.235   1.452 -0.0167  0.5486 -0.5212
 4565TIP3    H135186   0.109   3.300   1.484 -0.4062 -0.4036  0.7783
 4565TIP3    H235187   0.186   3.177   1.528  1.1575 -0.2259 -1.3007
 4566TIP3   OH235188   1.672   0.742   3.257 -0.1187 -0.3324 -0.7355
 4566TIP3    H135189   1.652   0.653   3.228 -1.8355  0.2162 -1.3814
 4566TIP3    H235190   1.642   0.798   3.185 -2.9116  0.9813  1.2414
 4567TIP3   OH235191   5.656   2.938  12.998 -0.2935  0.0827  0.4878
 4567TIP3    H135192   5.709   2.886  13.059 -1.8118 -0.0257  1.8062
 4567TIP3    H235193   5.571   2.893  12.997 -1.4962  2.2061  1.2603
 4568TIP3   OH235194   2.852   4.421   2.220  0.5077  0.3450  0.3265
 4568TIP3    H135195   2.913   4.492   2.236  0.6066  0.8917 -2.0857
 4568TIP3    H235196   2.766   4.463   2.219  0.3772  0.0915  0.7970
 4569TIP3   OH235197   5.258   6.573   2.693 -0.1708  0.3277 -0.0250
 4569TIP3    H135198   5.305   6.594   2.774  0.3420 -0.6590 -0.0377
 4569TIP3    H235199   5.328   6.564   2.627 -0.6759  2.5555 -0.9467
 4570TIP3   OH235200   2.175   0.711   5.594  0.6873 -0.8560 -0.0868
 4570TIP3    H135201   2.147   0.619   5.594  0.0691 -0.6841  0.8064
 4570TIP3    H235202   2.208   0.726   5.683 -1.0874  0.3017  0.4413
 4571TIP3   OH235203   3.385   6.003   3.867  0.2389  0.1494  0.0464
 4571TIP3    H135204   3.476   6.025   3.843 -0.1707  2.0524  0.0834
 4571TIP3    H235205   3.356   6.077   3.919 -1.0242 -0.9408  0.9443
 4572TIP3   OH235206   0.381   3.234  16.478  0.0877  0.3589  0.1222
 4572TIP3    H135207   0.324   3.228  16.402  1.5167  2.3157 -1.1688
 4572TIP3    H235208   0.437   3.157  16.471 -0.6294 -0.1604 -0.0624
 4573TIP3   OH235209   5.575   2.757  12.341 -0.2291  0.3404  0.0982
 4573TIP3    H135210   5.493   2.735  12.298  0.3544  0.2364 -0.9923
 4573TIP3    H235211   5.585   2.690  12.409 -1.8459  1.3195  1.3547
 4574TIP3   OH235212   5.608   2.802   5.454 -0.1757  0.2282  0.1919
 4574TIP3    H135213   5.543   2.840   5.513  0.6532  2.1629 -0.0436
 4574TIP3    H235214   5.571   2.718   5.428 -1.0098 -0.2519  2.6641
 4575TIP3   OH235215   1.056   4.919   3.226  0.1605 -0.2101 -0.4764
 4575TIP3    H135216   1.136   4.901   3.177 -0.0622 -0.4789 -0.7463
 4575TIP3    H235217   1.016   4.993   3.181 -1.1964 -1.8421 -2.1232
 4576TIP3   OH235218   4.247   4.377  12.737 -0.1601  0.0326 -0.0534
 4576TIP3    H135219   4.225   4.329  12.657 -1.2242 -0.8868  0.7522
 4576TIP3    H235220   4.332   4.343  12.764 -0.7418 -1.1821  0.3102
 4577TIP3   OH235221   1.956   6.012  15.519  0.2464 -0.2320  0.1451
 4577TIP3    H135222   1.874   6.035  15.477  0.5131  0.4770 -0.0098
 4577TIP3    H235223   2.016   6.084  15.495  0.9269 -0.7700  0.1877
 4578TIP3   OH235224   1.231   0.772   4.567  0.2508  0.3340 -0.4313
 4578TIP3    H135225   1.189   0.835   4.625 -0.7123  1.2380 -2.0381
 4578TIP3    H235226   1.277   0.712   4.626  1.8589  2.9415  1.1503
 4579TIP3   OH235227   1.287   1.522   1.231 -0.1108  0.0354  0.5805
 4579TIP3    H135228   1.255   1.486   1.314 -1.1920 -0.3131  0.0318
 4579TIP3    H235229   1.312   1.445   1.180 -2.1535 -0.0053 -0.4848
 4580TIP3   OH235230   5.044   0.242  15.505 -0.5017  0.6225  0.5853
 4580TIP3    H135231   5.043   0.188  15.584 -0.9545  0.5809  0.5566
 4580TIP3    H235232   5.125   0.217  15.460 -1.1747 -0.7629  0.0766
 4581TIP3   OH235233   5.835   4.855   2.272  0.6842 -0.5802  0.4841
 4581TIP3    H135234   5.826   4.950   2.264 -1.1036 -0.7934 -0.4045
 4581TIP3    H235235   5.747   4.821   2.260  1.0507 -2.3008  2.1756
 4582TIP3   OH235236   1.245   3.946   2.913 -0.4587  0.1133  0.6309
 4582TIP3    H135237   1.315   3.954   2.848 -0.4971 -0.9901  0.4354
 4582TIP3    H235238   1.242   4.032   2.956  1.5162 -0.0479  1.1633
 4583TIP3   OH235239   0.744   1.249   0.447 -0.6288  0.1253 -0.4092
 4583TIP3    H135240   0.757   1.225   0.539 -0.1771  0.6009 -0.3487
 4583TIP3    H235241   0.715   1.167   0.406 -0.1409 -0.2716  0.0139
 4584TIP3   OH235242   0.674   6.162  15.745 -0.5126 -0.0421  0.2393
 4584TIP3    H135243   0.685   6.141  15.652  0.7327  2.0110 -0.1467
 4584TIP3    H235244   0.750   6.124  15.788 -0.6612 -0.2749  0.3015
 4585TIP3   OH235245   4.776   6.490  14.404  0.7884 -0.7799  0.5555
 4585TIP3    H135246   4.777   6.402  14.442 -0.5912 -0.9739  0.1903
 4585TIP3    H235247   4.685   6.505  14.380  1.1576  0.4071 -0.2047
 4586TIP3   OH235248   6.002   5.001  11.340 -0.0496 -0.2315 -0.1685
 4586TIP3    H135249   6.023   5.067  11.274 -0.2041 -0.0644 -0.0508
 4586TIP3    H235250   5.909   4.981  11.325 -0.2378  0.2352  0.3750
 4587TIP3   OH235251   5.614   2.197  14.957 -0.3788  0.0700 -0.6070
 4587TIP3    H135252   5.707   2.203  14.936  0.4995 -2.2509  1.8350
 4587TIP3    H235253   5.612   2.197  15.053 -2.8307 -0.5830 -0.5937
 4588TIP3   OH235254   5.423   1.761   2.639 -0.2195  0.1977 -0.4510
 4588TIP3    H135255   5.427   1.848   2.599 -0.5721 -0.1081 -1.1547
 4588TIP3    H235256   5.356   1.714   2.590 -1.5852  0.2094  1.2877
 4589TIP3   OH235257   5.519   2.711   0.184  0.6067 -0.0508  0.4701
 4589TIP3    H135258   5.476   2.626   0.192 -0.9081  0.7031  0.7440
 4589TIP3    H235259   5.602   2.700   0.230  0.6682 -1.5219  0.0592
 4590TIP3   OH235260   3.501   0.238   1.636  0.3749  0.9099 -0.0633
 4590TIP3    H135261   3.440   0.267   1.568 -0.1455  0.1635  0.0646
 4590TIP3    H235262   3.541   0.159   1.600 -1.6918 -0.9208  1.3995
 4591TIP3   OH235263   0.695   1.116   2.874  0.1796  0.0116  0.1693
 4591TIP3    H135264   0.776   1.165   2.891  0.3332 -0.7404  1.8253
 4591TIP3    H235265   0.638   1.178   2.830  2.0691  0.2150 -2.1996
 4592TIP3   OH235266   3.281   2.783  17.004  0.2160  0.6424 -0.2454
 4592TIP3    H135267   3.215   2.831  16.954 -0.3737  1.2829  1.0912
 4592TIP3    H235268   3.236   2.757  17.084  0.9263 -0.9891 -0.3390
 4593TIP3   OH235269   5.036   4.717   1.378  0.0092 -0.3193 -0.2402
 4593TIP3    H135270   5.127   4.746   1.377  0.0025 -0.2429 -1.9054
 4593TIP3    H235271   5.038   4.629   1.341 -0.3558 -1.2732  1.8484
 4594TIP3   OH235272   5.076   0.766  13.198  0.1764  0.3039  0.9349
 4594TIP3    H135273   5.162   0.766  13.241  1.8607  1.3975 -2.1431
 4594TIP3    H235274   5.069   0.679  13.158 -0.7122 -0.1654  2.0273
 4595TIP3   OH235275   0.459   1.021  13.845  0.6147  0.2827 -0.2641
 4595TIP3    H135276   0.385   0.981  13.801  1.5582 -0.9966 -0.7520
 4595TIP3    H235277   0.534   1.004  13.787  1.4199  0.9110  0.5505
 4596TIP3   OH235278   5.578   5.586   2.316 -0.2199  0.0553  0.0675
 4596TIP3    H135279   5.565   5.492   2.329 -1.0860  0.2497  0.7463
 4596TIP3    H235280   5.672   5.598   2.326  0.1836 -0.9948 -1.9558
 4597TIP3   OH235281   1.115   3.878   5.435 -0.1673 -0.3741  0.3793
 4597TIP3    H135282   1.179   3.903   5.501  0.6472 -0.3496 -0.4044
 4597TIP3    H235283   1.086   3.791   5.461  0.1748 -0.3809  0.7443
 4598TIP3   OH235284   1.316   5.684   5.928  0.0528  1.0036  0.3761
 4598TIP3    H135285   1.299   5.600   5.971 -2.3420  0.1378 -1.9309
 4598TIP3    H235286   1.395   5.718   5.970  1.2930 -2.5292  1.2443
 4599TIP3   OH235287   0.232   4.911   4.896  0.4753  0.1370  0.2885
 4599TIP3    H135288   0.167   4.914   4.826  1.3643  0.1075 -0.5573
 4599TIP3    H235289   0.191   4.857   4.964  0.4435 -1.6650 -1.0940
 4600TIP3   OH235290   0.449   0.248  13.311 -0.2275  0.8288  0.6330
 4600TIP3    H135291   0.523   0.263  13.370  0.5983 -1.3131  0.2343
 4600TIP3    H235292   0.377   0.224  13.369  0.1091  0.3791  0.8654
 4601TIP3   OH235293   0.065   4.060  14.140  0.1945  0.0147  0.4246
 4601TIP3    H135294  -0.023   4.081  14.107  0.1138  0.1759  0.7469
 4601TIP3    H235295   0.089   4.135  14.194  1.3491  0.9031 -1.2381
 4602TIP3   OH235296   6.108   6.475  12.216  0.1196  0.3420  0.2399
 4602TIP3    H135297   6.078   6.437  12.298 -1.5774  1.3668  0.1335
 4602TIP3    H235298   6.094   6.407  12.151 -2.0025  0.7406  0.2106
 4603TIP3   OH235299   2.313   6.847   2.643 -0.1053  0.2604 -0.3287
 4603TIP3    H135300   2.328   6.767   2.592  1.3164  0.5420 -0.3761
 4603TIP3    H235301   2.316   6.819   2.734 -2.3433 -0.1887 -0.3219
 4604TIP3   OH235302   6.318   1.065   1.834 -0.5383 -0.0008  0.3760
 4604TIP3    H135303   6.382   1.014   1.783  2.1607  2.3705  1.1047
 4604TIP3    H235304   6.286   1.131   1.772  0.9765  1.4109  1.0167
 4605TIP3   OH235305   5.478   0.929   6.706  0.1941 -0.3772 -0.1347
 4605TIP3    H135306   5.556   0.982   6.718  0.4813 -0.7870 -0.1801
 4605TIP3    H235307   5.498   0.846   6.750 -0.5588 -0.1604  0.6437
 4606TIP3   OH235308   3.160   3.200   2.766 -0.3285 -0.1697  0.0736
 4606TIP3    H135309   3.155   3.293   2.742 -3.5691 -0.9763 -3.2973
 4606TIP3    H235310   3.219   3.162   2.701  1.6147 -0.4740  1.9168
 4607TIP3   OH235311   5.580   3.751   0.668  0.4832  0.2043 -0.3621
 4607TIP3    H135312   5.615   3.670   0.704  0.2953 -0.0604 -0.7733
 4607TIP3    H235313   5.613   3.819   0.727  1.4155 -0.0683 -0.5525
 4608TIP3   OH235314   2.012   3.238  13.211  0.1476  0.4141 -0.0472
 4608TIP3    H135315   1.989   3.279  13.128 -0.7521  0.1389  0.0440
 4608TIP3    H235316   1.931   3.244  13.263  0.6801  0.5296  0.7803
 4609TIP3   OH235317   2.651   1.790   3.650  0.2605 -0.0575 -0.4168
 4609TIP3    H135318   2.676   1.721   3.712 -0.7539 -0.4061 -0.3728
 4609TIP3    H235319   2.666   1.872   3.697  1.3260 -0.2324 -0.4111
 4610TIP3   OH235320   2.725   5.934   4.661 -0.0923 -0.2131  0.3671
 4610TIP3    H135321   2.776   5.854   4.652  1.1691  0.6976 -0.9112
 4610TIP3    H235322   2.635   5.907   4.641  0.1694 -1.4703  0.8050
 4611TIP3   OH235323   3.770   2.958   0.093  0.1297 -0.4790 -0.1401
 4611TIP3    H135324   3.686   2.970   0.048 -1.0637  0.4564  2.1445
 4611TIP3    H235325   3.832   3.011   0.043 -0.2840 -2.2050 -2.6334
 4612TIP3   OH235326   6.291   4.916   0.442 -0.4445  0.2675  0.2354
 4612TIP3    H135327   6.237   4.989   0.412  0.6561  1.7893  1.7688
 4612TIP3    H235328   6.228   4.848   0.465 -1.5052  0.7293 -1.1246
 4613TIP3   OH235329   6.301   5.562  13.176 -0.0489  0.1065  0.2000
 4613TIP3    H135330   6.265   5.538  13.091 -0.7901 -2.0761  1.0523
 4613TIP3    H235331   6.256   5.644  13.198 -0.6905  0.1065 -1.0069
 4614TIP3   OH235332   4.484   5.850   3.233  0.0277 -0.2318 -0.0657
 4614TIP3    H135333   4.575   5.844   3.202 -0.3024 -0.0268 -1.1062
 4614TIP3    H235334   4.488   5.822   3.324  0.9543 -1.3170 -0.4205
 4615TIP3   OH235335   2.568   1.998   3.374 -0.9528 -0.1198 -0.3345
 4615TIP3    H135336   2.526   2.006   3.459 -0.1743  0.7620 -0.0159
 4615TIP3    H235337   2.534   2.071   3.322 -1.3295 -0.5799 -0.7583
 4616TIP3   OH235338   3.548   6.652  16.436 -0.4556 -0.3412 -0.5763
 4616TIP3    H135339   3.580   6.739  16.415 -1.1097  0.7611  2.5084
 4616TIP3    H235340   3.466   6.644  16.386  0.4231  0.0744 -2.1560
 4617TIP3   OH235341   3.011   6.175   3.720 -0.0884 -0.5581 -0.1214
 4617TIP3    H135342   3.089   6.229   3.729  0.6136 -1.5553  0.0250
 4617TIP3    H235343   3.043   6.096   3.675 -0.9160 -1.1879  0.3797
 4618TIP3   OH235344   6.390   4.126   2.147 -0.2824  0.1549  0.1450
 4618TIP3    H135345   6.354   4.195   2.092 -2.0679  0.6069  1.7665
 4618TIP3    H235346   6.485   4.132   2.133 -0.4401  2.3737 -0.4386
 4619TIP3   OH235347   4.933   0.359   0.246  0.6104 -0.0113  0.1393
 4619TIP3    H135348   4.983   0.304   0.186  1.0338  0.1393  0.3522
 4619TIP3    H235349   4.991   0.373   0.320  0.1480 -0.0650  0.5170
 4620TIP3   OH235350   0.806   3.294   3.711  0.1181 -0.3386  0.2489
 4620TIP3    H135351   0.774   3.207   3.690  0.2689 -0.0564 -1.2440
 4620TIP3    H235352   0.872   3.313   3.645  0.0310  0.9366  0.4908
 4621TIP3   OH235353   2.351   2.322  11.339 -0.0903 -0.8338 -0.0199
 4621TIP3    H135354   2.413   2.381  11.297 -0.7533  0.6213  0.9602
 4621TIP3    H235355   2.277   2.317  11.279 -0.1711 -0.3980  0.0426
 4622TIP3   OH235356   5.398   3.304   1.257 -0.0821 -0.5132 -0.3471
 4622TIP3    H135357   5.485   3.266   1.268  0.3017  0.4739  0.0580
 4622TIP3    H235358   5.411   3.398   1.262 -1.1723 -0.3484 -0.2880
 4623TIP3   OH235359   4.475   0.057   3.811  0.1055  0.4612  0.1216
 4623TIP3    H135360   4.420   0.094   3.881  2.3603  1.5755  1.4332
 4623TIP3    H235361   4.546   0.120   3.801  1.8411 -1.5006 -0.5788
 4624TIP3   OH235362   2.565   3.343  16.048  0.1351 -0.1233 -0.0865
 4624TIP3    H135363   2.511   3.366  16.124 -1.7468  0.9484 -1.6522
 4624TIP3    H235364   2.614   3.265  16.076  0.0165  0.6171  2.4141
 4625TIP3   OH235365   6.350   0.654   3.124  0.3335  0.3563  0.2609
 4625TIP3    H135366   6.383   0.578   3.076 -0.9492 -1.7352  2.4602
 4625TIP3    H235367   6.427   0.689   3.169  1.1632  1.1679 -1.6621
 4626TIP3   OH235368   3.287   2.560  12.712  0.1012 -1.0197 -0.0936
 4626TIP3    H135369   3.222   2.525  12.772 -1.0985 -1.2510 -1.4722
 4626TIP3    H235370   3.370   2.528  12.746 -0.0053  1.9041  3.6354
 4627TIP3   OH235371   3.176   4.132   0.450 -0.1340 -0.6128  0.0345
 4627TIP3    H135372   3.128   4.054   0.477 -2.2279  0.1555 -1.1869
 4627TIP3    H235373   3.122   4.205   0.481 -0.6848  0.2823 -2.7265
 4628TIP3   OH235374   1.201   2.889   4.787  0.2720  0.3022 -0.1372
 4628TIP3    H135375   1.295   2.902   4.782  0.5392 -1.0092  1.1141
 4628TIP3    H235376   1.190   2.797   4.810 -1.3366  0.2468 -0.9689
 4629TIP3   OH235377   5.675   2.176   2.843  0.0202  0.1454  0.9482
 4629TIP3    H135378   5.680   2.203   2.751 -1.1879 -0.0088  0.8273
 4629TIP3    H235379   5.763   2.193   2.877  0.8085 -0.8159 -0.5093
 4630TIP3   OH235380   5.160   2.166   5.947  0.3812 -0.1457  0.5822
 4630TIP3    H135381   5.079   2.126   5.978  0.3140  1.1658  2.2437
 4630TIP3    H235382   5.132   2.244   5.899  0.5864 -1.0951 -1.1691
 4631TIP3   OH235383   4.825   2.479  12.705  0.3335 -0.0608  0.8807
 4631TIP3    H135384   4.745   2.455  12.753  2.2209 -2.5233  3.0703
 4631TIP3    H235385   4.890   2.495  12.773  2.3204 -0.4773 -0.8300
 4632TIP3   OH235386   4.839   3.426   5.934  0.1040  0.5741  0.0184
 4632TIP3    H135387   4.890   3.507   5.928 -0.0917  0.6343 -1.0812
 4632TIP3    H235388   4.797   3.418   5.848  0.9367 -1.2275 -0.2769
 4633TIP3   OH235389   6.766   6.823   3.241 -0.2697 -0.0776  0.1845
 4633TIP3    H135390   6.697   6.804   3.305  0.6475 -0.3786  1.1009
 4633TIP3    H235391   6.723   6.878   3.175 -1.1028  0.6849  1.3327
 4634TIP3   OH235392   2.994   0.971   5.323  0.1322  0.2922 -0.1098
 4634TIP3    H135393   3.080   0.942   5.354  0.8041  3.5172  1.3857
 4634TIP3    H235394   3.011   1.010   5.238 -0.5060 -1.9514 -1.3566
 4635TIP3   OH235395   1.582   2.609   4.113  0.5511  0.2976  0.1348
 4635TIP3    H135396   1.671   2.576   4.122  0.7431  1.0339  1.2213
 4635TIP3    H235397   1.530   2.533   4.086  1.5102 -0.1153 -0.5919
 4636TIP3   OH235398   0.318   2.629  15.031 -0.0573  0.0571  0.0153
 4636TIP3    H135399   0.317   2.534  15.031  0.7001  0.0442  0.7358
 4636TIP3    H235400   0.275   2.654  15.113  1.3397  0.2905  0.7124
 4637TIP3   OH235401   4.897   3.606   1.406  0.5642  0.6044 -0.4645
 4637TIP3    H135402   4.817   3.622   1.456 -0.2988 -0.6971 -1.3712
 4637TIP3    H235403   4.964   3.658   1.450  0.0171 -0.9739  2.4287
 4638TIP3   OH235404   6.200   1.787   4.398 -0.6091  0.0234  0.0347
 4638TIP3    H135405   6.121   1.810   4.447 -1.1495 -1.8162  0.1124
 4638TIP3    H235406   6.168   1.750   4.316  0.2406  0.9663 -0.7501
 4639TIP3   OH235407   5.846   2.299  16.761  0.6846 -0.1072 -0.2695
 4639TIP3    H135408   5.920   2.285  16.702 -0.1913 -0.8006 -1.2514
 4639TIP3    H235409   5.769   2.284  16.707 -0.2051  1.0475  0.6099
 4640TIP3   OH235410   5.709   5.787   2.682  0.8245 -0.4114 -0.5977
 4640TIP3    H135411   5.662   5.856   2.634  0.6989  0.1013  0.2393
 4640TIP3    H235412   5.665   5.706   2.657  0.1686 -0.0499 -0.6380
 4641TIP3   OH235413   4.707   3.955  12.505 -0.2343  0.3875  0.4233
 4641TIP3    H135414   4.800   3.969  12.522  0.1039 -0.4385 -0.6201
 4641TIP3    H235415   4.691   4.003  12.424 -0.5672 -0.0131  0.2536
 4642TIP3   OH235416   5.618   5.559   6.274  0.3326  0.3935 -0.1426
 4642TIP3    H135417   5.578   5.534   6.357 -0.3699  1.2106 -0.2252
 4642TIP3    H235418   5.616   5.655   6.274  1.3879  0.4303 -0.5932
 4643TIP3   OH235419   3.197   6.407   4.777 -0.4363 -0.3857  0.6761
 4643TIP3    H135420   3.274   6.452   4.812  0.1375 -1.4045  0.7707
 4643TIP3    H235421   3.170   6.459   4.702  0.3928 -0.0459  0.6029
 4644TIP3   OH235422   1.143   2.377   2.573  0.2053  0.2976  0.2819
 4644TIP3    H135423   1.130   2.354   2.665  0.8788 -1.3134  0.0062
 4644TIP3    H235424   1.107   2.302   2.525  0.7807  0.6616 -0.7342
 4645TIP3   OH235425   0.070   1.845  11.028 -0.5529 -0.9347  0.3942
 4645TIP3    H135426   0.102   1.815  10.943 -1.8729  0.2117 -0.5487
 4645TIP3    H235427   0.074   1.767  11.084  0.1265 -1.7644 -0.7556
 4646TIP3   OH235428   1.930   3.484   2.772  0.2738 -0.7617  0.0725
 4646TIP3    H135429   1.836   3.498   2.787  0.6288 -0.5860  2.7508
 4646TIP3    H235430   1.970   3.567   2.798  1.2518 -1.2602  0.1933
 4647TIP3   OH235431   2.053   4.387  12.743  0.1237  0.2338 -0.1142
 4647TIP3    H135432   2.089   4.474  12.725 -0.5724  0.6299  0.3686
 4647TIP3    H235433   1.964   4.390  12.709  0.7216 -0.9868 -1.9735
 4648TIP3   OH235434   2.493   1.897   2.075  0.4724  0.1029  0.7684
 4648TIP3    H135435   2.445   1.932   2.150 -1.8289 -0.4178 -0.3849
 4648TIP3    H235436   2.497   1.803   2.091 -2.3397 -0.4221 -0.8444
 4649TIP3   OH235437   5.923   3.103   2.090 -0.1564 -0.2389  0.4390
 4649TIP3    H135438   5.892   3.018   2.122  0.3446 -0.3503  0.6432
 4649TIP3    H235439   5.998   3.082   2.036 -0.8779 -0.0280 -0.6673
 4650TIP3   OH235440   2.051   0.939   0.227  0.2702 -0.7219  0.1185
 4650TIP3    H135441   1.978   0.948   0.166  1.2451 -0.1903 -1.0034
 4650TIP3    H235442   2.065   0.844   0.235  0.6300 -0.7839 -1.1114
 4651TIP3   OH235443   6.398   3.035   3.174 -0.1539  0.3294  0.2542
 4651TIP3    H135444   6.479   3.027   3.123 -0.7970 -1.0440 -0.6007
 4651TIP3    H235445   6.372   3.126   3.162  0.9101  0.6163 -0.0134
 4652TIP3   OH235446   6.733   2.322  12.041  0.0496 -0.2327 -0.5705
 4652TIP3    H135447   6.720   2.409  12.003  0.8314  0.3866  0.5306
 4652TIP3    H235448   6.652   2.275  12.020 -0.1694  0.5699 -1.6453
 4653TIP3   OH235449   1.378   4.925  14.267 -0.0403 -0.0679 -0.4342
 4653TIP3    H135450   1.315   4.879  14.212  0.6982  1.1181 -2.3913
 4653TIP3    H235451   1.330   5.001  14.299 -0.1960 -0.2510 -0.2330
 4654TIP3   OH235452   1.596   5.286  12.017 -0.0786  0.4885 -0.7373
 4654TIP3    H135453   1.676   5.239  12.038  0.4594  1.8035  0.2485
 4654TIP3    H235454   1.530   5.218  12.008  0.8290 -0.4988 -0.0755
 4655TIP3   OH235455   2.834   3.014   4.399 -0.7568  0.1598 -0.4117
 4655TIP3    H135456   2.901   2.997   4.466 -0.1603  2.5921 -0.3108
 4655TIP3    H235457   2.798   2.927   4.379 -0.9058 -0.6958  2.9843
 4656TIP3   OH235458   5.904   2.802  14.861 -0.1689 -0.5759  0.0343
 4656TIP3    H135459   5.969   2.809  14.792  0.4763  0.7479  0.7298
 4656TIP3    H235460   5.822   2.784  14.816  0.0606  1.1746 -1.1788
 4657TIP3   OH235461   3.718   1.688  14.493 -0.0911 -0.0446 -0.1018
 4657TIP3    H135462   3.731   1.606  14.540  0.6641 -0.9946 -1.8780
 4657TIP3    H235463   3.799   1.700  14.442 -0.7002  1.1269 -0.8601
 4658TIP3   OH235464   5.996   6.275  15.048  0.4871  0.8755 -0.3803
 4658TIP3    H135465   6.016   6.205  15.110 -0.2817 -0.1566 -1.2472
 4658TIP3    H235466   5.926   6.325  15.090  1.1324  1.2296  0.3022
 4659TIP3   OH235467   6.830   6.794  10.820 -0.4816  0.0499  0.0011
 4659TIP3    H135468   6.782   6.764  10.897  0.3967  0.2441  0.6410
 4659TIP3    H235469   6.840   6.889  10.834  1.5330 -0.2180  0.7395
 4660TIP3   OH235470   5.233   3.892  11.868  0.0311  0.0318  0.0105
 4660TIP3    H135471   5.167   3.852  11.924  0.5916  1.5187  1.8411
 4660TIP3    H235472   5.261   3.970  11.916  2.0548  0.2482 -1.3934
 4661TIP3   OH235473   3.988   0.045   1.243 -0.3203 -0.3110  0.6321
 4661TIP3    H135474   3.995   0.089   1.158  0.6383 -0.4866  0.6159
 4661TIP3    H235475   3.909   0.081   1.282 -0.5267  0.1026 -0.1446
 4662TIP3   OH235476   2.903   1.566  12.900 -0.0021  0.3905 -0.4284
 4662TIP3    H135477   2.915   1.571  12.995 -2.7815 -0.1912  0.0571
 4662TIP3    H235478   2.830   1.626  12.882 -0.8796 -1.0364 -1.8624
 4663TIP3   OH235479   5.336   0.546   2.143  0.5016  0.2646  0.0349
 4663TIP3    H135480   5.330   0.639   2.124 -0.8848  0.1764 -0.0159
 4663TIP3    H235481   5.248   0.520   2.169  1.4774 -0.3463  3.3048
 4664TIP3   OH235482   2.485   4.894   2.488  0.4523  1.0135  0.2078
 4664TIP3    H135483   2.452   4.851   2.409  1.4792  1.1212 -0.2960
 4664TIP3    H235484   2.416   4.880   2.553  0.2718 -0.4345 -0.2554
 4665TIP3   OH235485   5.372   6.035   2.675  0.1876  0.2433 -0.0699
 4665TIP3    H135486   5.332   5.949   2.668 -3.4489  1.4974  2.3680
 4665TIP3    H235487   5.376   6.053   2.769  1.7379  2.3841 -0.4550
 4666TIP3   OH235488   5.073   2.539   4.162  0.1426 -0.5344  0.2235
 4666TIP3    H135489   5.066   2.452   4.201  0.6003 -0.5313  0.3135
 4666TIP3    H235490   5.104   2.595   4.233  0.5857 -0.4482 -0.0308
 4667TIP3   OH235491   5.719   6.795  13.420 -0.1044 -0.3606 -0.0403
 4667TIP3    H135492   5.670   6.751  13.351 -0.1492 -0.0983 -0.1793
 4667TIP3    H235493   5.808   6.759  13.413 -0.5769 -1.8178  1.0759
 4668TIP3   OH235494   3.526   3.942   1.653 -0.8232  0.2258 -0.1005
 4668TIP3    H135495   3.435   3.965   1.674 -1.2227 -1.0601 -0.3471
 4668TIP3    H235496   3.520   3.856   1.613  0.4850  0.2828 -0.4469
 4669TIP3   OH235497   0.993   5.671   0.564 -0.8752  0.2455  0.2204
 4669TIP3    H135498   0.923   5.668   0.629 -1.2422 -0.6923 -0.2004
 4669TIP3    H235499   0.976   5.597   0.506  1.5086 -1.2255  1.2017
 4670TIP3   OH235500   3.841   0.165  15.101  0.4654  0.5526  0.3190
 4670TIP3    H135501   3.933   0.139  15.100  0.6798  1.3075  0.4201
 4670TIP3    H235502   3.814   0.153  15.192  0.6912  1.1347  0.4613
 4671TIP3   OH235503   1.209   6.315   2.776  0.3374 -0.3107 -0.1337
 4671TIP3    H135504   1.167   6.365   2.706 -3.8239 -3.0998  0.0517
 4671TIP3    H235505   1.188   6.224   2.757  4.0172 -1.7485  1.7554
 4672TIP3   OH235506   6.808   2.662   3.782  0.0729 -0.0521  0.0051
 4672TIP3    H135507   6.760   2.643   3.863  0.1596  0.6860  0.2360
 4672TIP3    H235508   6.740   2.669   3.715 -0.0640  0.1015  0.1593
 4673TIP3   OH235509   3.300   1.129  10.816  0.1057  0.5417 -0.0984
 4673TIP3    H135510   3.315   1.035  10.807 -0.7095  0.2897  1.0282
 4673TIP3    H235511   3.235   1.149  10.749  1.0102  0.5113 -1.0091
 4674TIP3   OH235512   1.974   1.803  13.540 -0.3654 -0.3367  0.4172
 4674TIP3    H135513   2.043   1.820  13.604 -0.2738 -1.8685  0.7565
 4674TIP3    H235514   2.009   1.733  13.485 -1.5797 -1.0479  0.5124
 4675TIP3   OH235515   3.749   3.974   1.976 -0.4288  0.3186  0.5896
 4675TIP3    H135516   3.725   3.926   2.055  0.6281  1.7221  1.8318
 4675TIP3    H235517   3.666   3.993   1.932 -0.9333 -1.7286  0.5496
 4676TIP3   OH235518   3.164   1.372  15.067  0.0570 -0.0199  0.0578
 4676TIP3    H135519   3.102   1.310  15.028 -0.0640 -0.7195  1.3057
 4676TIP3    H235520   3.135   1.381  15.158  0.2142  1.7071 -0.0347
 4677TIP3   OH235521   6.456   6.829  13.940  0.1907  0.8078  0.3571
 4677TIP3    H135522   6.466   6.799  13.850 -2.1631  1.2210 -0.1070
 4677TIP3    H235523   6.546   6.834  13.974  0.9920 -1.5541 -1.1976
 4678TIP3   OH235524   0.299   0.496  10.653  0.2698 -1.0835  0.5866
 4678TIP3    H135525   0.313   0.510  10.747  0.9399  0.1945  0.3131
 4678TIP3    H235526   0.369   0.435  10.628  0.1406 -1.3642  0.9019
 4679TIP3   OH235527   6.430   5.704  12.298 -0.4404  0.1373 -0.1167
 4679TIP3    H135528   6.496   5.757  12.251 -0.3719 -1.5439 -2.0422
 4679TIP3    H235529   6.452   5.614  12.276 -2.1572 -0.5785  0.9299
 4680TIP3   OH235530   1.055   3.089  10.307 -0.2830 -0.2642  0.1425
 4680TIP3    H135531   1.029   3.013  10.360 -1.2040  1.0202  1.6070
 4680TIP3    H235532   1.082   3.155  10.371  2.2460  0.0948 -1.1523
 4681TIP3   OH235533   3.964   4.041   0.587  0.2854 -0.1049 -0.3463
 4681TIP3    H135534   4.047   4.019   0.544  0.4899  2.0494 -1.1715
 4681TIP3    H235535   3.909   4.077   0.517 -0.8807 -0.2762  0.4468
 4682TIP3   OH235536   1.208   3.922  13.545  0.0410 -0.2262  0.0032
 4682TIP3    H135537   1.142   3.911  13.613 -0.7557  0.2415 -0.6831
 4682TIP3    H235538   1.180   3.863  13.475  0.6950 -0.4793 -0.0564
 4683TIP3   OH235539   5.024   5.764   1.097  0.3260  0.8503  0.0533
 4683TIP3    H135540   5.032   5.777   1.191 -0.7054 -0.5118  0.3599
 4683TIP3    H235541   4.995   5.673   1.087  1.7225  0.5333 -1.6435
 4684TIP3   OH235542   0.560   5.560  16.784  0.0751 -0.9372 -0.0462
 4684TIP3    H135543   0.516   5.480  16.753  1.5152 -1.1878 -1.6046
 4684TIP3    H235544   0.649   5.532  16.804  1.2854  0.5629 -2.6858
 4685TIP3   OH235545   3.543   1.812   2.466 -0.1493 -0.0523 -0.1910
 4685TIP3    H135546   3.606   1.786   2.535  0.1820 -1.2178 -0.9074
 4685TIP3    H235547   3.572   1.900   2.440 -0.6160  0.6532  1.5249
 4686TIP3   OH235548   0.451   1.255  11.940 -0.4446  0.0707 -0.1586
 4686TIP3    H135549   0.489   1.176  11.901  3.1405  1.4398  0.1755
 4686TIP3    H235550   0.416   1.225  12.024 -0.5097 -1.4133 -0.6768
 4687TIP3   OH235551   2.624   2.507   0.984 -0.1653 -0.0969  0.2913
 4687TIP3    H135552   2.581   2.491   0.900 -1.0977 -2.1064  1.0730
 4687TIP3    H235553   2.664   2.423   1.006  1.4900  0.8617  1.1055
 4688TIP3   OH235554   4.395   5.606  15.757  0.4053 -0.6477  0.0715
 4688TIP3    H135555   4.332   5.551  15.710 -1.5424 -0.1304  1.9203
 4688TIP3    H235556   4.433   5.548  15.823  0.3089 -0.4398  0.3110
 4689TIP3   OH235557   6.469   6.615   6.342 -0.2535 -0.4347 -0.0811
 4689TIP3    H135558   6.543   6.554   6.344 -0.8666 -1.2148 -0.7577
 4689TIP3    H235559   6.396   6.566   6.380 -0.7907 -0.1871 -0.7646
 4690TIP3   OH235560   2.979   1.683   0.581  0.4812 -0.1705  0.0708
 4690TIP3    H135561   3.022   1.768   0.595 -0.9992  0.2130  2.8112
 4690TIP3    H235562   2.885   1.702   0.586  0.0565 -1.7288 -1.0826
 4691TIP3   OH235563   0.491   2.483   2.544 -0.3009 -0.1459 -0.4386
 4691TIP3    H135564   0.461   2.571   2.568  0.5782  0.1562 -0.4102
 4691TIP3    H235565   0.452   2.468   2.458 -3.1832 -1.1020  0.9208
 4692TIP3   OH235566   0.647   6.182  16.293  0.5327 -0.0796 -0.5692
 4692TIP3    H135567   0.602   6.190  16.209 -0.5273  0.1560  0.0050
 4692TIP3    H235568   0.740   6.178  16.270  0.2440 -0.3347 -1.7689
 4693TIP3   OH235569   5.762   5.547  14.474  0.2181 -0.4107  0.0460
 4693TIP3    H135570   5.825   5.612  14.443 -0.4584  1.0490  1.5955
 4693TIP3    H235571   5.704   5.531  14.399  0.4263  0.7228 -0.3664
 4694TIP3   OH235572   3.517   2.923   2.481  0.0085 -0.0126  0.7187
 4694TIP3    H135573   3.583   2.965   2.537  0.7652  0.2499 -0.3282
 4694TIP3    H235574   3.569   2.876   2.416 -0.8521 -0.3908  0.3003
 4695TIP3   OH235575   5.265   1.914   5.350  0.1731  0.0556 -0.6267
 4695TIP3    H135576   5.204   1.882   5.284 -0.7078 -1.4600  0.8503
 4695TIP3    H235577   5.217   1.908   5.433  1.8108  0.2597  0.3895
 4696TIP3   OH235578   5.313   0.101   3.995 -0.0162 -0.1583  0.3155
 4696TIP3    H135579   5.405   0.076   3.987  0.2757  1.3542 -1.9085
 4696TIP3    H235580   5.315   0.185   4.040 -0.1031  0.8039 -1.4035
 4697TIP3   OH235581   1.482   6.654   0.075  0.6698 -0.4880  0.3767
 4697TIP3    H135582   1.531   6.720   0.027 -1.0147  0.5324 -0.0215
 4697TIP3    H235583   1.391   6.665   0.046  0.3122 -2.9697  0.2989
 4698TIP3   OH235584   4.833   3.331  16.779  0.5101 -0.8377 -0.1170
 4698TIP3    H135585   4.915   3.380  16.787  0.2514 -0.1610 -1.3571
 4698TIP3    H235586   4.794   3.363  16.697 -1.3854 -0.5391  0.8478
 4699TIP3   OH235587   5.866   3.599  14.146 -0.9243  0.0415  0.1404
 4699TIP3    H135588   5.926   3.668  14.176 -1.3360  0.6005 -0.2893
 4699TIP3    H235589   5.924   3.526  14.123 -0.4662  0.2981  0.4483
 4700TIP3   OH235590   5.826   0.486  12.885  0.1570 -0.4144 -0.2117
 4700TIP3    H135591   5.918   0.493  12.858 -0.3744  0.0354 -2.0622
 4700TIP3    H235592   5.793   0.575  12.883 -0.7170 -0.7302 -1.1818
 4701TIP3   OH235593   0.296   2.130   4.524  0.6341  0.3120  0.1909
 4701TIP3    H135594   0.262   2.137   4.613  0.8812  0.9125  0.2396
 4701TIP3    H235595   0.277   2.040   4.498 -2.0798  0.9070 -0.2184
 4702TIP3   OH235596   5.046   1.526   0.372 -0.6694  0.1067  0.3241
 4702TIP3    H135597   5.139   1.534   0.352 -0.3427  0.4171  1.8507
 4702TIP3    H235598   5.017   1.450   0.321  0.3923  0.0297 -0.1971
 4703TIP3   OH235599   3.492   1.794   2.830  0.4089  0.3683  0.1417
 4703TIP3    H135600   3.523   1.883   2.846  0.3231  0.0652  2.4005
 4703TIP3    H235601   3.562   1.752   2.780  1.4227  1.1277  0.8711
 4704TIP3   OH235602   3.656   0.366   5.655 -0.4731  0.5866 -0.1099
 4704TIP3    H135603   3.629   0.285   5.700 -1.3627  1.4971  1.0729
 4704TIP3    H235604   3.574   0.410   5.633 -0.0140  1.9024  0.6851
 4705TIP3   OH235605   1.879   6.430   4.867  0.7679  0.5860  0.1487
 4705TIP3    H135606   1.798   6.390   4.899  1.9694 -0.7232  1.7421
 4705TIP3    H235607   1.858   6.457   4.778 -0.9885 -1.0827 -0.0244
 4706TIP3   OH235608   6.593   6.773  16.412  0.2975 -0.0145  0.1463
 4706TIP3    H135609   6.597   6.782  16.317 -0.6161  1.4346  0.2087
 4706TIP3    H235610   6.673   6.814  16.443  0.4407 -0.1980  0.0211
 4707TIP3   OH235611   2.305   2.070  12.306  0.2119 -0.0165 -0.4051
 4707TIP3    H135612   2.348   2.047  12.224  2.0377  1.8139 -0.0689
 4707TIP3    H235613   2.226   2.118  12.280  0.8878  0.7365 -1.1239
 4708TIP3   OH235614   0.663   1.309  15.145  0.0463 -0.1540 -0.1187
 4708TIP3    H135615   0.653   1.398  15.179  1.0465 -0.5707  1.4120
 4708TIP3    H235616   0.574   1.273  15.143 -0.2695  0.6069  0.0677
 4709TIP3   OH235617   5.412   3.184   1.810 -0.8649 -0.0027  0.0192
 4709TIP3    H135618   5.498   3.224   1.800 -1.5997  1.7087  0.2883
 4709TIP3    H235619   5.423   3.123   1.883  0.2092 -0.1000 -0.2044
 4710TIP3   OH235620   5.276   5.683  13.660  0.4655 -0.1867  0.2210
 4710TIP3    H135621   5.291   5.703  13.752 -2.7264 -0.0241  0.8295
 4710TIP3    H235622   5.256   5.768  13.619  1.3420 -0.3243 -0.5269
 4711TIP3   OH235623   5.869   2.600  12.536  0.2260  0.7684 -0.1866
 4711TIP3    H135624   5.918   2.549  12.601 -0.0579 -0.2676 -0.7624
 4711TIP3    H235625   5.777   2.577  12.553  0.0209  1.7410  0.0815
 4712TIP3   OH235626   5.404   4.761  13.457  0.2014 -0.5446  0.4228
 4712TIP3    H135627   5.462   4.811  13.401  0.5566 -1.2654  0.1297
 4712TIP3    H235628   5.325   4.814  13.465  0.6209  0.1106  0.2295
 4713TIP3   OH235629   5.733   4.739   5.872 -0.2368  0.0748 -0.1389
 4713TIP3    H135630   5.743   4.694   5.788  1.7644  0.8596 -0.3736
 4713TIP3    H235631   5.792   4.693   5.931 -0.2094  0.6923  0.3276
 4714TIP3   OH235632   1.796   0.243   0.310  0.3293  0.5626 -0.3978
 4714TIP3    H135633   1.848   0.222   0.388 -0.5340  2.5992  0.8156
 4714TIP3    H235634   1.723   0.181   0.313  0.7224  0.1119 -0.0330
 4715TIP3   OH235635   4.321   6.047  10.972 -0.5431  0.4062  0.4092
 4715TIP3    H135636   4.295   6.071  10.883  0.4969  0.1533  0.0183
 4715TIP3    H235637   4.275   5.964  10.989  0.1205 -0.1357 -0.3372
 4716TIP3   OH235638   2.927   1.966  14.311 -0.1833 -0.2766  0.0435
 4716TIP3    H135639   3.022   1.965  14.314 -0.1456  0.4296 -0.7230
 4716TIP3    H235640   2.904   2.053  14.278 -1.1614  0.3182  2.1120
 4717TIP3   OH235641   2.954   4.878  14.990  0.0010  0.7477 -0.1802
 4717TIP3    H135642   2.966   4.825  15.069 -1.9221  1.1885  0.4800
 4717TIP3    H235643   3.036   4.870  14.943 -0.8324 -4.7229 -1.3729
 4718TIP3   OH235644   2.400   2.856  12.528 -0.0963 -0.2409 -0.4442
 4718TIP3    H135645   2.342   2.850  12.452 -0.4130 -0.0653 -0.2190
 4718TIP3    H235646   2.374   2.781  12.583  0.6676 -0.8368 -0.8730
 4719TIP3   OH235647   0.816   1.277  16.615  0.2974 -0.6125 -0.5381
 4719TIP3    H135648   0.833   1.185  16.598  1.6488 -0.6859  0.9795
 4719TIP3    H235649   0.728   1.279  16.653  0.5045 -1.3629  0.0008
 4720TIP3   OH235650   4.537   1.242  12.179 -0.7395  0.6512  0.6858
 4720TIP3    H135651   4.562   1.288  12.099  0.2653  0.4921  0.8941
 4720TIP3    H235652   4.618   1.232  12.228 -1.2448  0.2516  1.4774
 4721TIP3   OH235653   5.347   4.109   4.507 -0.0195  0.2220 -0.4941
 4721TIP3    H135654   5.258   4.145   4.498  0.2031  0.8937 -0.1427
 4721TIP3    H235655   5.394   4.142   4.430  0.3031  1.0852  0.0487
 4722TIP3   OH235656   5.276   1.108  16.146  0.3038  0.0634  0.0980
 4722TIP3    H135657   5.333   1.054  16.201  0.6441  0.8473  0.5395
 4722TIP3    H235658   5.307   1.198  16.161  1.0137  0.2297 -2.0844
 4723TIP3   OH235659   0.310   3.791  13.873 -0.1367  0.1612 -0.3319
 4723TIP3    H135660   0.270   3.810  13.958 -2.0913  1.1748 -1.4125
 4723TIP3    H235661   0.387   3.849  13.870 -0.7615  1.0484  0.2416
 4724TIP3   OH235662   0.726   5.899  16.136 -0.0857  0.1797 -0.0440
 4724TIP3    H135663   0.645   5.948  16.154 -0.3249 -0.4497  0.6534
 4724TIP3    H235664   0.700   5.832  16.073 -0.8362 -1.8686  2.2805
 4725TIP3   OH235665   5.930   3.081  13.318 -0.0483 -0.6036  0.6772
 4725TIP3    H135666   5.857   3.132  13.352  0.7010  0.4368  0.7807
 4725TIP3    H235667   5.946   3.015  13.385 -0.3046 -0.2518  1.0922
 4726TIP3   OH235668   4.393   3.212  10.665 -0.3573  0.4583  0.7601
 4726TIP3    H135669   4.395   3.117  10.653 -2.4243  0.4600  0.0715
 4726TIP3    H235670   4.397   3.247  10.576  0.2196  1.0331  1.0032
 4727TIP3   OH235671   1.053   2.573  11.160  0.0733 -0.1483  0.6716
 4727TIP3    H135672   1.011   2.638  11.216  2.1812  2.0805 -0.1746
 4727TIP3    H235673   1.113   2.526  11.219 -0.6854 -0.6407  1.0687
 4728TIP3   OH235674   4.711   3.686   0.369 -0.2747 -0.1183  0.4080
 4728TIP3    H135675   4.742   3.756   0.312 -0.1858 -0.5795 -0.1172
 4728TIP3    H235676   4.637   3.723   0.416  0.3640  0.6370  0.8433
 4729TIP3   OH235677   1.643   4.335  12.444  0.0509 -0.1846 -0.4953
 4729TIP3    H135678   1.644   4.365  12.535  0.6906  2.2417 -1.2227
 4729TIP3    H235679   1.580   4.263  12.443 -1.6447  1.1530  1.4567
 4730TIP3   OH235680   1.401   1.077  15.482 -0.3979  0.9819 -0.5231
 4730TIP3    H135681   1.432   1.111  15.566 -0.4046  0.3631 -0.2635
 4730TIP3    H235682   1.442   1.133  15.417  2.6875 -0.7864 -0.2822
 4731TIP3   OH235683   2.694   6.757  11.942  0.6192 -0.0897 -0.0536
 4731TIP3    H135684   2.733   6.776  11.857  0.1910 -0.1029 -0.2569
 4731TIP3    H235685   2.738   6.816  12.003 -0.2805  1.1653 -0.5823
 4732TIP3   OH235686   3.006   2.789  15.557  0.1762  0.4911 -0.3089
 4732TIP3    H135687   3.042   2.717  15.608 -1.3444 -0.3563 -0.3705
 4732TIP3    H235688   3.032   2.868  15.604 -3.1640 -0.2726  3.2757
 4733TIP3   OH235689   2.988   6.482  12.866  0.4673  0.1718  0.2045
 4733TIP3    H135690   2.927   6.439  12.805 -0.3988  1.9021 -0.2246
 4733TIP3    H235691   3.075   6.459  12.833  0.0189  0.2676 -1.1237
 4734TIP3   OH235692   6.028   4.845  15.402  0.5661  0.4539 -0.2394
 4734TIP3    H135693   5.937   4.838  15.431  0.3527 -0.0121 -0.9955
 4734TIP3    H235694   6.058   4.928  15.438 -0.6879  1.4631 -1.4173
 4735TIP3   OH235695   2.971   1.405   0.105 -0.2250  0.2882 -0.0586
 4735TIP3    H135696   3.013   1.416   0.019 -1.0680 -1.1871 -0.7038
 4735TIP3    H235697   3.032   1.350   0.154 -1.0650 -1.3430 -0.7809
 4736TIP3   OH235698   5.027   3.664   4.856  0.0896  0.0086  0.0234
 4736TIP3    H135699   5.038   3.757   4.875  0.2238 -0.1763  0.9186
 4736TIP3    H235700   4.934   3.647   4.871 -0.0130  0.0869 -0.5383
 4737TIP3   OH235701   4.509   2.947  11.161  0.3085 -0.0010  0.3415
 4737TIP3    H135702   4.438   2.997  11.121 -0.2530 -1.8713 -1.1747
 4737TIP3    H235703   4.497   2.959  11.255 -0.5557  1.6045  0.0657
 4738TIP3   OH235704   6.377   5.135   0.639  0.4660  0.4315  0.4047
 4738TIP3    H135705   6.325   5.206   0.679 -0.2138 -1.4272  3.1105
 4738TIP3    H235706   6.314   5.083   0.590  0.2440 -0.2433  1.3696
 4739TIP3   OH235707   2.092   3.724  16.388  0.3231  0.2317 -0.8853
 4739TIP3    H135708   2.070   3.814  16.413  0.4054  0.0755 -0.2350
 4739TIP3    H235709   2.186   3.717  16.402 -0.2022 -1.2360  3.4499
 4740TIP3   OH235710   1.434   5.237   4.222 -0.5696  0.8020 -0.3640
 4740TIP3    H135711   1.383   5.287   4.158 -2.2165 -1.5012 -0.9462
 4740TIP3    H235712   1.490   5.180   4.169 -1.2400 -0.4291  0.2163
 4741TIP3   OH235713   1.474   2.032  13.188 -0.8359  0.4223 -0.2462
 4741TIP3    H135714   1.425   1.999  13.113  0.6639 -2.0481 -0.2675
 4741TIP3    H235715   1.539   2.092  13.150 -1.7094  1.1862 -0.5722
 4742TIP3   OH235716   5.402   0.807  12.674 -0.4668 -0.2901 -0.4781
 4742TIP3    H135717   5.337   0.750  12.713 -0.6294  0.1370 -0.1147
 4742TIP3    H235718   5.373   0.896  12.695 -0.5203 -0.0455 -1.5054
 4743TIP3   OH235719   4.060   5.885  11.079  0.2408  0.0714 -0.0152
 4743TIP3    H135720   4.036   5.930  10.998 -0.5685 -0.4179 -0.0663
 4743TIP3    H235721   4.129   5.824  11.054  0.8226  0.7583 -0.0918
 4744TIP3   OH235722   1.836   1.234   4.585 -0.0545  0.2697  0.6960
 4744TIP3    H135723   1.891   1.184   4.645 -0.1837 -0.1695  0.4464
 4744TIP3    H235724   1.894   1.259   4.513 -0.2971 -0.6184  0.1862
 4745TIP3   OH235725   2.719   4.443   6.310 -0.0067  0.1285  0.2194
 4745TIP3    H135726   2.783   4.461   6.241  0.2890 -3.1864 -0.5347
 4745TIP3    H235727   2.768   4.391   6.374 -1.3439 -0.3871  0.8461
 4746TIP3   OH235728   2.215   2.873   3.311 -0.3466 -0.1795 -0.2011
 4746TIP3    H135729   2.286   2.914   3.361 -2.2366  1.4924  1.2648
 4746TIP3    H235730   2.216   2.918   3.227  0.3763 -0.2397 -0.2307
 4747TIP3   OH235731   2.728   3.784   0.972 -0.1648 -0.0778 -0.1090
 4747TIP3    H135732   2.823   3.792   0.980 -0.2455  0.4794  0.3823
 4747TIP3    H235733   2.708   3.700   1.012 -0.0080  0.4191  1.0775
 4748TIP3   OH235734   6.617   5.770  12.612  0.1584 -0.1319  0.3147
 4748TIP3    H135735   6.567   5.689  12.620 -2.9816  1.7676  1.9800
 4748TIP3    H235736   6.568   5.822  12.549  1.5109  0.8939  0.0625
 4749TIP3   OH235737   6.226   4.025   2.797  0.7040 -0.5389  0.2076
 4749TIP3    H135738   6.170   4.078   2.740  0.1661 -0.5630  0.7047
 4749TIP3    H235739   6.253   3.951   2.742 -3.3886 -3.0193  1.0924
 4750TIP3   OH235740   0.256   1.529   3.716 -0.3687  0.3051 -0.1620
 4750TIP3    H135741   0.265   1.447   3.763  0.6290  0.1515 -0.6034
 4750TIP3    H235742   0.273   1.597   3.782  0.0286  0.1238 -0.0787
 4751TIP3   OH235743   3.551   0.830   5.917  0.2580  0.0155  0.1936
 4751TIP3    H135744   3.620   0.850   5.854 -0.5486  1.3385 -0.2969
 4751TIP3    H235745   3.571   0.883   5.994  0.0129  0.0851  0.2104
 4752TIP3   OH235746   4.128   3.889   2.948 -0.9773  0.3582  0.1876
 4752TIP3    H135747   4.096   3.841   2.872  1.0341 -1.0922  0.1695
 4752TIP3    H235748   4.099   3.837   3.023 -1.2588  0.6994  0.3172
 4753TIP3   OH235749   1.709   4.956   4.960 -0.0348  0.2724 -0.4847
 4753TIP3    H135750   1.665   5.037   4.934 -0.6574 -0.2597 -1.1638
 4753TIP3    H235751   1.777   4.983   5.020 -0.2817  1.2945 -0.6508
 4754TIP3   OH235752   6.026   0.679  15.669  0.1696 -0.9708  0.3731
 4754TIP3    H135753   6.095   0.744  15.684  1.4106 -1.8249 -1.2557
 4754TIP3    H235754   5.948   0.731  15.649  0.7788  0.0278  0.5228
 4755TIP3   OH235755   6.726   1.540   4.345 -0.1826 -0.0874 -0.8768
 4755TIP3    H135756   6.656   1.535   4.411  0.0724 -0.1679 -0.6113
 4755TIP3    H235757   6.731   1.451   4.309  1.0635 -0.5876  0.4406
 4756TIP3   OH235758   6.806   2.462  10.850 -0.6487  0.3540  0.1655
 4756TIP3    H135759   6.767   2.499  10.771 -0.4262  0.5196  0.1350
 4756TIP3    H235760   6.875   2.524  10.874 -0.3101 -0.0154  0.1427
 4757TIP3   OH235761   2.977   2.195   1.939  0.1453  0.4379  0.4594
 4757TIP3    H135762   2.932   2.208   2.022 -1.3528 -0.1705 -0.2168
 4757TIP3    H235763   2.948   2.267   1.883 -0.2922 -0.1610 -0.1017
 4758TIP3   OH235764   1.567   2.704  12.445 -0.3659 -0.0491  0.6597
 4758TIP3    H135765   1.626   2.777  12.424  1.2292 -1.6225 -0.6550
 4758TIP3    H235766   1.623   2.637  12.482 -1.5936 -1.0536  0.7810
 4759TIP3   OH235767   3.881   4.489  15.134 -0.0160 -0.2545 -0.0703
 4759TIP3    H135768   3.835   4.543  15.198  2.4330 -0.3992  1.9637
 4759TIP3    H235769   3.973   4.518  15.140  1.2454 -3.8767  0.4056
 4760TIP3   OH235770   6.679   3.672   4.488  0.0129  0.4745 -0.1733
 4760TIP3    H135771   6.642   3.648   4.404 -2.6572  0.6429  0.8356
 4760TIP3    H235772   6.696   3.589   4.532  1.0418  0.3929 -0.7005
 4761TIP3   OH235773   0.313   1.025   4.637  0.4027  0.5201  0.1473
 4761TIP3    H135774   0.234   1.071   4.665 -0.2246  0.6597 -1.6875
 4761TIP3    H235775   0.385   1.086   4.656 -0.0632  0.9163  0.6593
 4762TIP3   OH235776   3.604   3.462   6.760 -0.1266 -0.1392 -0.0721
 4762TIP3    H135777   3.515   3.446   6.790 -0.4495 -0.1209 -0.9823
 4762TIP3    H235778   3.657   3.394   6.802 -0.5506 -0.0954  0.5397
 4763TIP3   OH235779   3.836   1.442  14.479 -0.2323 -0.0997  0.5437
 4763TIP3    H135780   3.881   1.364  14.447 -1.5036 -0.2366 -1.0689
 4763TIP3    H235781   3.901   1.488  14.531  1.1378 -1.2596 -0.0851
 4764TIP3   OH235782   4.818   2.473   4.786 -0.4916 -0.7147 -0.1749
 4764TIP3    H135783   4.904   2.442   4.755 -0.3249  0.5345 -1.0142
 4764TIP3    H235784   4.839   2.525   4.864 -0.5643 -0.9071 -0.0238
 4765TIP3   OH235785   1.861   2.267   4.032  0.1803 -0.4227 -0.5427
 4765TIP3    H135786   1.952   2.236   4.035 -0.4655 -2.5397 -1.2085
 4765TIP3    H235787   1.864   2.353   4.073  2.1958 -1.2044  1.1322
 4766TIP3   OH235788   2.095   6.614  16.703  0.0134  0.1801  0.6148
 4766TIP3    H135789   2.020   6.661  16.666  3.0688  1.8283 -4.4103
 4766TIP3    H235790   2.151   6.682  16.740  0.4276 -0.6812  1.6432
 4767TIP3   OH235791   3.229   3.630  13.753 -0.3305  0.7798  0.1183
 4767TIP3    H135792   3.196   3.716  13.779 -2.5181  0.2188 -0.6148
 4767TIP3    H235793   3.176   3.568  13.802  0.5315 -0.1821 -0.1290
 4768TIP3   OH235794   6.772   2.892   0.724  0.0200 -0.2242 -0.0097
 4768TIP3    H135795   6.784   2.967   0.782 -1.2328 -0.4477  0.5630
 4768TIP3    H235796   6.843   2.831   0.748  1.0629  0.7581 -0.5007
 4769TIP3   OH235797   0.579   3.049   1.578  0.1681  0.6222 -0.2964
 4769TIP3    H135798   0.542   2.997   1.507  1.7761 -0.4013 -0.4346
 4769TIP3    H235799   0.617   3.126   1.534  0.8738  0.1517 -0.5255
 4770TIP3   OH235800   3.170   0.438  13.502 -0.7982 -0.0688 -0.0218
 4770TIP3    H135801   3.220   0.372  13.455 -0.2823  0.1164  0.2645
 4770TIP3    H235802   3.103   0.466  13.439 -1.0427 -0.8780 -0.1330
 4771TIP3   OH235803   1.446   1.724  11.491  0.1688 -0.2156 -0.7290
 4771TIP3    H135804   1.509   1.718  11.562  0.0059  2.2303 -0.2763
 4771TIP3    H235805   1.363   1.741  11.534 -0.7434 -2.6715 -1.3631
 4772TIP3   OH235806   0.970   1.327  16.888 -0.4498  0.6735  0.4514
 4772TIP3    H135807   0.981   1.367  16.974 -1.1575  0.7487  0.5154
 4772TIP3    H235808   0.877   1.339  16.867 -0.3882  0.2430 -0.1151
 4773TIP3   OH235809   3.019   3.227   1.993 -0.2800  0.4698 -0.3932
 4773TIP3    H135810   2.954   3.294   1.973 -1.3339 -0.0881  0.9826
 4773TIP3    H235811   3.055   3.253   2.078  1.4753  0.8656 -1.2076
 4774TIP3   OH235812   0.053   3.411   2.396 -0.3915 -0.4914 -0.6500
 4774TIP3    H135813   0.096   3.364   2.323 -1.5470  1.3411 -2.6117
 4774TIP3    H235814   0.096   3.496   2.398 -1.0815 -0.1539  0.1728
 4775TIP3   OH235815   4.165   0.693   5.511  0.4961 -0.3211  0.2064
 4775TIP3    H135816   4.130   0.711   5.598  1.4461 -1.1392  0.7827
 4775TIP3    H235817   4.150   0.773   5.461  0.5750  0.4024  1.3303
 4776TIP3   OH235818   2.900   1.983   4.802 -0.1301 -0.3743 -0.4328
 4776TIP3    H135819   2.887   2.023   4.888  0.1554 -1.6411  0.2302
 4776TIP3    H235820   2.825   2.013   4.750  2.1163  4.4810 -1.4526
 4777TIP3   OH235821   2.656   1.305   3.937 -0.1077 -0.5329  0.0600
 4777TIP3    H135822   2.659   1.353   4.020 -0.7646 -0.7795  0.2313
 4777TIP3    H235823   2.631   1.216   3.961 -1.0797 -0.4178 -0.4768
 4778TIP3   OH235824   3.215   1.788  14.738 -0.4040  0.4006 -0.4819
 4778TIP3    H135825   3.305   1.789  14.707 -0.4023 -0.7484 -0.5698
 4778TIP3    H235826   3.175   1.713  14.693 -1.5682  1.2209 -0.8938
 4779TIP3   OH235827   2.373   5.872  12.127  0.0792 -0.7398  0.0777
 4779TIP3    H135828   2.294   5.830  12.096 -0.1359 -1.2482  1.2439
 4779TIP3    H235829   2.441   5.845  12.066 -0.6370 -0.2655 -0.9534
 4780TIP3   OH235830   0.612   1.401  12.161  0.2787 -0.2135  0.1634
 4780TIP3    H135831   0.640   1.424  12.249  0.1357  0.8688 -0.0543
 4780TIP3    H235832   0.524   1.365  12.172  0.0805  0.3370  0.4234
 4781TIP3   OH235833   5.086   5.807   2.914  0.4334 -0.2715  0.2149
 4781TIP3    H135834   5.146   5.867   2.869  0.7493 -0.1339  0.8083
 4781TIP3    H235835   5.000   5.829   2.879  0.3573  1.4524  1.3463
 4782TIP3   OH235836   0.964   4.041   4.353 -0.5940  0.1530 -0.2013
 4782TIP3    H135837   1.042   4.074   4.398  0.3669 -0.2546 -1.4920
 4782TIP3    H235838   0.894   4.098   4.382  0.1139  0.3318  1.2481
 4783TIP3   OH235839   5.178   0.279  16.543  0.5317 -0.0528 -0.1777
 4783TIP3    H135840   5.185   0.184  16.540  2.8872 -0.0211  1.3848
 4783TIP3    H235841   5.175   0.300  16.636  0.9518  1.4243 -0.4700
 4784TIP3   OH235842   0.641   5.985   0.910  0.0290  0.0564 -0.8404
 4784TIP3    H135843   0.619   6.077   0.897 -3.8953 -0.6092 -0.1639
 4784TIP3    H235844   0.721   5.987   0.964 -0.5687  3.0812  0.1313
 4785TIP3   OH235845   3.761   3.891  14.964  0.2736  0.5889 -0.1736
 4785TIP3    H135846   3.704   3.833  14.913  1.7519 -0.0980 -1.0834
 4785TIP3    H235847   3.701   3.956  15.001 -1.1873 -0.4749 -0.5734
 4786TIP3   OH235848   0.555   0.610   1.615  0.3246  0.0560  0.4487
 4786TIP3    H135849   0.505   0.691   1.609 -0.4941 -0.3822  1.1746
 4786TIP3    H235850   0.593   0.612   1.703 -1.8903 -1.5601  1.5325
 4787TIP3   OH235851   3.894   2.359   4.410 -0.2284  0.6323  0.4150
 4787TIP3    H135852   3.842   2.405   4.477 -0.5644  1.3502 -0.3145
 4787TIP3    H235853   3.896   2.268   4.439 -0.6948  0.8606  1.1984
 4788TIP3   OH235854   0.274   2.973   3.192  0.4530 -0.0177  0.0769
 4788TIP3    H135855   0.297   3.052   3.242  0.0576 -0.8001  1.5379
 4788TIP3    H235856   0.310   2.901   3.243 -0.3632 -0.8871 -0.5475
 4789TIP3   OH235857   6.524   6.761  14.442  0.3830  0.0355 -0.4657
 4789TIP3    H135858   6.501   6.705  14.516  1.2199  0.6202  0.2680
 4789TIP3    H235859   6.583   6.708  14.389  0.0472 -0.2697 -0.5354
 4790TIP3   OH235860   4.229   1.795   1.114  0.6281 -0.2491 -0.0352
 4790TIP3    H135861   4.195   1.717   1.071  2.6208  0.2170 -2.7629
 4790TIP3    H235862   4.157   1.858   1.108 -1.4948 -2.0596  3.3726
 4791TIP3   OH235863   4.492   5.974   4.811  0.0688 -0.1077  0.5645
 4791TIP3    H135864   4.433   5.936   4.746  1.3744 -0.9358 -0.1775
 4791TIP3    H235865   4.483   6.068   4.800 -0.1667 -0.2366 -0.4176
 4792TIP3   OH235866   3.843   4.310  16.054 -0.3151 -0.4144  0.0235
 4792TIP3    H135867   3.898   4.366  16.000 -0.3262  0.3889  0.8227
 4792TIP3    H235868   3.769   4.365  16.079 -0.4881 -0.8811  0.5691
 4793TIP3   OH235869   5.583   3.614  11.033  0.5660 -0.9841 -0.5193
 4793TIP3    H135870   5.617   3.686  11.087 -2.8164  1.4486 -1.3001
 4793TIP3    H235871   5.575   3.652  10.946  0.9030 -3.1357 -1.5401
 4794TIP3   OH235872   0.071   2.640   2.034 -0.5665  0.6499  0.3339
 4794TIP3    H135873   0.081   2.564   2.092  0.0625  0.1416 -0.4233
 4794TIP3    H235874   0.047   2.603   1.949 -1.5973  1.3971  0.2757
 4795TIP3   OH235875   2.831   6.718  15.413 -0.1191  0.0866 -0.0865
 4795TIP3    H135876   2.904   6.663  15.385  0.3779  1.3143 -1.3718
 4795TIP3    H235877   2.768   6.658  15.452  0.9175 -1.2028 -0.3387
 4796TIP3   OH235878   4.195   2.833  14.401  0.2659 -0.1434  0.3468
 4796TIP3    H135879   4.267   2.771  14.404 -1.4375 -2.2731  0.1538
 4796TIP3    H235880   4.204   2.884  14.481  2.5696  0.4321 -0.2074
 4797TIP3   OH235881   4.380   1.938   1.643 -0.2469  0.4161 -0.7967
 4797TIP3    H135882   4.320   1.868   1.621 -0.0734 -0.1003  0.3144
 4797TIP3    H235883   4.464   1.910   1.607 -0.0356 -0.2733  0.1806
 4798TIP3   OH235884   6.797   4.565   4.736 -0.3186 -0.1387 -0.3741
 4798TIP3    H135885   6.872   4.548   4.679 -0.1481 -0.3676 -0.0825
 4798TIP3    H235886   6.722   4.534   4.685 -0.2051 -0.0067 -0.6236
 4799TIP3   OH235887   4.850   0.628   2.517 -0.6549  0.8464  0.0199
 4799TIP3    H135888   4.755   0.626   2.505 -0.7313  3.3360 -0.3894
 4799TIP3    H235889   4.862   0.626   2.612 -1.0958  0.3064  0.0695
 4800TIP3   OH235890   3.809   1.626  11.529  0.2427  0.5508 -0.2052
 4800TIP3    H135891   3.813   1.720  11.513 -0.2805  1.0479  2.2619
 4800TIP3    H235892   3.715   1.607  11.537  0.4052  0.1002  0.7276
 4801TIP3   OH235893   2.128   6.254  15.524 -0.0282  0.5377 -0.0640
 4801TIP3    H135894   2.172   6.337  15.510 -0.4144  0.7117 -0.2633
 4801TIP3    H235895   2.140   6.236  15.618  2.0461 -0.3431 -0.4353
 4802TIP3   OH235896   3.640   5.848  16.377  0.3465 -0.0279  0.1531
 4802TIP3    H135897   3.648   5.799  16.295  3.1681  1.3279 -0.5049
 4802TIP3    H235898   3.680   5.790  16.443 -1.0734 -0.7248  0.4370
 4803TIP3   OH235899   6.660   1.726  13.490 -0.0656 -0.6766 -0.2369
 4803TIP3    H135900   6.587   1.721  13.428  1.0304  1.4745 -1.8234
 4803TIP3    H235901   6.665   1.639  13.529 -2.5884 -1.2792 -1.0732
 4804TIP3   OH235902   6.475   0.737  15.108  0.1871 -0.5797  0.1794
 4804TIP3    H135903   6.465   0.721  15.014 -0.4064 -1.4166  0.3719
 4804TIP3    H235904   6.387   0.761  15.137  0.2423 -0.9153  0.6297
 4805TIP3   OH235905   4.980   6.126  12.890  0.0933 -0.8884 -0.2808
 4805TIP3    H135906   4.956   6.155  12.978  3.2383  1.3877  0.0233
 4805TIP3    H235907   5.064   6.082  12.901 -0.3638 -2.3302 -1.9737
 4806TIP3   OH235908   2.191   1.548  10.485 -0.2375  0.0719  0.0368
 4806TIP3    H135909   2.283   1.551  10.461 -0.2936 -1.6348 -0.5065
 4806TIP3    H235910   2.161   1.462  10.456 -2.6220  1.4452 -1.9397
 4807TIP3   OH235911   2.601   0.076   2.399  0.0992 -0.1768 -0.2617
 4807TIP3    H135912   2.522   0.129   2.398 -0.8535 -1.5359 -1.9390
 4807TIP3    H235913   2.621   0.060   2.307  1.1034 -1.5995  0.1624
 4808TIP3   OH235914   6.489   1.089  16.017  0.0334  0.4455 -0.0457
 4808TIP3    H135915   6.537   1.131  16.088 -0.1211  0.5941 -0.0284
 4808TIP3    H235916   6.475   0.999  16.046  1.6293 -0.0447 -0.6894
 4809TIP3   OH235917   0.600   4.551   4.423  0.0312  0.4048  0.1289
 4809TIP3    H135918   0.592   4.493   4.347 -0.3741  0.5063  0.0951
 4809TIP3    H235919   0.555   4.504   4.494 -0.3418  0.7033  0.0884
 4810TIP3   OH235920   2.392   5.753   0.412  0.2745 -0.0974 -0.1203
 4810TIP3    H135921   2.417   5.762   0.320  0.5709 -0.1108 -0.0408
 4810TIP3    H235922   2.455   5.806   0.460  0.3546 -0.3974  0.1113
 4811TIP3   OH235923   5.257   5.784   2.684  0.1498 -0.0121 -0.0258
 4811TIP3    H135924   5.174   5.763   2.641 -0.0634  1.3942 -0.3273
 4811TIP3    H235925   5.265   5.718   2.753 -1.0508 -0.3612 -0.1935
 4812TIP3   OH235926   0.926   6.087   5.249 -0.2533 -0.2845  0.5109
 4812TIP3    H135927   0.890   6.041   5.325  0.9713 -2.4484 -0.1529
 4812TIP3    H235928   1.011   6.047   5.234  0.0570  0.9199 -1.3014
 4813TIP3   OH235929   1.104   4.760   1.404  0.3622  0.0794  0.7789
 4813TIP3    H135930   1.059   4.829   1.355 -0.3868  0.4308  1.9326
 4813TIP3    H235931   1.107   4.686   1.343 -0.4825  0.5268  0.1697
 4814TIP3   OH235932   6.251   3.483  10.221  0.0394 -0.5439  0.2347
 4814TIP3    H135933   6.275   3.574  10.238  2.4434 -1.2737  1.2034
 4814TIP3    H235934   6.186   3.463  10.288  0.2625  0.1717  0.6832
 4815TIP3   OH235935   4.673   6.325  15.342 -0.7109 -0.3805 -0.1401
 4815TIP3    H135936   4.670   6.416  15.311  1.8464 -0.5977 -1.3304
 4815TIP3    H235937   4.590   6.287  15.315 -2.1064  1.7327  0.9326
 4816TIP3   OH235938   6.191   3.090   4.567 -0.2901  0.2892  0.0930
 4816TIP3    H135939   6.108   3.082   4.614  0.1235  1.1245  1.0038
 4816TIP3    H235940   6.249   3.026   4.608 -1.2216 -2.3111 -2.3593
 4817TIP3   OH235941   4.541   0.940  12.998 -0.1794  0.1210  0.1563
 4817TIP3    H135942   4.626   0.984  12.996 -0.0606 -0.1187 -1.8624
 4817TIP3    H235943   4.544   0.877  12.926 -1.3543 -1.3027  1.2777
 4818TIP3   OH235944   3.679   3.009   1.788 -0.3244 -0.2222  0.0472
 4818TIP3    H135945   3.660   3.101   1.774  2.3662  0.0045 -3.3099
 4818TIP3    H235946   3.771   3.006   1.814 -0.7263 -1.9322  1.5210
 4819TIP3   OH235947   1.559   2.965  14.208  0.2847  0.3844 -0.1066
 4819TIP3    H135948   1.632   2.936  14.262 -0.3566  0.8939  1.0618
 4819TIP3    H235949   1.483   2.921  14.245 -0.3454  1.6869  0.2102
 4820TIP3   OH235950   0.806   0.204  14.722 -0.3986 -0.1884 -0.3922
 4820TIP3    H135951   0.725   0.247  14.694 -1.5662 -1.5642  0.6420
 4820TIP3    H235952   0.778   0.115  14.746  1.4714 -0.7681 -0.2063
 4821TIP3   OH235953   0.170   1.763  10.712  0.3436  0.1400  0.1133
 4821TIP3    H135954   0.235   1.775  10.781 -0.3218  0.7762  0.6410
 4821TIP3    H235955   0.223   1.748  10.633  1.0950 -1.4182  0.8723
 4822TIP3   OH235956   0.624   4.748   4.888 -0.1445 -0.4459  0.8424
 4822TIP3    H135957   0.701   4.768   4.941  0.2597 -0.5504  0.2971
 4822TIP3    H235958   0.550   4.759   4.949  0.2781 -0.1390  1.3103
 4823TIP3   OH235959   4.805   3.384  10.916  0.5315  1.0619  0.2344
 4823TIP3    H135960   4.784   3.298  10.953  1.6102 -0.6265 -2.6902
 4823TIP3    H235961   4.720   3.426  10.903 -0.4235 -1.2210 -1.6938
 4824TIP3   OH235962   2.731   4.509   4.024 -0.1549 -0.4285 -0.2409
 4824TIP3    H135963   2.694   4.535   3.940 -1.1637  2.9237  1.0877
 4824TIP3    H235964   2.656   4.485   4.077  0.3583 -1.2432  0.1381
 4825TIP3   OH235965   1.066   3.157   1.758  0.1332  0.0817 -0.3602
 4825TIP3    H135966   1.142   3.123   1.710  0.0463 -0.3597 -0.1897
 4825TIP3    H235967   1.078   3.124   1.847  1.1329  2.2022  0.3502
 4826TIP3   OH235968   3.074   4.408  12.437 -0.1941  0.3136  0.0258
 4826TIP3    H135969   3.000   4.433  12.383 -0.2605 -0.0639 -0.0573
 4826TIP3    H235970   3.090   4.484  12.492  0.7305  1.2442 -1.4474
 4827TIP3   OH235971   4.671   0.096  15.987 -0.5000 -0.1550 -0.1027
 4827TIP3    H135972   4.650   0.011  16.027 -0.5602  0.1852  0.5898
 4827TIP3    H235973   4.677   0.076  15.893  0.3025 -1.0848  0.1266
 4828TIP3   OH235974   5.208   2.434   4.930  0.4339 -0.3713 -0.2533
 4828TIP3    H135975   5.161   2.351   4.934 -0.9927  0.4252  0.2093
 4828TIP3    H235976   5.283   2.422   4.988 -1.7588 -0.1881  2.9258
 4829TIP3   OH235977   4.549   0.445   5.278 -0.7302  0.2877  0.3301
 4829TIP3    H135978   4.616   0.440   5.210 -1.4195 -0.3376 -0.3326
 4829TIP3    H235979   4.474   0.486   5.235 -0.6622  1.3252  1.1685
 4830TIP3   OH235980   1.443   4.626  16.140 -0.6093  0.3507  0.0063
 4830TIP3    H135981   1.362   4.641  16.092 -1.4544 -3.4317 -0.0485
 4830TIP3    H235982   1.415   4.608  16.229  0.5303  2.2492  0.8003
 4831TIP3   OH235983   5.234   5.920   0.734 -0.1561  0.0428 -0.0424
 4831TIP3    H135984   5.207   6.002   0.774  1.7213 -0.5072  2.5851
 4831TIP3    H235985   5.280   5.946   0.654  1.7946  1.7240  1.5375
 4832TIP3   OH235986   5.503   3.700   3.041 -0.4064  0.5984  0.0062
 4832TIP3    H135987   5.430   3.667   3.093  0.6072  1.9725  2.4415
 4832TIP3    H235988   5.517   3.789   3.072  2.3278  0.3763 -0.3099
 4833TIP3   OH235989   2.808   2.704   2.642 -0.3846  0.1438  0.2266
 4833TIP3    H135990   2.891   2.747   2.622 -0.3088  0.1960  0.6429
 4833TIP3    H235991   2.833   2.615   2.666 -0.6872 -0.8141 -2.5887
 4834TIP3   OH235992   2.416   0.254  11.715  0.3277 -0.1829  0.2968
 4834TIP3    H135993   2.372   0.331  11.678  2.8184  1.8737  1.3088
 4834TIP3    H235994   2.415   0.190  11.643 -2.4902  0.4096 -0.3261
 4835TIP3   OH235995   0.512   3.658   5.611 -0.2502  0.3635  0.1362
 4835TIP3    H135996   0.469   3.741   5.632 -1.1845 -0.0524 -0.1000
 4835TIP3    H235997   0.578   3.648   5.679 -0.4163  1.0876  0.4200
 4836TIP3   OH235998   4.431   2.043  14.988  0.4111  0.7338  0.1259
 4836TIP3    H135999   4.430   1.969  14.927  1.8595  0.3062  0.5948
 4836TIP3    H236000   4.401   2.117  14.935  2.2965  0.5227 -1.3388
 4837TIP3   OH236001   0.076   0.246   0.601  0.2048 -0.1267  0.3432
 4837TIP3    H136002   0.066   0.180   0.669 -1.6071  0.0476  0.3073
 4837TIP3    H236003  -0.012   0.282   0.590  1.0390  1.9505  0.0124
 4838TIP3   OH236004   6.544   2.962   2.803 -0.0621  0.3984  0.1662
 4838TIP3    H136005   6.454   2.961   2.770 -0.8798  0.3463  2.2049
 4838TIP3    H236006   6.575   2.873   2.788 -0.8400  0.0360  0.6250
 4839TIP3   OH236007   0.908   5.288   1.966 -0.1988  0.2663 -0.3356
 4839TIP3    H136008   0.895   5.383   1.960 -1.9207  0.0904  0.0672
 4839TIP3    H236009   0.910   5.258   1.875  3.8488  1.0237 -0.6507
 4840TIP3   OH236010   5.919   2.786  15.976 -0.1502  0.3968  0.0091
 4840TIP3    H136011   5.871   2.869  15.977  0.8923  1.0147  0.8644
 4840TIP3    H236012   6.010   2.810  15.991  0.1859 -0.9021  0.2160
 4841TIP3   OH236013   5.984   1.989   0.635 -0.3248  0.0120  0.2413
 4841TIP3    H136014   5.889   1.979   0.644 -0.1188 -0.4584  2.6128
 4841TIP3    H236015   6.013   1.905   0.599 -0.5871 -0.8322  1.9154
 4842TIP3   OH236016   0.927   2.477  16.860  0.5547 -0.1956 -0.4766
 4842TIP3    H136017   0.989   2.462  16.788  0.1711 -0.1933 -0.8111
 4842TIP3    H236018   0.974   2.449  16.938  0.3934 -1.7906 -0.9186
 4843TIP3   OH236019   0.373   5.032  15.564  0.2172 -0.0534 -0.3365
 4843TIP3    H136020   0.333   4.955  15.606  1.4642 -0.8280 -0.5132
 4843TIP3    H236021   0.302   5.096  15.559 -0.6384 -0.8966  0.5616
 4844TIP3   OH236022   5.377   4.844  12.995  0.1080  0.4909 -0.3968
 4844TIP3    H136023   5.457   4.806  13.032 -0.1923  0.2477  0.0062
 4844TIP3    H236024   5.342   4.776  12.938 -1.3514 -0.5547  1.6303
 4845TIP3   OH236025   6.835   4.662   1.800 -0.9203  0.1984 -0.0794
 4845TIP3    H136026   6.897   4.730   1.774 -0.3532 -0.2837  0.0022
 4845TIP3    H236027   6.882   4.610   1.865 -1.3134 -0.3391 -0.2208
 4846TIP3   OH236028   1.973   4.038  16.403 -0.4334 -0.0189  0.1068
 4846TIP3    H136029   1.932   4.114  16.444 -2.6151 -0.9241 -0.2933
 4846TIP3    H236030   1.940   4.038  16.314  0.1931 -0.9916 -0.1383
 4847TIP3   OH236031   0.604   4.005  14.021 -0.1057 -0.1777 -0.1202
 4847TIP3    H136032   0.625   4.093  14.054 -1.6279  0.6501 -1.2384
 4847TIP3    H236033   0.582   3.955  14.100  2.3815 -0.0758  0.7027
 4848TIP3   OH236034   4.906   2.876   1.523 -0.0522 -0.1307  0.2537
 4848TIP3    H136035   4.956   2.926   1.459 -0.1295  0.1015  0.3708
 4848TIP3    H236036   4.921   2.922   1.606  1.3850 -1.3849  0.7205
 4849TIP3   OH236037   4.865   0.786  15.983 -0.0301 -0.4142  0.5761
 4849TIP3    H136038   4.844   0.866  15.935 -0.0279 -0.5340  0.3763
 4849TIP3    H236039   4.957   0.798  16.009  1.1810 -1.8802 -2.5468
 4850TIP3   OH236040   5.611   0.325   0.161  0.0792 -0.1144  0.1220
 4850TIP3    H136041   5.659   0.367   0.233  0.5258 -0.0349 -0.2169
 4850TIP3    H236042   5.679   0.284   0.108 -0.2720 -0.4099 -0.1026
 4851TIP3   OH236043   3.349   4.051   0.265 -0.3606  0.1919  0.5031
 4851TIP3    H136044   3.347   3.955   0.263 -0.1289  0.0917  2.7961
 4851TIP3    H236045   3.279   4.075   0.326 -1.0536  1.5641 -0.7577
 4852TIP3   OH236046   5.606   6.705  13.954 -0.1934 -0.1722  0.3848
 4852TIP3    H136047   5.688   6.733  13.993  0.9271 -2.6717  0.0001
 4852TIP3    H236048   5.613   6.730  13.862 -0.6016  1.0337  0.6566
 4853TIP3   OH236049   4.961   1.545  13.821 -0.3776 -0.2575  0.2564
 4853TIP3    H136050   4.890   1.556  13.757 -1.4012 -0.5550  1.2947
 4853TIP3    H236051   4.946   1.459  13.859  0.2961 -0.1507  0.7936
 4854TIP3   OH236052   6.527   5.135   4.445  0.3344 -0.1166 -0.3215
 4854TIP3    H136053   6.565   5.215   4.481  0.9381  0.1004 -1.3866
 4854TIP3    H236054   6.434   5.153   4.438  0.3490  0.1795  0.2464
 4855TIP3   OH236055   6.371   0.548   3.708 -0.6129 -0.0015 -0.4703
 4855TIP3    H136056   6.464   0.545   3.730 -0.3778 -1.0947 -1.4597
 4855TIP3    H236057   6.356   0.638   3.678  0.0923  0.2238 -0.1695
 4856TIP3   OH236058   3.665   1.885   0.613  0.0873  0.8257  0.8552
 4856TIP3    H136059   3.691   1.871   0.522 -1.5037 -0.5077  0.5565
 4856TIP3    H236060   3.746   1.912   0.657  1.1207  0.4698 -0.7298
 4857TIP3   OH236061   5.546   0.136  12.750  0.0972  0.5232  0.4788
 4857TIP3    H136062   5.573   0.215  12.796  1.0053 -0.1709  1.1675
 4857TIP3    H236063   5.473   0.102  12.801  0.4857  0.2680  0.8616
 4858TIP3   OH236064   3.550   1.741   4.863 -0.6310 -0.2539 -0.2351
 4858TIP3    H136065   3.570   1.649   4.880  1.7542  0.1453 -0.5384
 4858TIP3    H236066   3.553   1.783   4.949  5.1033  0.6247 -0.4872
 4859TIP3   OH236067   6.811   4.913   1.039  0.0063  0.2456 -0.0949
 4859TIP3    H136068   6.837   4.981   1.102 -1.0126  0.3749  0.2119
 4859TIP3    H236069   6.805   4.959   0.955 -2.8984  1.1254  0.4924
 4860TIP3   OH236070   3.157   6.735  14.181 -0.3767  0.3910 -0.2027
 4860TIP3    H136071   3.160   6.640  14.168  0.4992  0.0865  1.8548
 4860TIP3    H236072   3.241   6.766  14.147 -0.0939  0.2389  0.3498
 4861TIP3   OH236073   5.960   2.167   2.833  0.1956  0.5516 -0.0981
 4861TIP3    H136074   6.038   2.215   2.862  0.7784  0.3251 -1.2230
 4861TIP3    H236075   5.985   2.075   2.839  0.1163  0.4839 -0.6862
 4862TIP3   OH236076   0.735   0.214  14.353 -0.0323  0.5070  0.6196
 4862TIP3    H136077   0.735   0.169  14.268 -1.5529  3.6973 -1.2464
 4862TIP3    H236078   0.654   0.186  14.395 -0.5788  0.8932 -0.1675
 4863TIP3   OH236079   1.174   1.681  12.561  0.0304  0.1051 -0.1932
 4863TIP3    H136080   1.214   1.699  12.476  2.9420  1.6825  1.3644
 4863TIP3    H236081   1.106   1.747  12.570 -0.4317 -0.1890 -1.3317
 4864TIP3   OH236082   1.276   5.613  11.690  0.5756 -0.0058 -0.1604
 4864TIP3    H136083   1.342   5.567  11.743  1.4930 -0.4414 -1.6191
 4864TIP3    H236084   1.257   5.693  11.740  0.7710 -0.7792  1.2230
 4865TIP3   OH236085   5.123   5.541  12.617 -0.0047  0.1029  0.5346
 4865TIP3    H136086   5.104   5.513  12.528 -0.4638  1.3539  0.2194
 4865TIP3    H236087   5.212   5.510  12.633  0.4073  0.5750 -0.6826
 4866TIP3   OH236088   1.435   4.951  15.802  0.3450  0.3950 -1.1791
 4866TIP3    H136089   1.339   4.948  15.802  0.2372  2.4637 -0.7809
 4866TIP3    H236090   1.459   4.950  15.895  0.6079  1.5105 -1.2233
 4867TIP3   OH236091   3.228   0.864  11.802  0.5069 -0.6181 -0.5820
 4867TIP3    H136092   3.293   0.895  11.739  0.5329  0.2174 -0.1529
 4867TIP3    H236093   3.189   0.787  11.761  1.0271 -0.5008 -1.3020
 4868TIP3   OH236094   3.158   5.286   1.876  0.1691  0.6661 -0.3623
 4868TIP3    H136095   3.254   5.293   1.877  0.1654  0.9323 -1.1185
 4868TIP3    H236096   3.135   5.287   1.783 -0.4390 -1.4434 -0.2670
 4869TIP3   OH236097   1.558   4.321  13.367  0.1556  0.1288  0.0832
 4869TIP3    H136098   1.476   4.320  13.417  0.8480  1.1380  1.3142
 4869TIP3    H236099   1.562   4.236  13.325 -1.6465  0.1527 -0.2178
 4870TIP3   OH236100   2.010   2.561  13.975 -0.1198 -0.6775  0.3520
 4870TIP3    H136101   2.006   2.550  14.069  3.3105 -0.6363  0.6068
 4870TIP3    H236102   2.062   2.487  13.943 -0.0627  0.0245 -1.3225
 4871TIP3   OH236103   2.903   5.353  16.660 -0.4298  0.4781 -0.3052
 4871TIP3    H136104   2.843   5.285  16.627  0.4340  0.4181 -1.8713
 4871TIP3    H236105   2.864   5.435  16.631 -0.7899  0.5670  0.4297
 4872TIP3   OH236106   2.814   5.537   5.256  0.0047  0.8464  0.2778
 4872TIP3    H136107   2.845   5.627   5.252  2.0634  0.2846  1.8803
 4872TIP3    H236108   2.832   5.508   5.345 -0.6823 -1.1316 -0.1545
 4873TIP3   OH236109   3.516   0.592  12.562  0.6012  0.1526 -0.5877
 4873TIP3    H136110   3.505   0.517  12.503  1.1052 -0.7197  0.3743
 4873TIP3    H236111   3.434   0.597  12.610  0.7067 -0.0280 -0.3869
 4874TIP3   OH236112   0.994   4.475   2.612  0.1700 -0.0341 -0.4240
 4874TIP3    H136113   0.938   4.538   2.657 -0.9901 -2.4113  1.6911
 4874TIP3    H236114   0.934   4.423   2.558  0.7229 -0.8804 -0.2405
 4875TIP3   OH236115   0.988   3.330   4.086  0.6253 -0.7299 -0.6304
 4875TIP3    H136116   1.050   3.356   4.155 -0.9308  0.6442  0.3550
 4875TIP3    H236117   1.043   3.297   4.015  2.5333  1.0045 -0.0646
 4876TIP3   OH236118   2.129   5.282   0.520  0.0586 -0.0501  0.0927
 4876TIP3    H136119   2.212   5.314   0.555 -0.2433 -0.5339  1.2781
 4876TIP3    H236120   2.136   5.187   0.522 -1.2709 -0.1741  2.1816
 4877TIP3   OH236121   4.273   5.007  14.718 -0.5052 -0.1347 -0.3356
 4877TIP3    H136122   4.188   5.011  14.761 -0.7891  2.0738 -0.9792
 4877TIP3    H236123   4.255   4.968  14.633 -0.5200 -1.3390  0.1902
 4878TIP3   OH236124   4.491   6.043   4.428  0.3313 -0.0312 -0.3809
 4878TIP3    H136125   4.433   6.119   4.438  0.7034  0.5843 -2.4864
 4878TIP3    H236126   4.572   6.070   4.472 -0.5470 -0.5052  1.6726
 4879TIP3   OH236127   2.113   2.876   5.486  0.6113 -0.3096 -0.4006
 4879TIP3    H136128   2.131   2.884   5.392  1.0941 -0.6513 -0.3427
 4879TIP3    H236129   2.198   2.890   5.528  0.3592  0.0409 -0.0035
 4880TIP3   OH236130   0.174   3.003  10.162  0.7573  0.2243  0.1314
 4880TIP3    H136131   0.141   2.917  10.190  0.7060  0.1939 -0.0224
 4880TIP3    H236132   0.142   3.064  10.228  0.8338  0.1182  0.2676
 4881TIP3   OH236133   6.772   6.284   3.510  0.5939 -0.2923  0.6712
 4881TIP3    H136134   6.845   6.346   3.506  0.6494 -0.3994 -0.1854
 4881TIP3    H236135   6.796   6.223   3.579  0.8344  0.2745  1.0952
 4882TIP3   OH236136   5.054   3.891  14.770  0.1599 -0.1061 -0.2366
 4882TIP3    H136137   4.999   3.967  14.752  0.2490 -0.2570 -1.2398
 4882TIP3    H236138   5.137   3.911  14.727 -0.2665 -1.3439 -1.7428
 4883TIP3   OH236139   5.031   4.218   6.142 -0.0621  0.0489 -0.0515
 4883TIP3    H136140   5.069   4.133   6.163 -2.5874 -0.6273  2.4128
 4883TIP3    H236141   5.083   4.281   6.193 -0.3051 -0.4940  0.8975
 4884TIP3   OH236142   1.854   4.339  15.959  0.1971  0.3042  0.5411
 4884TIP3    H136143   1.924   4.402  15.946 -0.8274  1.1246 -1.3333
 4884TIP3    H236144   1.878   4.264  15.904  0.4352 -0.1518  1.2462
 4885TIP3   OH236145   1.580   3.226   4.401  0.3967  1.4798  0.8182
 4885TIP3    H136146   1.542   3.182   4.325 -2.0979  2.6160  1.2956
 4885TIP3    H236147   1.643   3.288   4.365  1.7802 -0.3180 -0.0413
 4886TIP3   OH236148   1.234   5.541   3.680 -0.4626 -0.1257  0.4584
 4886TIP3    H136149   1.191   5.471   3.728 -1.5621 -1.3943 -2.1812
 4886TIP3    H236150   1.297   5.497   3.624  1.7599  1.4126  1.6147
 4887TIP3   OH236151   6.763   6.727  14.256  0.3923  0.1186  0.4158
 4887TIP3    H136152   6.706   6.674  14.200 -1.0809  0.8915  1.1315
 4887TIP3    H236153   6.757   6.815  14.219  0.1434  0.4491  1.2396
 4888TIP3   OH236154   5.862   4.187  13.134  0.1457  0.3174  0.0889
 4888TIP3    H136155   5.917   4.130  13.187 -0.1988  1.4287  1.7177
 4888TIP3    H236156   5.790   4.211  13.191 -2.1547 -1.1138 -1.9812
 4889TIP3   OH236157   6.699   1.110  13.073 -0.2670 -0.5565 -0.2916
 4889TIP3    H136158   6.644   1.053  13.018  1.9112 -1.0771 -2.0691
 4889TIP3    H236159   6.745   1.051  13.132 -2.2845 -0.0309  1.9959
 4890TIP3   OH236160   3.519   0.148   5.913 -0.4463  0.6578 -0.1818
 4890TIP3    H136161   3.499   0.086   5.983 -0.8940  0.8319 -0.1491
 4890TIP3    H236162   3.433   0.167   5.874 -0.0811 -0.4548 -1.6320
 4891TIP3   OH236163   3.046   1.921   1.864 -0.2342 -0.4417  0.0923
 4891TIP3    H136164   2.970   1.864   1.875  0.5984 -1.6163 -0.0054
 4891TIP3    H236165   3.018   2.006   1.898 -2.4237 -0.0923 -2.2984
 4892TIP3   OH236166   3.978   1.389   4.170  0.3317 -0.4220 -0.0836
 4892TIP3    H136167   3.929   1.380   4.252 -1.7555 -0.5846 -1.2688
 4892TIP3    H236168   3.957   1.478   4.140  1.4260 -0.2102 -0.2608
 4893TIP3   OH236169   4.982   4.218   1.734 -0.1675  0.1557  0.3476
 4893TIP3    H136170   5.001   4.204   1.641 -2.7067 -2.2400  0.0640
 4893TIP3    H236171   5.068   4.227   1.775  1.2879 -2.8853 -1.6759
 4894TIP3   OH236172   5.247   6.230  11.630  0.7014  0.0893  0.5862
 4894TIP3    H136173   5.252   6.310  11.578  1.4129  0.2975  0.9608
 4894TIP3    H236174   5.225   6.260  11.718 -1.1187 -0.3070  0.3105
 4895TIP3   OH236175   3.724   6.280   0.493  0.2226 -0.2029  0.5882
 4895TIP3    H136176   3.809   6.240   0.513  0.5843  0.4682  0.3970
 4895TIP3    H236177   3.722   6.360   0.544 -0.5300 -0.4743  1.0033
 4896TIP3   OH236178   5.754   3.329  15.815  0.7727  0.1216 -0.1717
 4896TIP3    H136179   5.822   3.348  15.750  0.3920  1.9225 -0.0954
 4896TIP3    H236180   5.779   3.381  15.892 -0.7301  0.9481 -0.1920
 4897TIP3   OH236181   0.315   0.488   1.772 -1.0036 -0.1509 -0.1837
 4897TIP3    H136182   0.390   0.495   1.831 -1.5608 -0.7725  0.6171
 4897TIP3    H236183   0.253   0.553   1.805 -1.3254 -0.5151 -0.0655
 4898TIP3   OH236184   1.805   0.874  15.180 -0.3841  0.1309  0.0577
 4898TIP3    H136185   1.792   0.789  15.138 -3.4934 -0.0156  0.9959
 4898TIP3    H236186   1.838   0.853  15.267  0.3317  0.0080 -0.2399
 4899TIP3   OH236187   6.501   4.422  13.477  0.1869  1.0666 -0.1819
 4899TIP3    H136188   6.545   4.339  13.461 -0.4819  0.9240 -1.3858
 4899TIP3    H236189   6.472   4.417  13.568  1.4313  0.5973  0.2042
 4900TIP3   OH236190   0.938   5.843   2.367  0.0964 -0.2799  0.1480
 4900TIP3    H136191   0.865   5.787   2.395  0.8949 -0.6696  1.5563
 4900TIP3    H236192   0.904   5.932   2.375 -0.4362 -0.4819  0.1810
 4901TIP3   OH236193   5.783   1.350   1.676 -0.2420 -0.0108 -0.1244
 4901TIP3    H136194   5.745   1.402   1.747 -0.0269  1.3610 -0.9593
 4901TIP3    H236195   5.850   1.296   1.718 -0.7369  0.1116  0.8359
 4902TIP3   OH236196   5.525   3.936   3.242  0.8998 -0.3805  0.4251
 4902TIP3    H136197   5.444   3.981   3.217  1.1261 -0.3208 -0.2152
 4902TIP3    H236198   5.515   3.921   3.336 -0.3045 -1.3063  0.1860
 4903TIP3   OH236199   4.271   2.961  14.644 -0.0108 -0.5411  0.5157
 4903TIP3    H136200   4.276   2.973  14.739  1.1272  1.6121  0.2480
 4903TIP3    H236201   4.236   3.044  14.611  1.0424 -0.6632 -1.0461
 4904TIP3   OH236202   0.319   4.898   4.086  0.1082 -0.4188 -0.1113
 4904TIP3    H136203   0.309   4.852   4.169  0.4842 -3.6700 -1.7167
 4904TIP3    H236204   0.409   4.882   4.059 -0.2168 -0.1027 -1.4983
 4905TIP3   OH236205   3.403   5.793   6.583  0.1213  0.0787 -0.1629
 4905TIP3    H136206   3.318   5.790   6.628 -0.0668  1.4857 -0.3665
 4905TIP3    H236207   3.459   5.845   6.641  0.9297 -1.0191  0.0724
 4906TIP3   OH236208   0.870   6.667  11.069 -0.2295 -0.4127  0.3783
 4906TIP3    H136209   0.847   6.760  11.072  1.1692 -0.0808  1.7093
 4906TIP3    H236210   0.822   6.634  10.993 -0.8873  1.3484 -0.0361
 4907TIP3   OH236211   1.850   5.162  13.602  0.0845  0.3138 -0.8571
 4907TIP3    H136212   1.807   5.157  13.517 -1.4944  2.0347 -0.2264
 4907TIP3    H236213   1.794   5.110  13.660  0.2998  0.4187 -0.5550
 4908TIP3   OH236214   0.242   6.355  16.853  0.1742 -0.3002  0.1554
 4908TIP3    H136215   0.325   6.351  16.900  0.5625 -0.2531 -0.5060
 4908TIP3    H236216   0.226   6.448  16.841 -0.5823 -0.2623  1.3070
 4909TIP3   OH236217   3.461   1.498  17.010  0.3030  0.0444 -0.3578
 4909TIP3    H136218   3.452   1.530  17.100 -1.8112  1.3722 -0.9771
 4909TIP3    H236219   3.555   1.500  16.994  0.8083 -0.8595  2.0055
 4910TIP3   OH236220   3.370   1.639  13.668  0.1865  0.1362 -0.1378
 4910TIP3    H136221   3.322   1.645  13.585  0.6849  1.3613 -0.3551
 4910TIP3    H236222   3.341   1.556  13.706 -0.6916 -0.0382 -1.1320
 4911TIP3   OH236223   1.109   0.320  13.348  0.0324 -0.0264 -0.3917
 4911TIP3    H136224   1.050   0.396  13.351  0.7989  0.5638  0.5980
 4911TIP3    H236225   1.111   0.288  13.438  0.2935 -0.7691 -0.6559
 4912TIP3   OH236226   2.780   5.470  11.644  0.3474  0.3079  0.0614
 4912TIP3    H136227   2.769   5.526  11.567 -1.2010  0.9857  0.7271
 4912TIP3    H236228   2.874   5.457  11.651  0.5287  0.2797 -1.8946
 4913TIP3   OH236229   0.558   3.478   3.708  0.4294 -0.4207  0.8486
 4913TIP3    H136230   0.639   3.501   3.661  0.6464 -1.1327  0.8510
 4913TIP3    H236231   0.489   3.490   3.643  0.3362  1.6444  1.2809
 4914TIP3   OH236232   6.258   6.587  11.853 -0.5375 -0.0774 -0.1497
 4914TIP3    H136233   6.345   6.625  11.854 -1.1489  1.6243  3.5527
 4914TIP3    H236234   6.199   6.662  11.844 -1.6661 -0.6813  1.7176
 4915TIP3   OH236235   5.490   3.369   0.644 -0.2960 -0.7795  0.1422
 4915TIP3    H136236   5.546   3.442   0.672 -0.0108  0.3182 -2.8877
 4915TIP3    H236237   5.497   3.305   0.714  3.4882  0.0145  0.7192
 4916TIP3   OH236238   4.920   0.953   3.824  0.2690  1.1128  0.0047
 4916TIP3    H136239   4.944   1.045   3.814 -0.2086  1.4781  1.8542
 4916TIP3    H236240   4.838   0.955   3.872 -0.1371 -0.2880 -0.5786
 4917TIP3   OH236241   6.286   1.964   3.983  0.3162  0.4483  0.0781
 4917TIP3    H136242   6.235   1.997   4.057  0.2675 -1.7286  1.0869
 4917TIP3    H236243   6.228   1.903   3.939  0.4189  1.5583 -1.7048
 4918TIP3   OH236244   6.459   5.692  13.912  0.2549 -0.4139 -0.5051
 4918TIP3    H136245   6.518   5.721  13.842  0.8987 -2.0587 -0.6918
 4918TIP3    H236246   6.376   5.675  13.868  0.3640 -0.4692 -0.6907
 4919TIP3   OH236247   4.357   4.378  15.603 -1.1513  0.2633  0.4175
 4919TIP3    H136248   4.315   4.449  15.651 -0.3877  1.1491 -0.1892
 4919TIP3    H236249   4.399   4.421  15.529 -1.1257 -0.8963 -0.2691
 4920TIP3   OH236250   0.186   1.362  11.822 -0.2203  0.0959 -0.2323
 4920TIP3    H136251   0.181   1.272  11.854 -1.5273  0.0732 -0.4553
 4920TIP3    H236252   0.262   1.399  11.867  0.7009 -1.2768 -0.5777
 4921TIP3   OH236253   2.434   2.600   2.365  0.6767  0.3501  0.3787
 4921TIP3    H136254   2.437   2.511   2.330  0.2198  0.1943  0.7225
 4921TIP3    H236255   2.439   2.656   2.288  0.3552  0.0217  0.1136
 4922TIP3   OH236256   3.965   4.976  16.333 -0.2436 -0.1600 -0.2850
 4922TIP3    H136257   4.026   4.966  16.406 -0.6168 -1.0608 -0.0784
 4922TIP3    H236258   3.901   5.040  16.364 -1.5928 -2.0366  1.0395
 4923TIP3   OH236259   1.822   3.843   6.357  0.2108  0.6345  0.3077
 4923TIP3    H136260   1.891   3.781   6.382 -2.1244 -1.9136  0.9636
 4923TIP3    H236261   1.827   3.845   6.261  0.1856 -0.8271  0.2464
 4924TIP3   OH236262   0.418   1.722  14.383 -0.1156  0.3092 -0.3874
 4924TIP3    H136263   0.410   1.774  14.463 -1.2769 -0.4565  0.0103
 4924TIP3    H236264   0.343   1.749  14.329 -1.3755 -1.6396  0.2604
 4925TIP3   OH236265   5.978   5.947  14.550  0.3472  0.1685 -0.0139
 4925TIP3    H136266   5.940   6.033  14.530  0.1827  0.0692 -0.1224
 4925TIP3    H236267   5.903   5.888  14.557  0.4361  0.0989  0.3948
 4926TIP3   OH236268   2.401   2.850   6.246  0.0885 -0.0452 -0.6753
 4926TIP3    H136269   2.457   2.776   6.221 -0.4698 -1.2787  1.4622
 4926TIP3    H236270   2.446   2.891   6.320  0.0230  1.3208 -1.3695
 4927TIP3   OH236271   2.802   4.356   4.294 -0.2418 -0.2189 -0.0582
 4927TIP3    H136272   2.884   4.396   4.322 -0.8579  0.1988  1.2035
 4927TIP3    H236273   2.819   4.261   4.299  1.5375 -0.3180 -3.9845
 4928TIP3   OH236274   4.222   2.263   5.335  0.3088  0.3606  0.3382
 4928TIP3    H136275   4.168   2.222   5.401  0.2687  0.9324  0.6719
 4928TIP3    H236276   4.267   2.191   5.291 -0.3599 -0.0813  0.3769
 4929TIP3   OH236277   1.826   6.207  14.201 -0.4479 -0.0966 -0.1247
 4929TIP3    H136278   1.779   6.239  14.124 -2.3371 -0.5020  0.8115
 4929TIP3    H236279   1.759   6.197  14.268  0.8426 -1.5184  1.0294
 4930TIP3   OH236280   3.897   2.218  10.801 -0.2035 -0.0340 -0.3128
 4930TIP3    H136281   3.986   2.240  10.828 -1.0083  3.3533  0.0797
 4930TIP3    H236282   3.900   2.218  10.705  0.3044 -0.3839 -0.2959
 4931TIP3   OH236283   3.072   6.661  12.059 -0.3179  0.1442 -0.5317
 4931TIP3    H136284   3.106   6.606  11.989  1.2065  0.7208 -0.2780
 4931TIP3    H236285   3.095   6.614  12.140  2.1242  1.6276 -0.2415
 4932TIP3   OH236286   0.290   6.280  14.733 -0.0691  0.6395  0.7106
 4932TIP3    H136287   0.350   6.208  14.714 -0.4521  0.2021  1.1529
 4932TIP3    H236288   0.234   6.286  14.656 -0.7887 -0.2978  1.1365
 4933TIP3   OH236289   4.535   0.231  14.303 -0.2556 -1.3800 -0.1527
 4933TIP3    H136290   4.623   0.261  14.280 -0.3120 -2.4491 -1.8665
 4933TIP3    H236291   4.501   0.300  14.362  1.6807 -0.9383  0.5151
 4934TIP3   OH236292   3.888   1.183   1.292 -0.2761  0.1726 -0.2281
 4934TIP3    H136293   3.895   1.236   1.372  2.2970 -1.1061  0.4938
 4934TIP3    H236294   3.821   1.118   1.312  0.8027 -0.5483  1.2086
 4935TIP3   OH236295   0.759   3.257  12.796  0.0943  0.1486 -0.3890
 4935TIP3    H136296   0.694   3.299  12.739 -0.8543 -1.8050 -0.8170
 4935TIP3    H236297   0.831   3.235  12.737 -0.5619 -1.1891 -0.7204
 4936TIP3   OH236298   0.621   0.952   0.487 -0.4425  0.1721  0.2534
 4936TIP3    H136299   0.628   1.000   0.405 -1.7247 -0.8699 -0.5075
 4936TIP3    H236300   0.625   1.020   0.555 -0.7949  1.1952 -0.7191
 4937TIP3   OH236301   0.433   0.063   4.409  0.0510  0.2092  0.1425
 4937TIP3    H136302   0.483   0.082   4.330 -1.1307 -1.4051 -1.0622
 4937TIP3    H236303   0.341   0.072   4.381 -0.4005 -1.1314  1.1185
 4938TIP3   OH236304   6.575   1.731  15.954  1.1474  0.0107  0.7447
 4938TIP3    H136305   6.552   1.810  16.003 -2.9702 -0.1373 -0.4988
 4938TIP3    H236306   6.574   1.759  15.862 -2.5544 -1.6234  0.0937
 4939TIP3   OH236307   1.420   3.925  14.958 -0.1584 -0.6811  0.1047
 4939TIP3    H136308   1.458   3.908  14.872 -1.2080 -0.7898 -0.3551
 4939TIP3    H236309   1.341   3.975  14.940  0.5106  0.8475  1.1349
 4940TIP3   OH236310   2.376   3.137  14.166 -0.4029  0.5784  0.9174
 4940TIP3    H136311   2.395   3.175  14.080  0.1863  0.5264  1.0204
 4940TIP3    H236312   2.444   3.070  14.178 -0.3492  0.7343  1.5151
 4941TIP3   OH236313   1.083   1.739  16.963 -0.2105 -0.6795 -0.6582
 4941TIP3    H136314   1.003   1.749  16.912  0.7956 -0.0089 -2.2008
 4941TIP3    H236315   1.147   1.795  16.919  0.6133  0.3302  1.6885
 4942TIP3   OH236316   5.043   6.389   0.155  0.1939  0.0479 -0.1816
 4942TIP3    H136317   5.088   6.306   0.169 -0.0261  0.0743  0.7233
 4942TIP3    H236318   5.025   6.391   0.061 -1.3083 -1.7161  0.0165
 4943TIP3   OH236319   5.535   3.139  11.478 -0.3764 -0.1623  0.3772
 4943TIP3    H136320   5.619   3.185  11.472  0.2823 -1.0206  2.1950
 4943TIP3    H236321   5.475   3.204  11.516 -0.2638  0.1456  0.0277
 4944TIP3   OH236322   6.762   2.419   5.928 -0.6199 -0.2472  0.1446
 4944TIP3    H136323   6.763   2.418   6.024  0.5793  1.8865  0.2036
 4944TIP3    H236324   6.720   2.336   5.904 -1.1780 -0.7184  2.4988
 4945TIP3   OH236325   5.792   4.328  15.961 -0.3332 -0.2836 -0.2336
 4945TIP3    H136326   5.782   4.234  15.945  2.0009 -0.4656 -1.0408
 4945TIP3    H236327   5.758   4.370  15.882  2.0482 -0.7036 -1.5789
 4946TIP3   OH236328   3.111   4.766  12.861 -0.2392  0.1372  0.5893
 4946TIP3    H136329   3.065   4.847  12.885 -0.6773 -0.2635  1.1329
 4946TIP3    H236330   3.191   4.796  12.818 -0.1271  0.8800  1.2832
 4947TIP3   OH236331   3.865   2.141  14.711  0.0596  0.2720  0.1075
 4947TIP3    H136332   3.931   2.107  14.771  0.1091  0.8413  0.3822
 4947TIP3    H236333   3.782   2.126  14.757  0.0982  0.7177  0.3286
 4948TIP3   OH236334   0.684   1.032  16.926 -0.0375 -0.4339  0.3371
 4948TIP3    H136335   0.750   1.076  16.981  0.5316 -0.6377 -0.1764
 4948TIP3    H236336   0.606   1.030  16.981 -0.0037  0.9692  0.4978
 4949TIP3   OH236337   5.920   4.490  14.127 -0.4284 -0.1217  0.0164
 4949TIP3    H136338   5.902   4.537  14.046  0.0857  1.0544  0.5575
 4949TIP3    H236339   5.846   4.511  14.184 -0.6731 -0.7570 -0.0567
 4950TIP3   OH236340   1.944   2.022  13.783  0.6636 -0.0099  0.9472
 4950TIP3    H136341   2.022   1.980  13.820  1.7555  1.6421  0.6405
 4950TIP3    H236342   1.979   2.094  13.730 -0.9706 -0.8774 -1.4132
 4951TIP3   OH236343   0.127   3.458  16.468  0.2185 -0.0593 -0.5447
 4951TIP3    H136344   0.139   3.393  16.399  2.0636  1.0773 -1.3645
 4951TIP3    H236345   0.059   3.517  16.434  0.1913 -0.2534 -0.8240
 4952TIP3   OH236346   0.728   5.686  13.454 -0.1591  0.9466  0.1141
 4952TIP3    H136347   0.730   5.672  13.360 -0.0583  0.4700  0.1816
 4952TIP3    H236348   0.820   5.696  13.479  0.1576 -2.1018  0.5856
 4953TIP3   OH236349   5.170   3.265   1.941  0.1149  1.1830  0.5425
 4953TIP3    H136350   5.133   3.178   1.959 -1.4709  1.7350  0.1221
 4953TIP3    H236351   5.244   3.248   1.882  0.8133  0.0005  1.7183
 4954TIP3   OH236352   4.336   0.385   3.760 -0.3413  0.3115  0.8023
 4954TIP3    H136353   4.414   0.384   3.706 -0.1959  3.2599  0.8500
 4954TIP3    H236354   4.346   0.309   3.817  3.0474  1.1963  1.5819
 4955TIP3   OH236355   2.077   4.523   5.067  0.3699 -0.3341 -0.0970
 4955TIP3    H136356   2.123   4.468   5.131 -1.8211 -0.3379  1.5963
 4955TIP3    H236357   2.069   4.608   5.110 -1.2274 -0.3650 -0.2828
 4956TIP3   OH236358   3.455   0.593   4.553  0.0878  0.8544 -0.7204
 4956TIP3    H136359   3.383   0.651   4.526 -1.3114 -0.1587  0.6227
 4956TIP3    H236360   3.466   0.611   4.646 -0.8430 -1.4336 -0.0913
 4957TIP3   OH236361   2.922   6.451  13.138  0.2603  0.0352  0.2215
 4957TIP3    H136362   3.001   6.398  13.145 -0.7674 -1.4053  1.6915
 4957TIP3    H236363   2.906   6.459  13.044  1.3404 -0.8759 -0.0571
 4958TIP3   OH236364   4.270   2.074  12.276  0.0027  0.3750 -0.1661
 4958TIP3    H136365   4.188   2.096  12.319 -0.4807  0.3033 -1.0396
 4958TIP3    H236366   4.321   2.028  12.343 -0.3390  1.1137  0.6288
 4959TIP3   OH236367   6.672   1.291  14.819  0.0760 -0.4289 -0.0221
 4959TIP3    H136368   6.669   1.331  14.732  0.5836 -1.3570 -0.4827
 4959TIP3    H236369   6.725   1.212  14.807 -0.9951 -1.3140  0.8157
 4960TIP3   OH236370   4.724   6.347   4.990  0.5857 -0.3589  0.0762
 4960TIP3    H136371   4.747   6.434   4.958  1.7414 -0.4949  0.4830
 4960TIP3    H236372   4.646   6.360   5.042 -0.4998  0.0960 -1.5844
 4961TIP3   OH236373   4.858   6.015  11.134  0.4585  0.2572 -0.1311
 4961TIP3    H136374   4.909   5.940  11.168 -0.0180  0.0619  0.1617
 4961TIP3    H236375   4.902   6.039  11.052  1.5661  0.6646  0.5596
 4962TIP3   OH236376   1.619   1.205   5.377 -0.7155  0.1315  0.5827
 4962TIP3    H136377   1.539   1.158   5.354 -0.8045  0.4512  0.2416
 4962TIP3    H236378   1.594   1.257   5.453 -1.2802  1.4405 -0.4632
 4963TIP3   OH236379   5.405   1.928  14.948  0.1863 -0.0634  0.0584
 4963TIP3    H136380   5.379   1.867  15.017 -1.4844  0.6320  0.0967
 4963TIP3    H236381   5.324   1.944  14.899  1.1275  0.2060 -1.4787
 4964TIP3   OH236382   0.952   4.086   1.609  0.3000 -0.2292 -0.2055
 4964TIP3    H136383   1.045   4.094   1.585  0.6961  0.0216  1.2791
 4964TIP3    H236384   0.905   4.113   1.531  1.5073  1.1397 -0.5212
 4965TIP3   OH236385   4.419   2.269   1.135 -0.5869 -0.1444  0.1120
 4965TIP3    H136386   4.381   2.196   1.185 -0.4700 -0.4256 -0.2033
 4965TIP3    H236387   4.435   2.232   1.048  1.3865 -0.3520  0.5159
 4966TIP3   OH236388   1.100   3.230   2.288  0.0609 -0.0240 -0.3383
 4966TIP3    H136389   1.034   3.187   2.343 -0.8095 -1.1473 -2.1776
 4966TIP3    H236390   1.174   3.245   2.347 -1.1236 -0.4390  1.3247
 4967TIP3   OH236391   5.269   6.204   6.659 -0.1710  0.0785  0.4253
 4967TIP3    H136392   5.269   6.109   6.647 -3.1265  0.0178  0.3047
 4967TIP3    H236393   5.339   6.235   6.601  0.9679 -1.9871  0.5786
 4968TIP3   OH236394   5.372   4.018  16.637  0.0013 -0.3266  0.4881
 4968TIP3    H136395   5.418   4.074  16.699 -1.2458 -0.0567  1.2147
 4968TIP3    H236396   5.350   3.939  16.688 -0.9608 -0.1338  0.3975
 4969TIP3   OH236397   6.299   3.568   3.097  0.1813  0.3325  0.1420
 4969TIP3    H136398   6.224   3.628   3.105  0.7959  0.9468  1.7814
 4969TIP3    H236399   6.341   3.594   3.014 -0.8692  0.6056 -0.3272
 4970TIP3   OH236400   2.898   5.874  13.776 -0.4419 -0.4174 -0.1745
 4970TIP3    H136401   2.988   5.900  13.790 -0.9642  1.2127  0.3406
 4970TIP3    H236402   2.881   5.807  13.843  0.1278 -0.1342  0.2558
 4971TIP3   OH236403   5.774   6.056   5.337 -0.6455  0.6855  0.4748
 4971TIP3    H136404   5.730   6.114   5.276 -1.0982 -1.6310 -1.5554
 4971TIP3    H236405   5.859   6.097   5.353 -1.1920  2.1909 -0.3273
 4972TIP3   OH236406   4.892   0.061   5.172  0.4941  0.1632  1.0563
 4972TIP3    H136407   4.901  -0.034   5.165 -0.6491  0.1572 -1.2118
 4972TIP3    H236408   4.982   0.094   5.170  0.8639 -0.8289  0.6403
 4973TIP3   OH236409   6.062   6.247  14.302  0.1200  0.4562  0.1969
 4973TIP3    H136410   5.994   6.286  14.247 -0.7477  0.5237  1.2628
 4973TIP3    H236411   6.116   6.196  14.242 -1.0081  0.2137 -0.6538
 4974TIP3   OH236412   4.466   0.583  13.475  0.4498  0.2503 -0.8973
 4974TIP3    H136413   4.437   0.505  13.429 -2.4796  0.5871  0.1935
 4974TIP3    H236414   4.453   0.655  13.414  1.0468  0.1688 -1.1296
 4975TIP3   OH236415   3.772   5.246  16.618 -0.5783 -0.6773 -0.2694
 4975TIP3    H136416   3.854   5.198  16.626 -0.7503 -0.7486  1.6198
 4975TIP3    H236417   3.737   5.221  16.533  0.6857 -1.7205 -0.5085
 4976TIP3   OH236418   2.513   1.155   5.698 -0.2134 -0.3145  0.0298
 4976TIP3    H136419   2.501   1.073   5.651 -0.3777  1.0580 -2.5363
 4976TIP3    H236420   2.597   1.146   5.742  1.1409 -0.9036 -2.4958
 4977TIP3   OH236421   2.827   6.023  15.806  0.0230 -0.5310 -0.2801
 4977TIP3    H136422   2.909   6.000  15.848  0.1519  0.3137 -0.0463
 4977TIP3    H236423   2.761   5.970  15.851 -0.1646  1.7968  2.5155
 4978TIP3   OH236424   2.442   0.846   1.590  0.5512 -0.2073  0.1092
 4978TIP3    H136425   2.530   0.884   1.589  1.1285 -1.4615 -0.3404
 4978TIP3    H236426   2.405   0.867   1.504  0.2980  0.5716  0.4095
 4979TIP3   OH236427   2.875   1.414   2.324  0.9562 -0.0878 -0.1499
 4979TIP3    H136428   2.870   1.463   2.406  0.9789  0.1579 -0.2970
 4979TIP3    H236429   2.932   1.339   2.344  1.3945  0.2616 -0.0913
 4980TIP3   OH236430   3.409   2.917   4.054 -0.4232 -0.6476 -0.1894
 4980TIP3    H136431   3.455   2.838   4.027  1.4900 -0.6562  2.6420
 4980TIP3    H236432   3.317   2.900   4.033  0.0259 -3.2653 -0.4037
 4981TIP3   OH236433   3.407   0.917  13.941 -0.1388 -0.8143 -0.2856
 4981TIP3    H136434   3.327   0.877  13.976  0.1563 -1.5446 -0.4239
 4981TIP3    H236435   3.455   0.844  13.902  0.2653 -0.2654 -0.8417
 4982TIP3   OH236436   0.134   6.563   5.715 -0.3552  0.0434 -0.1803
 4982TIP3    H136437   0.130   6.472   5.745  0.9671 -0.1484 -0.5230
 4982TIP3    H236438   0.175   6.610   5.788  0.3413  0.0769 -0.5845
 4983TIP3   OH236439   2.953   2.596  16.947  0.2972  0.1549 -0.6203
 4983TIP3    H136440   2.897   2.521  16.924  0.1021  0.2729 -0.5281
 4983TIP3    H236441   3.023   2.557  16.999 -1.7186  0.4589  2.6250
 4984TIP3   OH236442   1.801   5.549   0.490 -0.3580  1.0878  0.5818
 4984TIP3    H136443   1.813   5.546   0.585  0.5995  0.8209  0.4656
 4984TIP3    H236444   1.820   5.640   0.467  3.3906  0.3852  0.2164
 4985TIP3   OH236445   6.376   4.770   6.089  0.0839 -0.1775 -0.1964
 4985TIP3    H136446   6.394   4.749   6.180 -0.6784  1.3254  0.3275
 4985TIP3    H236447   6.463   4.779   6.049  0.4710  1.0410  0.8587
 4986TIP3   OH236448   1.138   3.531  13.554 -0.5990 -0.6186 -0.4859
 4986TIP3    H136449   1.123   3.446  13.512 -0.7060 -0.7174 -0.2547
 4986TIP3    H236450   1.151   3.592  13.482 -3.3675 -0.2631 -0.8105
 4987TIP3   OH236451   4.714   6.233  16.830 -0.0692  0.2095  0.1635
 4987TIP3    H136452   4.708   6.319  16.870  1.4049 -0.3598  1.7137
 4987TIP3    H236453   4.682   6.173  16.898  0.9081 -0.6292 -0.0888
 4988TIP3   OH236454   0.281   0.060  12.873 -0.0520 -0.2630  0.1511
 4988TIP3    H136455   0.300   0.045  12.780  1.7755  0.4853  0.3575
 4988TIP3    H236456   0.265  -0.027  12.908 -1.3341 -0.5160 -0.9457
 4989TIP3   OH236457   0.360   2.483   4.686  0.4682 -0.0963 -0.2827
 4989TIP3    H136458   0.274   2.441   4.699  1.6166 -2.3884  0.5230
 4989TIP3    H236459   0.375   2.531   4.768 -0.2797  0.8421 -0.6738
 4990TIP3   OH236460   1.374   3.361   5.662 -0.1986  0.1132 -0.0752
 4990TIP3    H136461   1.320   3.282   5.667 -1.2060  0.8565  2.3828
 4990TIP3    H236462   1.454   3.338   5.709  0.5116 -0.1309 -1.3657
 4991TIP3   OH236463   0.417   4.790   4.325 -0.3797  0.4403  0.2747
 4991TIP3    H136464   0.440   4.725   4.259 -0.3911  0.6160  0.0965
 4991TIP3    H236465   0.500   4.808   4.371 -0.3277  0.4775  0.1664
 4992TIP3   OH236466   5.882   4.540   5.638 -0.2229  0.3921  0.4489
 4992TIP3    H136467   5.896   4.468   5.699 -1.0816 -0.1012  0.0782
 4992TIP3    H236468   5.967   4.583   5.632  0.2776 -0.5303  0.7500
 4993TIP3   OH236469   2.582   2.170  15.891 -0.9635 -0.1162 -0.0246
 4993TIP3    H136470   2.617   2.083  15.871  2.3637  1.2237 -0.8533
 4993TIP3    H236471   2.607   2.185  15.982 -0.6416  0.3196 -0.1812
 4994TIP3   OH236472   3.338   2.132  13.394 -0.7561  0.2944  0.4518
 4994TIP3    H136473   3.285   2.182  13.332 -0.2923 -0.2643 -0.4145
 4994TIP3    H236474   3.427   2.165  13.382 -0.3127 -1.2162 -0.6618
 4995TIP3   OH236475   6.735   0.086  12.750 -0.2584  0.0785 -0.2276
 4995TIP3    H136476   6.783   0.149  12.804 -0.8073 -1.3045  2.0249
 4995TIP3    H236477   6.677   0.042  12.812 -1.2589 -1.3268 -2.0825
 4996TIP3   OH236478   2.920   5.848   3.985  0.1106 -0.4017  0.0506
 4996TIP3    H136479   2.962   5.823   3.903  0.3340  1.9596 -0.6272
 4996TIP3    H236480   2.839   5.796   3.988 -0.0779 -0.2759 -1.8336
 4997TIP3   OH236481   2.301   3.186  16.909 -0.7076 -0.3085 -0.0311
 4997TIP3    H136482   2.335   3.275  16.895 -0.0566 -0.6786 -0.8364
 4997TIP3    H236483   2.248   3.168  16.831  1.4477 -1.6761 -1.2962
 4998TIP3   OH236484   0.301   1.808  12.848 -0.0917  0.0519 -0.1375
 4998TIP3    H136485   0.279   1.794  12.940 -1.0993  1.1603 -0.1888
 4998TIP3    H236486   0.328   1.899  12.843 -0.7271  0.2111 -1.0508
 4999TIP3   OH236487   3.373   0.193   2.752  0.1762  0.9327 -0.2371
 4999TIP3    H136488   3.383   0.265   2.813  0.1097  1.1030 -0.4263
 4999TIP3    H236489   3.369   0.234   2.666 -0.0213  0.7183 -0.3343
 5000TIP3   OH236490   3.280   3.172   0.413 -0.2170  0.2079 -0.4719
 5000TIP3    H136491   3.206   3.173   0.473 -0.4134  0.7820 -0.7139
 5000TIP3    H236492   3.357   3.173   0.470 -0.3990  0.0475 -0.2225
 5001TIP3   OH236493   3.057   6.550   0.284  0.3959 -0.0551  0.3733
 5001TIP3    H136494   2.989   6.535   0.219  0.5120 -1.3402  0.5247
 5001TIP3    H236495   3.135   6.509   0.246  0.7512  0.2168  0.8040
 5002TIP3   OH236496   3.543   1.043   0.377  0.5059 -0.0486 -0.0541
 5002TIP3    H136497   3.555   1.127   0.421 -0.7362  0.0176  0.2058
 5002TIP3    H236498   3.459   1.051   0.332 -0.3906 -1.6543  1.2157
 5003TIP3   OH236499   4.955   5.745   0.790 -0.3915 -0.2626  0.0998
 5003TIP3    H136500   4.923   5.778   0.875 -2.5932  0.6253 -0.9919
 5003TIP3    H236501   4.936   5.651   0.792  0.1560 -0.3688  0.8115
 5004TIP3   OH236502   3.720   4.962  16.593  0.4278 -0.0562 -0.0336
 5004TIP3    H136503   3.651   4.998  16.649  0.2335 -0.0609 -0.2693
 5004TIP3    H236504   3.710   5.008  16.509  0.5131 -0.2758 -0.1661
 5005TIP3   OH236505   4.528   1.476  13.744 -0.1265 -0.1434 -0.5502
 5005TIP3    H136506   4.440   1.502  13.717 -0.0692  0.1262 -0.4832
 5005TIP3    H236507   4.581   1.488  13.665  0.2398  1.6090 -0.0745
 5006TIP3   OH236508   4.913   1.911   3.774 -0.3153 -0.0336 -0.0800
 5006TIP3    H136509   4.958   1.974   3.719  0.9291 -1.2761 -0.5484
 5006TIP3    H236510   4.882   1.962   3.849  1.0054  1.0587 -0.2395
 5007TIP3   OH236511   2.306   6.619  11.722 -0.0732 -0.0703 -0.4101
 5007TIP3    H136512   2.320   6.524  11.719  2.8257  0.1957  1.2177
 5007TIP3    H236513   2.309   6.641  11.816 -0.7042  1.6676 -0.7489
 5008TIP3   OH236514   5.453   4.914   1.608  0.2057 -0.8280 -0.3342
 5008TIP3    H136515   5.541   4.951   1.622  0.9293 -2.1903 -1.0621
 5008TIP3    H236516   5.442   4.914   1.513 -0.2964 -1.3025 -0.2808
 5009TIP3   OH236517   2.324   1.331  13.615  0.0652  0.5444 -0.2715
 5009TIP3    H136518   2.271   1.383  13.554 -1.4648 -1.1672 -0.4879
 5009TIP3    H236519   2.280   1.246  13.619  1.4636 -0.1671  1.4353
 5010TIP3   OH236520   0.274   4.614  13.360 -0.1694  0.3888 -0.4549
 5010TIP3    H136521   0.286   4.709  13.359  0.3436  0.3861  1.4008
 5010TIP3    H236522   0.218   4.598  13.436  1.2345 -0.9226  0.3640
 5011TIP3   OH236523   4.721   5.884   1.592  0.2146  0.5561  0.2243
 5011TIP3    H136524   4.730   5.875   1.687  6.4883  1.3097  0.1121
 5011TIP3    H236525   4.702   5.795   1.562 -1.7028  0.2657  2.0572
 5012TIP3   OH236526   1.113   1.461  13.019  0.1545  0.7139  0.1637
 5012TIP3    H136527   1.189   1.417  13.057 -0.0617 -0.3290 -0.5802
 5012TIP3    H236528   1.074   1.510  13.092  1.1627  0.7369  0.6901
 5013TIP3   OH236529   3.663   6.798   3.298  0.5794 -0.1613 -0.4126
 5013TIP3    H136530   3.736   6.763   3.246 -0.8981 -1.8702 -1.4771
 5013TIP3    H236531   3.597   6.820   3.233  0.0290  1.1299  0.5503
 5014TIP3   OH236532   5.125   2.317  17.049 -0.4744  0.1313 -0.4978
 5014TIP3    H136533   5.147   2.399  17.004 -3.2425  0.9115 -0.6217
 5014TIP3    H236534   5.105   2.344  17.139  0.0389 -0.6475 -0.1437
 5015TIP3   OH236535   3.171   6.389  14.687 -0.1591  0.3177 -0.0054
 5015TIP3    H136536   3.167   6.295  14.708 -1.0891  0.1831 -0.6887
 5015TIP3    H236537   3.097   6.427  14.734  0.4954  0.8054  0.6520
 5016TIP3   OH236538   5.023   4.297  15.477 -0.5449 -0.6105 -0.6486
 5016TIP3    H136539   4.937   4.320  15.443 -0.8718 -0.7969  0.0307
 5016TIP3    H236540   5.067   4.381  15.492  0.2395 -0.5258 -3.0383
 5017TIP3   OH236541   2.087   2.237   6.499  0.5602  0.2064 -0.0877
 5017TIP3    H136542   2.160   2.189   6.460 -0.2873 -0.8714 -0.3796
 5017TIP3    H236543   2.018   2.234   6.433  0.3767  1.5851  0.0164
 5018TIP3   OH236544   4.970   6.660  16.840 -0.6971 -0.3287 -0.1737
 5018TIP3    H136545   4.908   6.588  16.831  1.5074 -2.4195  0.2644
 5018TIP3    H236546   4.979   6.673  16.934 -0.8563  0.3374 -0.2467
 5019TIP3   OH236547   1.504   3.462   0.287  0.5052 -0.8173  0.3215
 5019TIP3    H136548   1.555   3.472   0.367  1.9424  0.7411 -0.7128
 5019TIP3    H236549   1.511   3.369   0.266 -0.0123 -1.2849  2.0307
 5020TIP3   OH236550   3.477   3.726   1.528  0.3880 -0.2804 -0.3457
 5020TIP3    H136551   3.426   3.749   1.450 -0.0819 -1.5650 -0.4358
 5020TIP3    H236552   3.522   3.645   1.505 -0.4499 -1.1761  0.9958
 5021TIP3   OH236553   3.786   6.324   0.223 -0.3394 -0.9374 -0.5870
 5021TIP3    H136554   3.716   6.381   0.193 -1.7583 -2.2603  0.0632
 5021TIP3    H236555   3.761   6.301   0.313 -0.5413 -3.6240 -1.2707
 5022TIP3   OH236556   5.984   5.838  15.964 -0.3153  0.1850 -0.1085
 5022TIP3    H136557   6.013   5.903  16.028 -0.7674 -0.8244  1.1637
 5022TIP3    H236558   5.889   5.838  15.970 -0.3228 -0.7003  0.0470
 5023TIP3   OH236559   4.039   6.195  12.722 -0.4616  0.4908 -0.1140
 5023TIP3    H136560   4.053   6.256  12.794  3.1180  1.4919 -1.4316
 5023TIP3    H236561   3.998   6.248  12.654 -0.7609  0.4229  0.0111
 5024TIP3   OH236562   2.252   6.550  11.344 -0.1627 -0.0971 -0.2028
 5024TIP3    H136563   2.207   6.529  11.263 -0.7616  1.1619 -0.2242
 5024TIP3    H236564   2.328   6.492  11.345  0.0775  0.1326 -1.8630
 5025TIP3   OH236565   1.084   4.289  14.398  0.1752 -0.3024 -0.2952
 5025TIP3    H136566   1.071   4.363  14.458 -0.0033 -0.9232  0.4546
 5025TIP3    H236567   1.169   4.306  14.357 -2.2852  3.4832 -4.7636
 5026TIP3   OH236568   6.547   6.097   0.799  0.5130 -0.2574  0.1528
 5026TIP3    H136569   6.494   6.178   0.800  1.4122  0.3399  1.1230
 5026TIP3    H236570   6.616   6.113   0.863  0.7750 -1.7706  0.2750
 5027TIP3   OH236571   0.288   6.616  14.373  0.0765 -0.7705  0.3113
 5027TIP3    H136572   0.237   6.621  14.293  0.2021  0.3950  0.2898
 5027TIP3    H236573   0.230   6.572  14.435 -0.5941 -0.3358  0.0060
 5028TIP3   OH236574   6.221   5.962   0.773  0.1610 -0.3594  0.0568
 5028TIP3    H136575   6.216   5.884   0.717 -0.6110 -0.5410  0.3582
 5028TIP3    H236576   6.277   5.936   0.846 -0.5845 -0.8490  0.4697
 5029TIP3   OH236577   3.494   0.897  12.663 -0.0780  0.6809  0.1126
 5029TIP3    H136578   3.475   0.835  12.733 -0.0840  0.5706  0.0137
 5029TIP3    H236579   3.531   0.974  12.707  1.4527 -0.0076  0.1019
 5030TIP3   OH236580   5.415   0.957  16.958  0.2099  0.8142 -0.9401
 5030TIP3    H136581   5.357   1.028  16.982  0.2032  0.4413  0.2090
 5030TIP3    H236582   5.498   0.999  16.937  0.6547  1.1094  1.1468
 5031TIP3   OH236583   2.535   4.047  12.811  0.8117  0.6915  0.4573
 5031TIP3    H136584   2.488   4.122  12.848 -1.0766 -0.0887 -0.2315
 5031TIP3    H236585   2.500   3.971  12.858 -0.5439 -0.1681 -1.7943
 5032TIP3   OH236586   0.530   4.980  13.507 -0.2411  0.2585  0.0091
 5032TIP3    H136587   0.460   5.026  13.555 -2.0165  1.1203 -3.0906
 5032TIP3    H236588   0.485   4.912  13.458  1.0186  0.8251 -2.0902
 5033TIP3   OH236589   5.358   1.753   1.696  0.6639  0.4991 -0.1540
 5033TIP3    H136590   5.301   1.816   1.741  1.1274  1.6760 -1.1756
 5033TIP3    H236591   5.308   1.671   1.698 -0.2741  1.0625  0.5644
 5034TIP3   OH236592   5.046   2.206   1.068  0.0146 -0.5521 -0.3276
 5034TIP3    H136593   5.057   2.178   1.159  1.6840 -0.7209 -0.5525
 5034TIP3    H236594   5.127   2.254   1.048 -0.9799  0.8102 -1.2585
 5035TIP3   OH236595   3.564   2.055   4.023  0.2995 -0.3119  0.0168
 5035TIP3    H136596   3.643   2.002   4.029 -0.2066 -1.0942 -0.1048
 5035TIP3    H236597   3.493   1.991   4.020 -0.2125  0.2889 -2.3924
 5036TIP3   OH236598   6.571   3.010  14.024 -0.2181 -0.5658  0.6208
 5036TIP3    H136599   6.505   3.041  13.961 -0.0732 -0.1482  0.6717
 5036TIP3    H236600   6.649   2.996  13.971 -0.2959 -0.8950  0.5904
 5037TIP3   OH236601   5.831   5.496   4.959 -0.0995 -0.3048  0.2453
 5037TIP3    H136602   5.867   5.565   5.016  0.0687  0.4969 -0.8009
 5037TIP3    H236603   5.743   5.480   4.993 -0.0086  0.1772  0.7169
 5038TIP3   OH236604   1.591   4.404   2.277 -0.4296  0.0188  0.4849
 5038TIP3    H136605   1.543   4.383   2.357 -0.8322 -0.2987  0.1674
 5038TIP3    H236606   1.524   4.416   2.210 -0.0867 -0.0824  0.1119
 5039TIP3   OH236607   1.342   0.528   0.384  0.3790  0.8147 -0.8965
 5039TIP3    H136608   1.355   0.619   0.408 -0.6641  0.6994  0.2519
 5039TIP3    H236609   1.288   0.492   0.455 -0.1528 -0.4083 -1.8733
 5040TIP3   OH236610   3.364   4.469  11.029  0.0678  0.4835 -0.3035
 5040TIP3    H136611   3.287   4.429  11.069 -1.1347  0.6995 -2.2649
 5040TIP3    H236612   3.342   4.562  11.021  0.3317  0.4769 -1.2534
 5041TIP3   OH236613   6.074   3.786  15.701 -0.2756  0.1746 -0.1958
 5041TIP3    H136614   6.047   3.764  15.611 -1.1399 -0.6271  0.2496
 5041TIP3    H236615   6.051   3.878  15.710 -0.0880  0.2925 -0.8248
 5042TIP3   OH236616   1.063   0.055   0.132  0.2693  0.5862  0.7921
 5042TIP3    H136617   1.106  -0.030   0.145 -1.2026 -0.7763 -2.1770
 5042TIP3    H236618   1.098   0.087   0.049 -1.1239  1.5885  0.5575
 5043TIP3   OH236619   3.247   3.690  11.248  0.2123  0.0547 -0.2396
 5043TIP3    H136620   3.156   3.660  11.256 -0.3485  1.8477  0.6490
 5043TIP3    H236621   3.294   3.643  11.317 -0.6291  1.0462  1.0725
 5044TIP3   OH236622   1.124   5.273   0.225  0.1531  0.5489 -0.2198
 5044TIP3    H136623   1.176   5.353   0.217 -0.3270  1.1460  2.0271
 5044TIP3    H236624   1.059   5.280   0.156  1.3736  1.0654 -1.3765
 5045TIP3   OH236625   5.326   0.663  12.038 -0.3705  0.1879 -0.4967
 5045TIP3    H136626   5.385   0.735  12.063 -1.5571  0.7871  0.6698
 5045TIP3    H236627   5.378   0.584  12.051  0.2004  0.7018  0.4950
 5046TIP3   OH236628   1.167   4.646  13.178 -0.8060 -0.3328 -0.7686
 5046TIP3    H136629   1.165   4.739  13.204  2.8953 -0.0778 -0.8564
 5046TIP3    H236630   1.150   4.599  13.260  0.0329  0.4701 -0.0974
 5047TIP3   OH236631   4.876   3.019   0.777 -0.2243  0.9910 -0.0222
 5047TIP3    H136632   4.927   2.943   0.806 -2.8340 -0.9446 -0.1826
 5047TIP3    H236633   4.919   3.094   0.819  1.7135 -0.6734  1.1548
 5048TIP3   OH236634   2.181   6.662   3.120  0.2914  0.1090  0.5428
 5048TIP3    H136635   2.143   6.678   3.206 -0.5791 -1.6476  0.5354
 5048TIP3    H236636   2.141   6.580   3.092  0.1270  0.9287 -1.7917
 5049TIP3   OH236637   2.409   1.291   4.390 -0.0371 -0.1118 -0.0012
 5049TIP3    H136638   2.443   1.377   4.412 -0.0316  0.1127 -0.8772
 5049TIP3    H236639   2.444   1.233   4.458  1.4521  0.2476 -0.4349
 5050TIP3   OH236640   5.728   5.726  17.030 -0.7510  0.0298  0.1205
 5050TIP3    H136641   5.743   5.672  17.107 -1.7143 -1.2483 -0.5363
 5050TIP3    H236642   5.641   5.700  16.999 -0.6807  1.0123 -0.9872
 5051TIP3   OH236643   3.765   5.641   6.830  0.3665 -0.4091  0.4740
 5051TIP3    H136644   3.802   5.646   6.742 -3.9827  1.3191 -1.5544
 5051TIP3    H236645   3.813   5.708   6.880  0.7685  0.9093 -1.5671
 5052TIP3   OH236646   0.639   1.030  11.814 -0.8145  0.4538  0.3923
 5052TIP3    H136647   0.725   0.989  11.823 -0.0957  2.0438  1.3196
 5052TIP3    H236648   0.580   0.975  11.866  0.0648  0.4576  1.4216
 5053TIP3   OH236649   3.689   2.285  11.044 -0.5542 -0.3763 -0.0466
 5053TIP3    H136650   3.669   2.210  10.986 -2.1736  0.4833 -0.6757
 5053TIP3    H236651   3.629   2.354  11.015 -0.3553  0.5866  1.7068
 5054TIP3   OH236652   3.283   0.305   6.105 -0.0939 -0.1750 -0.6045
 5054TIP3    H136653   3.213   0.262   6.057 -1.1961  0.6611  0.2205
 5054TIP3    H236654   3.262   0.398   6.103  1.1546  0.1367 -0.5880
 5055TIP3   OH236655   0.759   1.890   4.480  0.3149  0.5181  0.2130
 5055TIP3    H136656   0.748   1.885   4.385 -0.3764  1.1723  0.2491
 5055TIP3    H236657   0.672   1.876   4.515  0.7366 -0.7363  0.8149
 5056TIP3   OH236658   4.688   4.811   5.364 -0.2346  0.0297  0.1403
 5056TIP3    H136659   4.762   4.869   5.351 -0.4287  0.0704 -0.8657
 5056TIP3    H236660   4.680   4.763   5.282 -1.3808  0.0915  0.1958
 5057TIP3   OH236661   6.656   0.650  13.112  0.2148  0.7673 -0.0567
 5057TIP3    H136662   6.715   0.710  13.157 -1.0896  1.5658  0.6365
 5057TIP3    H236663   6.579   0.702  13.091 -0.8230 -0.5720  0.2697
 5058TIP3   OH236664   1.859   4.471  11.134  0.8463 -0.5687 -0.9208
 5058TIP3    H136665   1.888   4.508  11.217 -0.6247 -3.0126  0.7949
 5058TIP3    H236666   1.916   4.397  11.118  0.2768 -0.9215 -1.3880
 5059TIP3   OH236667   0.102   3.535  12.791  0.2376 -0.0317 -0.2101
 5059TIP3    H136668   0.041   3.464  12.770  0.5654  0.2945 -2.4795
 5059TIP3    H236669   0.155   3.501  12.863 -0.7960 -1.3799 -0.0529
 5060TIP3   OH236670   1.902   5.710   5.114 -0.6699 -0.1820  0.4218
 5060TIP3    H136671   1.956   5.634   5.092  0.5627  0.5228  0.8937
 5060TIP3    H236672   1.907   5.717   5.210 -0.0414  0.9896  0.3240
 5061TIP3   OH236673   4.119   2.015  16.311 -0.2026 -1.1228  0.2860
 5061TIP3    H136674   4.206   2.012  16.271  0.5704 -1.4718  1.8951
 5061TIP3    H236675   4.074   2.085  16.265 -0.1583 -2.8338 -2.6226
 5062TIP3   OH236676   3.317   2.666  15.231 -0.1701 -0.3078  0.1878
 5062TIP3    H136677   3.303   2.589  15.177  0.3568 -1.1630  1.2376
 5062TIP3    H236678   3.354   2.731  15.171  0.1439 -1.1418 -0.5418
 5063TIP3   OH236679   0.967   6.406  12.951 -0.1220  0.6443 -0.2065
 5063TIP3    H136680   1.031   6.389  13.020  1.1393  2.8625 -0.7368
 5063TIP3    H236681   1.003   6.364  12.873  0.6925  1.7990 -0.4790
 5064TIP3   OH236682   2.486   5.449   0.018  0.1980 -0.1051  0.0076
 5064TIP3    H136683   2.547   5.472  -0.052 -0.2749 -0.8189 -0.6552
 5064TIP3    H236684   2.500   5.356   0.034  0.5293  0.1152  1.1079
 5065TIP3   OH236685   2.666   0.718   4.506 -0.1347 -0.0522  0.4736
 5065TIP3    H136686   2.602   0.745   4.572  0.1606  1.2357  0.2572
 5065TIP3    H236687   2.637   0.759   4.425  2.3843  2.9087  0.8974
 5066TIP3   OH236688   3.751   5.453   0.064  0.7712 -0.5855  0.0242
 5066TIP3    H136689   3.817   5.489   0.123  2.3321 -2.1378 -0.7042
 5066TIP3    H236690   3.764   5.500  -0.018  0.2674 -0.1982  0.1555
 5067TIP3   OH236691   3.375   1.717  15.919  0.0654  0.3537 -0.0263
 5067TIP3    H136692   3.411   1.799  15.954  0.6006 -1.0645  3.0583
 5067TIP3    H236693   3.299   1.700  15.975  0.6844 -1.8487  0.2094
 5068TIP3   OH236694   5.479   0.051  16.389  0.2721 -0.0468 -0.3878
 5068TIP3    H136695   5.509   0.128  16.437  1.5460 -1.6759  1.6060
 5068TIP3    H236696   5.430  -0.000  16.453 -0.3148 -1.0411 -1.5841
 5069TIP3   OH236697   2.974   5.884  15.268 -0.2621 -0.2001  0.4387
 5069TIP3    H136698   3.015   5.954  15.318  2.0156 -0.0164 -1.4941
 5069TIP3    H236699   3.017   5.804  15.298 -0.5059 -0.3711  0.3377
 5070TIP3   OH236700   2.775   3.159  16.152 -0.0242  0.6643  0.3448
 5070TIP3    H136701   2.803   3.226  16.215  2.5252  0.1595 -0.1174
 5070TIP3    H236702   2.756   3.082  16.206  0.2190  0.8212  0.6593
 5071TIP3   OH236703   6.109   0.366  11.360 -0.5830 -0.0829  0.4303
 5071TIP3    H136704   6.042   0.298  11.369 -0.4820 -0.6146 -2.0566
 5071TIP3    H236705   6.189   0.318  11.338 -0.7173  0.8029 -2.3445
 5072TIP3   OH236706   0.256   4.263   4.807  0.3114  0.2330  0.1035
 5072TIP3    H136707   0.224   4.197   4.868 -0.4917  0.5333  0.0166
 5072TIP3    H236708   0.239   4.346   4.851  2.0468  0.3904  0.5702
 5073TIP3   OH236709   3.599   3.808   4.104  0.7217  0.1283  0.1334
 5073TIP3    H136710   3.569   3.889   4.145 -0.1218 -1.1085  2.1751
 5073TIP3    H236711   3.585   3.821   4.011 -0.3014  1.9707  0.4909
 5074TIP3   OH236712   2.966   1.721   2.432 -0.1005  0.5826 -0.2996
 5074TIP3    H136713   2.970   1.722   2.337  1.8915 -0.2335 -0.2728
 5074TIP3    H236714   3.012   1.800   2.459 -0.0945  0.4787  0.0013
 5075TIP3   OH236715   3.048   6.761   1.163 -0.1510  0.4659  0.3699
 5075TIP3    H136716   2.974   6.720   1.118  0.2621  1.4964 -1.3682
 5075TIP3    H236717   3.115   6.693   1.167  0.0334  0.5132 -1.2241
 5076TIP3   OH236718   4.673   0.281   0.205 -0.0104 -0.5220 -0.2702
 5076TIP3    H136719   4.650   0.358   0.154  0.6611 -0.3455 -0.3025
 5076TIP3    H236720   4.761   0.298   0.238 -0.5942 -0.4249  1.3457
 5077TIP3   OH236721   0.290   4.748   2.535  0.0903 -0.7394  0.1835
 5077TIP3    H136722   0.333   4.664   2.522  0.2684 -0.6197 -0.0070
 5077TIP3    H236723   0.353   4.813   2.504 -0.1250 -0.5475  0.1399
 5078TIP3   OH236724   1.417   5.093  11.948 -0.5360 -0.5128 -0.4245
 5078TIP3    H136725   1.373   5.114  12.031 -0.1584  0.6642 -0.4966
 5078TIP3    H236726   1.371   5.146  11.883  2.0619  2.2351 -0.2305
 5079TIP3   OH236727   4.054   1.595  15.918  0.0444  0.2015 -0.1883
 5079TIP3    H136728   4.078   1.667  15.977 -3.3469  2.1875 -0.9966
 5079TIP3    H236729   4.033   1.522  15.977  1.6504  0.4407  0.7427
 5080TIP3   OH236730   1.398   2.839   6.238 -0.1604  0.0565 -0.0642
 5080TIP3    H136731   1.460   2.833   6.166 -0.3722 -0.6437 -0.2034
 5080TIP3    H236732   1.312   2.846   6.195 -0.3959 -1.4911  0.0759
 5081TIP3   OH236733   0.152   0.177   2.405  0.1595  0.0562 -0.2718
 5081TIP3    H136734   0.173   0.213   2.491 -0.6467 -0.4778  0.1592
 5081TIP3    H236735   0.235   0.178   2.357  1.0543 -1.3807  1.1506
 5082TIP3   OH236736   4.270   1.963  12.810 -0.3295 -0.1221  0.5030
 5082TIP3    H136737   4.345   1.932  12.860 -0.6542  0.4840  1.3859
 5082TIP3    H236738   4.303   2.040  12.763  0.0885 -0.9355 -0.5655
 5083TIP3   OH236739   4.976   2.649  14.108  0.4152  0.4036 -0.5124
 5083TIP3    H136740   4.996   2.558  14.087 -0.5363 -0.0183  0.3274
 5083TIP3    H236741   4.945   2.646  14.198 -0.1582  1.4879 -0.6608
 5084TIP3   OH236742   1.197   4.825  16.621 -0.7325 -0.3995  0.2256
 5084TIP3    H136743   1.171   4.856  16.708 -2.5392 -1.7455  0.2311
 5084TIP3    H236744   1.291   4.840  16.617 -0.5521 -0.6019  2.5345
 5085TIP3   OH236745   6.643   5.882   4.437 -0.0644 -0.0116 -0.2956
 5085TIP3    H136746   6.632   5.808   4.497 -1.7030 -0.2498 -0.8360
 5085TIP3    H236747   6.680   5.952   4.492  0.7038 -0.9673  0.4185
 5086TIP3   OH236748   4.016   2.856   0.518  0.8049  0.8830  0.1763
 5086TIP3    H136749   3.981   2.788   0.576 -2.4684  2.5615  0.4205
 5086TIP3    H236750   3.953   2.861   0.446  1.8601  2.5246 -0.6937
 5087TIP3   OH236751   1.703   0.427  11.043 -0.0586  0.0305 -0.1010
 5087TIP3    H136752   1.720   0.497  10.980  0.2440  0.9031  0.9258
 5087TIP3    H236753   1.771   0.362  11.027 -0.0131  0.2267 -0.7005
 5088TIP3   OH236754   5.271   1.311  12.601  0.3314  0.0903 -0.2056
 5088TIP3    H136755   5.277   1.390  12.654 -1.5276  1.6391 -2.1331
 5088TIP3    H236756   5.300   1.338  12.514  0.5655 -1.6297 -0.7036
 5089TIP3   OH236757   0.603   2.939   3.410 -0.1191 -0.5550 -0.0745
 5089TIP3    H136758   0.677   2.999   3.395 -1.7082  1.2196 -1.2348
 5089TIP3    H236759   0.562   2.930   3.325 -2.1523 -0.2372  0.8162
 5090TIP3   OH236760   3.192   1.208  17.003  0.3077 -0.2522  0.0818
 5090TIP3    H136761   3.167   1.299  16.988 -0.8972 -0.6999 -0.6867
 5090TIP3    H236762   3.111   1.158  16.996  0.8102 -1.3172  1.2764
 5091TIP3   OH236763   5.678   0.152   2.943 -0.6875  0.4833 -0.0272
 5091TIP3    H136764   5.710   0.209   2.873  0.6179  0.4866  0.5339
 5091TIP3    H236765   5.687   0.063   2.908 -0.4679  0.5113 -0.0476
 5092TIP3   OH236766   6.695   3.410  11.788 -0.4066 -0.1046 -0.2857
 5092TIP3    H136767   6.660   3.341  11.731 -1.2491  1.8786 -2.3144
 5092TIP3    H236768   6.740   3.470  11.728  0.4338  1.0474  1.4223
 5093TIP3   OH236769   4.396   5.431   5.889 -0.1712  0.0098  0.1457
 5093TIP3    H136770   4.300   5.433   5.896 -0.1913  0.6233 -0.2832
 5093TIP3    H236771   4.421   5.354   5.941 -0.7373  1.1175  2.1734
 5094TIP3   OH236772   6.766   3.775  13.993  0.4312 -0.5628 -0.0972
 5094TIP3    H136773   6.736   3.823  14.070  1.2477  1.4061 -0.9403
 5094TIP3    H236774   6.758   3.683  14.018  0.6823  0.0026  2.3408
 5095TIP3   OH236775   2.454   2.759   2.148  0.7523  0.2863  0.0080
 5095TIP3    H136776   2.394   2.768   2.074  0.7670 -0.4004 -0.0878
 5095TIP3    H236777   2.538   2.789   2.115  0.7818 -0.1158 -0.2891
 5096TIP3   OH236778   1.331   2.469   0.186 -0.0181 -0.2498 -0.2465
 5096TIP3    H136779   1.282   2.540   0.227 -0.8827  0.2766 -2.0744
 5096TIP3    H236780   1.347   2.407   0.257  1.4928  2.0837  1.6284
 5097TIP3   OH236781   6.389   0.471   0.298 -0.6026 -0.5681  0.1820
 5097TIP3    H136782   6.406   0.503   0.209 -0.2526 -0.8539  0.1474
 5097TIP3    H236783   6.319   0.528   0.330  0.2219  0.4556  0.2300
 5098TIP3   OH236784   1.912   5.625  15.836  0.3766 -0.0200  0.3353
 5098TIP3    H136785   1.873   5.614  15.923 -2.2858 -0.4982 -0.8213
 5098TIP3    H236786   1.952   5.712  15.838  0.5626 -0.1113  2.0743
 5099TIP3   OH236787   3.038   3.106   0.012  0.3059 -0.5696 -0.0564
 5099TIP3    H136788   3.107   3.097   0.078  0.4109  0.0335 -0.0705
 5099TIP3    H236789   3.006   3.017  -0.002  1.1367 -0.8683 -0.1095
 5100TIP3   OH236790   1.376   2.909  16.579 -0.1219 -0.0964  0.3331
 5100TIP3    H136791   1.466   2.934  16.558 -0.2143  0.5706  0.7110
 5100TIP3    H236792   1.324   2.945  16.506  0.0498 -1.6533 -0.6073
 5101TIP3   OH236793   5.450   2.730  13.598 -0.4557  0.0447  0.0753
 5101TIP3    H136794   5.436   2.742  13.692 -0.0194 -1.4292  0.3649
 5101TIP3    H236795   5.509   2.655  13.593 -0.8316 -0.1780 -1.3890
 5102TIP3   OH236796   5.784   6.184  15.952  0.3052  0.1757  0.5793
 5102TIP3    H136797   5.757   6.104  15.907  0.5042  0.7543 -0.6125
 5102TIP3    H236798   5.715   6.201  16.016 -0.8294  0.2089 -0.6313
 5103TIP3   OH236799   6.131   3.456   5.950 -0.4401  0.1199 -0.0257
 5103TIP3    H136800   6.045   3.476   5.985 -0.3226  0.7041 -0.0709
 5103TIP3    H236801   6.188   3.453   6.028 -0.6463 -1.1064  0.1036
 5104TIP3   OH236802   5.251   4.683  14.159 -0.0610 -0.7804  0.2493
 5104TIP3    H136803   5.274   4.741  14.086 -0.5409 -0.8302  0.0570
 5104TIP3    H236804   5.237   4.598  14.119 -3.2676 -0.2281 -0.0946
 5105TIP3   OH236805   6.729   4.172  10.931 -0.2762 -0.3872 -0.4567
 5105TIP3    H136806   6.809   4.225  10.931 -0.8494  0.4919 -0.7308
 5105TIP3    H236807   6.741   4.112  11.005 -0.1763  1.0160  0.7139
 5106TIP3   OH236808   5.230   4.361  14.874  0.3446 -0.2049 -0.0641
 5106TIP3    H136809   5.292   4.432  14.891  0.9942 -0.6071 -0.7210
 5106TIP3    H236810   5.244   4.298  14.945 -0.1514  0.2518  0.4544
 5107TIP3   OH236811   1.954   1.735  11.929 -0.1530 -0.1848  0.1616
 5107TIP3    H136812   1.967   1.683  11.850 -0.5723  1.1187 -0.8044
 5107TIP3    H236813   1.868   1.707  11.963 -0.1830 -0.4132 -0.1031
 5108TIP3   OH236814   4.371   5.998   3.055 -0.3818 -0.1230 -0.3817
 5108TIP3    H136815   4.287   6.020   3.094 -0.9701 -0.1968 -1.5493
 5108TIP3    H236816   4.403   5.923   3.106 -0.7291  0.2926  0.4544
 5109TIP3   OH236817   4.912   3.722   1.673  0.3667 -0.3083 -0.2169
 5109TIP3    H136818   4.844   3.662   1.704  0.8159 -0.9460 -0.4459
 5109TIP3    H236819   4.864   3.794   1.633 -0.1842 -1.0388 -0.9041
 5110TIP3   OH236820   0.215   2.078  12.312  0.0267  0.3567  0.4631
 5110TIP3    H136821   0.281   2.096  12.379  1.8061  0.7644 -1.3029
 5110TIP3    H236822   0.250   2.003  12.263 -1.1885  0.1085 -0.0642
 5111TIP3   OH236823   5.882   3.801  15.137  0.1204 -0.0236  0.2011
 5111TIP3    H136824   5.870   3.893  15.161  0.1586 -0.6066  2.7223
 5111TIP3    H236825   5.795   3.762  15.147  0.6021 -0.7675  1.7486
 5112TIP3   OH236826   1.708   4.311  14.203 -0.0469 -0.4199 -0.3229
 5112TIP3    H136827   1.643   4.240  14.203 -0.3146 -0.1973 -1.4221
 5112TIP3    H236828   1.753   4.303  14.287  0.5892 -2.4975 -0.8223
 5113TIP3   OH236829   3.640   0.464   1.974 -0.2009 -0.2833  0.0664
 5113TIP3    H136830   3.710   0.417   1.928 -0.7633  1.3984 -2.7876
 5113TIP3    H236831   3.680   0.547   1.999 -0.4053 -0.4837  1.0930
 5114TIP3   OH236832   6.657   6.089  12.153  0.1306 -0.6533  0.2286
 5114TIP3    H136833   6.607   6.167  12.130  2.1233  0.7140  0.2490
 5114TIP3    H236834   6.635   6.073  12.245 -3.0201 -2.3481 -0.7017
 5115TIP3   OH236835   6.249   0.065   4.977  0.1815  0.2359 -0.5211
 5115TIP3    H136836   6.284  -0.024   4.980  1.5116  0.7584  0.5812
 5115TIP3    H236837   6.316   0.115   4.930  0.3984  1.0279  0.5917
 5116TIP3   OH236838   0.705   4.305  12.453 -0.1361 -0.1332  0.7222
 5116TIP3    H136839   0.791   4.330  12.420 -1.1010  0.0628 -1.9292
 5116TIP3    H236840   0.647   4.314  12.378 -2.2786 -1.3902  2.0967
 5117TIP3   OH236841   4.538   5.201  15.022 -0.2239  0.1379 -0.0181
 5117TIP3    H136842   4.624   5.213  15.060 -0.1481  0.1349 -0.1881
 5117TIP3    H236843   4.504   5.122  15.064  0.0298 -0.1049 -0.2658
 5118TIP3   OH236844   6.165   2.273  16.329 -0.6208  0.4439 -0.3303
 5118TIP3    H136845   6.252   2.278  16.291  0.3385  0.0415  1.6937
 5118TIP3    H236846   6.174   2.314  16.415 -2.7675  1.6151 -0.5930
 5119TIP3   OH236847   3.411   0.064  10.937 -0.6372 -0.1093  0.5306
 5119TIP3    H136848   3.407   0.113  10.856 -1.5245  0.4304  0.8836
 5119TIP3    H236849   3.323   0.029  10.948  0.1466 -2.4786 -0.1119
 5120TIP3   OH236850   1.834   3.325   2.568  0.3453  0.2753  0.6707
 5120TIP3    H136851   1.882   3.346   2.487 -0.8482  2.3142  0.4215
 5120TIP3    H236852   1.862   3.393   2.630  0.2349 -0.4705  1.5492
 5121TIP3   OH236853   0.846   6.333  16.168 -0.0963 -0.3591  0.0284
 5121TIP3    H136854   0.921   6.296  16.214  0.1979 -1.1631 -1.0462
 5121TIP3    H236855   0.842   6.424  16.197  1.5536 -0.1780 -0.2152
 5122TIP3   OH236856   1.781   3.746   3.269 -0.3310  0.5060 -0.5331
 5122TIP3    H136857   1.751   3.666   3.226 -0.4146  0.0995  0.2798
 5122TIP3    H236858   1.795   3.807   3.196 -1.4385  0.1575 -1.0611
 5123TIP3   OH236859   0.014   1.204   5.241 -0.0028 -0.0380 -0.4266
 5123TIP3    H136860   0.046   1.114   5.249 -0.6898 -0.2488  0.0463
 5123TIP3    H236861   0.093   1.257   5.233  0.3933 -0.7353 -1.3004
 5124TIP3   OH236862   4.173   5.399   0.637  0.0185 -0.2995  0.3282
 5124TIP3    H136863   4.255   5.352   0.652 -0.0374 -0.6385 -0.3863
 5124TIP3    H236864   4.197   5.491   0.646  0.1121 -0.4531  1.8003
 5125TIP3   OH236865   4.232   0.896  12.342  0.5009 -0.2788 -0.5743
 5125TIP3    H136866   4.291   0.825  12.370  0.8552 -0.1565 -1.0039
 5125TIP3    H236867   4.146   0.870  12.376  0.8198 -0.4069  0.1510
 5126TIP3   OH236868   3.706   5.144   3.286 -0.9874 -0.2686 -0.6267
 5126TIP3    H136869   3.658   5.223   3.312 -1.0379 -0.2511 -0.7713
 5126TIP3    H236870   3.785   5.177   3.243 -0.1546 -0.2825  0.8165
 5127TIP3   OH236871   3.951   3.176   4.550 -0.1372 -0.4704 -0.0129
 5127TIP3    H136872   3.965   3.259   4.597 -0.0611 -0.0838 -0.7084
 5127TIP3    H236873   4.023   3.173   4.487 -0.7615 -0.5400 -0.7267
 5128TIP3   OH236874   0.625   2.626  13.356  0.1631  0.4350 -0.4466
 5128TIP3    H136875   0.639   2.668  13.271 -0.7115  1.4822 -0.1063
 5128TIP3    H236876   0.703   2.649  13.408  0.3062  0.5160 -0.6977
 5129TIP3   OH236877   6.525   3.057  16.331 -0.6771  0.1070 -0.0934
 5129TIP3    H136878   6.563   3.015  16.253  0.2929 -0.1977  0.5168
 5129TIP3    H236879   6.455   2.998  16.358  0.2706 -0.8349  0.3947
 5130TIP3   OH236880   0.046   5.746  14.916 -0.3083 -0.4344 -0.2439
 5130TIP3    H136881   0.076   5.716  14.830 -0.9602  0.8232 -0.9473
 5130TIP3    H236882  -0.014   5.677  14.946 -0.0879 -0.8789 -0.8044
 5131TIP3   OH236883   0.009   1.953   1.188 -0.2537  0.3518 -0.4491
 5131TIP3    H136884  -0.036   1.873   1.158  0.1695  0.1176 -0.4617
 5131TIP3    H236885  -0.061   2.006   1.225 -0.4260 -0.4043  0.3599
 5132TIP3   OH236886   5.336   2.207   4.356 -0.4849  0.0098 -0.3374
 5132TIP3    H136887   5.423   2.180   4.385 -0.1586  1.0740 -0.2771
 5132TIP3    H236888   5.297   2.127   4.320  0.4648 -0.5115 -0.2555
 5133TIP3   OH236889   1.405   4.357   2.452  0.1961 -0.2531 -0.1739
 5133TIP3    H136890   1.357   4.439   2.464 -1.3133 -1.0213 -0.7906
 5133TIP3    H236891   1.338   4.289   2.453  1.3311 -1.4146 -0.5244
 5134TIP3   OH236892   2.640   2.892   3.201 -0.1133 -0.2363  0.6387
 5134TIP3    H136893   2.672   2.841   3.127 -2.1541 -0.5782 -0.0921
 5134TIP3    H236894   2.708   2.957   3.218 -0.8364  1.9236 -3.5852
 5135TIP3   OH236895   6.418   1.512   1.256 -0.0077  0.1409 -0.0380
 5135TIP3    H136896   6.393   1.420   1.262 -0.3527  0.1056 -1.6590
 5135TIP3    H236897   6.392   1.549   1.341  1.2369 -1.4783  1.1157
 5136TIP3   OH236898   2.256   1.806   1.137 -0.0623 -0.4336  0.4708
 5136TIP3    H136899   2.161   1.796   1.128 -0.1150  1.0893 -1.4985
 5136TIP3    H236900   2.292   1.763   1.059  0.6998  0.8005  0.1205
 5137TIP3   OH236901   1.028   0.736  15.888 -0.2014 -0.2589  0.4299
 5137TIP3    H136902   1.090   0.808  15.899 -0.4803 -0.0736  0.8096
 5137TIP3    H236903   1.068   0.680  15.821 -0.0661  0.3379  0.0050
 5138TIP3   OH236904   2.704   4.721  16.060  0.0508 -0.4186  0.3148
 5138TIP3    H136905   2.773   4.718  15.994 -0.0758 -0.1140  0.1666
 5138TIP3    H236906   2.750   4.708  16.143  0.1505 -1.3035  0.1361
 5139TIP3   OH236907   5.875   6.019   4.436 -0.0968  0.2078 -0.1162
 5139TIP3    H136908   5.843   5.946   4.383 -0.2750 -0.3424  0.7375
 5139TIP3    H236909   5.795   6.064   4.465  0.0174  1.9807 -2.2737
 5140TIP3   OH236910   3.943   3.022  13.350 -0.3911  0.1061 -0.0045
 5140TIP3    H136911   3.870   3.083  13.338  0.2792  0.8018 -0.6968
 5140TIP3    H236912   3.933   2.958  13.281 -0.3505  0.2109 -0.1091
 5141TIP3   OH236913   2.628   2.474   1.457  0.4950 -0.5875  0.1009
 5141TIP3    H136914   2.680   2.547   1.423 -0.1259  0.3070  0.9945
 5141TIP3    H236915   2.683   2.397   1.445  1.6062  0.1876  0.0976
 5142TIP3   OH236916   3.198   6.816  12.308  0.2399  0.2742 -0.1252
 5142TIP3    H136917   3.110   6.843  12.281 -0.8265  0.1904  2.9102
 5142TIP3    H236918   3.210   6.730  12.267 -1.7933 -0.4536  0.6959
 5143TIP3   OH236919   4.786   4.236   6.266 -0.5110  0.0261  0.3441
 5143TIP3    H136920   4.871   4.222   6.223 -0.3569  0.5150  0.4839
 5143TIP3    H236921   4.796   4.320   6.311 -1.2484  0.3438 -0.0752
 5144TIP3   OH236922   0.561   6.094  14.130  0.3351  0.1940  0.1632
 5144TIP3    H136923   0.630   6.048  14.177 -0.4774 -0.2335  0.9737
 5144TIP3    H236924   0.498   6.025  14.107 -0.0135  0.6320 -0.2166
 5145TIP3   OH236925   0.244   1.555   0.774  0.0872  0.0976  0.2533
 5145TIP3    H136926   0.322   1.588   0.730 -0.3417 -0.5095 -1.0058
 5145TIP3    H236927   0.245   1.461   0.757 -0.4070 -0.0685  1.0722
 5146TIP3   OH236928   1.850   6.594  14.756  0.1047 -0.3311  0.3643
 5146TIP3    H136929   1.911   6.569  14.686  0.5958 -1.4798  1.1794
 5146TIP3    H236930   1.844   6.516  14.811  0.6593  0.9071  2.2669
 5147TIP3   OH236931   5.356   6.041  16.696 -0.2364 -0.6315  0.0522
 5147TIP3    H136932   5.289   6.082  16.750 -0.7190  0.0938 -1.0546
 5147TIP3    H236933   5.376   6.106  16.629  1.7735 -0.7376  0.4943
 5148TIP3   OH236934   4.342   0.024  14.990 -0.1309 -0.5543 -0.1901
 5148TIP3    H136935   4.324   0.116  14.972 -2.6209 -0.9631 -0.0910
 5148TIP3    H236936   4.438   0.018  14.989  0.0707  1.7671 -1.4009
 5149TIP3   OH236937   5.921   4.943   4.914  0.8231  0.3961  0.1775
 5149TIP3    H136938   5.845   4.940   4.973  1.0740 -1.5604  0.4744
 5149TIP3    H236939   5.884   4.960   4.828 -0.0905 -1.3147  0.1859
 5150TIP3   OH236940   5.103   1.296  15.709  0.2107  0.2741 -0.4361
 5150TIP3    H136941   5.156   1.300  15.630  0.3046  1.2682 -0.3396
 5150TIP3    H236942   5.014   1.278  15.677 -0.0921  2.4156 -0.9669
 5151TIP3   OH236943   3.244   4.973   0.272  0.2154 -0.5359 -0.5240
 5151TIP3    H136944   3.283   4.903   0.323  3.7136  1.4825 -0.1626
 5151TIP3    H236945   3.262   5.053   0.321 -2.3088  0.8774 -1.6453
 5152TIP3   OH236946   0.662   5.301   5.061  0.3433  0.1756 -0.0469
 5152TIP3    H136947   0.682   5.216   5.022 -0.5056  0.4222 -1.0596
 5152TIP3    H236948   0.706   5.300   5.146  1.1758 -0.8728 -0.4826
 5153TIP3   OH236949   6.371   3.444  16.372  0.4074  0.1851  0.1140
 5153TIP3    H136950   6.442   3.508  16.365  2.1939 -1.6210  0.7006
 5153TIP3    H236951   6.403   3.380  16.435 -1.4854 -1.0838 -0.1377
 5154TIP3   OH236952   3.331   2.606  16.296 -0.8027 -0.1016 -0.4545
 5154TIP3    H136953   3.310   2.692  16.333 -1.3791  0.0115 -1.0203
 5154TIP3    H236954   3.327   2.546  16.371  0.3642  0.4713  0.0843
 5155TIP3   OH236955   0.154   5.350   0.627 -0.0327  0.2421 -0.5765
 5155TIP3    H136956   0.098   5.287   0.673  0.4435  1.4261  1.7636
 5155TIP3    H236957   0.092   5.413   0.588 -0.4199 -0.4227 -1.0641
 5156TIP3   OH236958   4.021   6.048   0.926  0.5473 -0.5332 -0.0318
 5156TIP3    H136959   4.077   6.107   0.976 -1.1614  0.0129  1.3184
 5156TIP3    H236960   4.048   6.061   0.835  1.1962  1.2371  0.3746
 5157TIP3   OH236961   2.848   6.657  13.869  0.2936  0.3472 -0.1115
 5157TIP3    H136962   2.935   6.624  13.889  1.2004  1.2519 -2.2645
 5157TIP3    H236963   2.862   6.749  13.845 -1.2545  0.5145 -0.4970
 5158TIP3   OH236964   6.206   6.465   2.975  0.5409  0.0039  0.0317
 5158TIP3    H136965   6.274   6.531   2.989  1.1614 -0.7346  0.6209
 5158TIP3    H236966   6.189   6.429   3.062  0.9611 -1.3223 -0.4097
 5159TIP3   OH236967   0.765   4.152  13.203  0.0327  0.3146 -0.1907
 5159TIP3    H136968   0.814   4.208  13.262  0.6026 -0.9311  0.5507
 5159TIP3    H236969   0.709   4.212  13.154  1.7681  1.7054 -0.5725
 5160TIP3   OH236970   4.835   3.075  13.185 -0.3892 -0.6399 -0.2792
 5160TIP3    H136971   4.912   3.020  13.171 -0.9322 -1.3660 -0.4802
 5160TIP3    H236972   4.792   3.037  13.262 -0.4655 -0.1484 -0.0795
 5161TIP3   OH236973   4.948   3.941  13.809 -0.3283 -0.1224 -0.3383
 5161TIP3    H136974   4.937   3.874  13.877 -0.1694 -0.3561 -0.5438
 5161TIP3    H236975   4.861   3.981  13.801 -0.1720  0.4162  0.5260
 5162TIP3   OH236976   2.378   4.373   3.095  0.6513 -0.3701  0.2524
 5162TIP3    H136977   2.379   4.280   3.075  2.0584 -0.0757 -1.2870
 5162TIP3    H236978   2.376   4.378   3.190  0.8251 -1.9643  0.3571
 5163TIP3   OH236979   5.166   3.380   3.083 -0.0822  0.0405  0.7301
 5163TIP3    H136980   5.215   3.463   3.088  0.9871 -0.5187 -0.1484
 5163TIP3    H236981   5.129   3.380   2.995  0.3666 -0.6566  0.5393
 5164TIP3   OH236982   4.176   1.117   3.857 -0.1301  0.2857 -0.7689
 5164TIP3    H136983   4.208   1.181   3.793  0.7927  0.4288 -0.1948
 5164TIP3    H236984   4.244   1.116   3.925 -0.5386 -0.6967 -0.3601
 5165TIP3   OH236985   0.417   4.842   1.551 -0.1347 -0.1288  0.3658
 5165TIP3    H136986   0.383   4.895   1.479 -0.1399 -1.2225 -0.4638
 5165TIP3    H236987   0.494   4.889   1.582 -0.5052  0.6827  0.0693
 5166TIP3   OH236988   2.721   6.626  13.092 -0.7607 -0.1617 -0.3185
 5166TIP3    H136989   2.777   6.584  13.157 -0.2487  0.9872  0.0004
 5166TIP3    H236990   2.773   6.698  13.058 -1.4605 -0.0415 -1.1804
 5167TIP3   OH236991   4.146   2.760   5.338  0.6426 -0.5451 -0.9054
 5167TIP3    H136992   4.084   2.813   5.288  1.0204 -0.6341 -1.4723
 5167TIP3    H236993   4.228   2.808   5.335  0.5986 -0.4011 -0.1069
 5168TIP3   OH236994   1.477   2.143  14.636 -0.3343 -0.2243  0.6638
 5168TIP3    H136995   1.564   2.182  14.636 -0.6909  0.7203 -1.0701
 5168TIP3    H236996   1.417   2.217  14.645 -0.9737 -0.8582  1.8264
 5169TIP3   OH236997   0.404   0.322  16.857 -0.5478 -0.8404 -0.5105
 5169TIP3    H136998   0.443   0.236  16.843 -0.7525 -0.9975 -0.1374
 5169TIP3    H236999   0.387   0.326  16.951 -0.1404 -0.2206 -0.4530
 5170TIP3   OH237000   1.041   2.101   5.138 -0.1898  0.1652 -0.7099
 5170TIP3    H137001   0.971   2.043   5.108  0.0043 -0.4584  0.0097
 5170TIP3    H237002   1.024   2.184   5.094 -2.1001  0.4171  0.4326
 5171TIP3   OH237003   2.593   1.173   5.253  0.2890 -0.3122 -0.3044
 5171TIP3    H137004   2.680   1.210   5.269  0.5895 -1.0268 -0.2231
 5171TIP3    H237005   2.535   1.221   5.311  0.2162  1.7616 -1.9669
 5172TIP3   OH237006   1.693   0.876   1.742 -0.1489 -0.5182  0.7090
 5172TIP3    H137007   1.661   0.789   1.718  1.1000 -1.2262  1.4825
 5172TIP3    H237008   1.634   0.937   1.697 -1.3603 -1.7517  0.5592
 5173TIP3   OH237009   1.521   3.214  11.912 -0.1617 -0.0327  0.0308
 5173TIP3    H137010   1.517   3.192  11.819  4.5180  0.2234 -0.4441
 5173TIP3    H237011   1.496   3.306  11.916  0.7064  0.2846 -1.2041
 5174TIP3   OH237012   5.545   6.113  11.125  0.0179 -0.5044  0.0717
 5174TIP3    H137013   5.463   6.118  11.076  0.3749  0.3074 -0.4643
 5174TIP3    H237014   5.575   6.023  11.111 -0.7184 -0.7814  0.1916
 5175TIP3   OH237015   5.757   6.047  14.299  0.1690  0.2663 -0.0433
 5175TIP3    H137016   5.721   6.094  14.224 -4.3875 -0.6567  1.2211
 5175TIP3    H237017   5.770   6.116  14.365  1.8659  0.7591 -0.8528
 5176TIP3   OH237018   3.672   2.794  14.842 -0.1926 -0.1952  0.0838
 5176TIP3    H137019   3.709   2.880  14.824 -0.3764 -0.0837  0.2383
 5176TIP3    H237020   3.687   2.779  14.935 -1.6347  0.3933  0.4428
 5177TIP3   OH237021   4.742   4.555   4.558  0.4092  0.6825 -0.1388
 5177TIP3    H137022   4.719   4.647   4.550 -0.6679  0.4037 -0.4934
 5177TIP3    H237023   4.670   4.517   4.609 -0.0546 -0.2731 -1.4572
 5178TIP3   OH237024   2.970   4.795  15.753  0.3911  0.2515  0.5232
 5178TIP3    H137025   3.051   4.831  15.716  1.2153 -0.5307  1.4991
 5178TIP3    H237026   2.980   4.806  15.848 -1.9235  2.7890  0.6071
 5179TIP3   OH237027   1.819   5.762  13.026 -0.0932 -0.1749  0.1111
 5179TIP3    H137028   1.803   5.846  12.982 -1.8854 -0.0372  0.9571
 5179TIP3    H237029   1.861   5.708  12.959 -1.8506  0.3306 -1.4910
 5180TIP3   OH237030   2.906   3.039   5.379  0.1439  0.3106  0.3087
 5180TIP3    H137031   2.896   3.009   5.469  0.4022 -0.0053  0.2336
 5180TIP3    H237032   2.915   2.959   5.327  0.3683  0.5006  0.0477
 5181TIP3   OH237033   2.950   4.799  13.928  0.7128  0.3443 -0.5950
 5181TIP3    H137034   2.946   4.743  13.851  0.0216 -1.8987  0.9533
 5181TIP3    H237035   3.041   4.795  13.957  0.2653 -1.9707  0.7712
 5182TIP3   OH237036   5.170   5.875   3.478  0.1125  0.1316  0.3020
 5182TIP3    H137037   5.134   5.790   3.505  0.8845  0.1722  1.5293
 5182TIP3    H237038   5.218   5.856   3.397  0.7966 -0.7328  0.8950
 5183TIP3   OH237039   6.103   4.983  11.760 -0.3103  0.2539 -0.3754
 5183TIP3    H137040   6.166   4.935  11.813  0.5946  0.6311 -1.0762
 5183TIP3    H237041   6.075   4.920  11.693  1.4648  0.8652 -1.7742
 5184TIP3   OH237042   0.967   3.041   5.810  0.7164 -0.2287  0.1843
 5184TIP3    H137043   0.963   3.024   5.904  1.1703 -2.7768 -0.1628
 5184TIP3    H237044   0.878   3.065   5.786  0.5108  0.0896  1.2126
 5185TIP3   OH237045   6.437   5.823   5.613  0.2294 -0.0561  0.1728
 5185TIP3    H137046   6.405   5.733   5.612 -1.7325  0.5106 -2.7731
 5185TIP3    H237047   6.364   5.873   5.649 -0.6482  0.7555 -2.4513
 5186TIP3   OH237048   0.271   4.681   2.913  0.1166 -0.1096 -0.2861
 5186TIP3    H137049   0.241   4.590   2.915  0.3140 -0.2240 -1.5734
 5186TIP3    H237050   0.359   4.676   2.875  0.6882  0.4981  0.8792
 5187TIP3   OH237051   1.845   6.208  12.639  0.6643 -0.4234 -0.5998
 5187TIP3    H137052   1.877   6.188  12.727  2.8516 -1.3322 -1.5177
 5187TIP3    H237053   1.907   6.163  12.580 -0.0296  1.1037 -2.6282
 5188TIP3   OH237054   6.671   5.927  11.864 -0.0463 -0.5724 -0.2788
 5188TIP3    H137055   6.727   5.850  11.856 -0.3096 -0.6018 -2.0164
 5188TIP3    H237056   6.582   5.892  11.871 -0.0356 -0.4592  0.5671
 5189TIP3   OH237057   6.030   1.409  11.330  0.2941  0.0228  0.2615
 5189TIP3    H137058   6.079   1.491  11.333  1.8717 -0.7841 -1.4644
 5189TIP3    H237059   5.971   1.420  11.255 -0.5069  0.0936  0.8912
 5190TIP3   OH237060   3.523   6.611   1.577 -0.0475 -0.1292  0.5113
 5190TIP3    H137061   3.599   6.646   1.532 -1.1249  0.2624 -1.0924
 5190TIP3    H237062   3.487   6.545   1.518 -1.8830  0.8533  0.4364
 5191TIP3   OH237063   5.388   2.576   6.353 -0.3665 -0.3029 -0.2652
 5191TIP3    H137064   5.432   2.503   6.311 -1.3397 -0.9987 -0.1122
 5191TIP3    H237065   5.425   2.580   6.441  1.7461  1.2176 -1.1271
 5192TIP3   OH237066   2.004   1.409  11.233  0.3426 -0.0839 -0.1396
 5192TIP3    H137067   1.949   1.487  11.223 -0.3499 -0.6478 -0.8977
 5192TIP3    H237068   1.944   1.340  11.260  0.8412 -0.5057 -0.0885
 5193TIP3   OH237069   5.860   0.415  15.727  0.4912 -0.1545 -0.2460
 5193TIP3    H137070   5.905   0.341  15.686  0.0856 -0.1752 -0.6603
 5193TIP3    H237071   5.929   0.481  15.737  1.5692 -1.5586  2.7516
 5194TIP3   OH237072   3.849   5.876  16.976  0.4524  0.0473  0.4420
 5194TIP3    H137073   3.803   5.902  16.896  1.3879  1.4569  0.3263
 5194TIP3    H237074   3.789   5.899  17.047  0.3172  0.3724  0.2254
 5195TIP3   OH237075   5.012   4.065  10.891  0.0153  0.5512 -0.3498
 5195TIP3    H137076   5.038   4.144  10.844  1.0264  0.4198 -0.0498
 5195TIP3    H237077   5.088   4.007  10.883 -0.4430 -0.1136  0.0314
 5196TIP3   OH237078   6.351   3.658   0.912  0.7188 -0.3926 -0.3154
 5196TIP3    H137079   6.338   3.583   0.970 -3.3247  0.9795  0.8601
 5196TIP3    H237080   6.404   3.719   0.963  0.1204 -0.5970  0.5615
 5197TIP3   OH237081   6.247   3.310   2.468 -0.2624  0.6832 -0.4636
 5197TIP3    H137082   6.192   3.255   2.412  1.2064  0.4668 -1.7772
 5197TIP3    H237083   6.260   3.258   2.547  1.0804 -0.9480 -1.6615
 5198TIP3   OH237084   3.825   1.177   4.814  0.1421  0.0552  0.4191
 5198TIP3    H137085   3.838   1.225   4.896  0.3139  0.2795  0.2619
 5198TIP3    H237086   3.874   1.228   4.749  0.8208 -0.6494  0.3570
 5199TIP3   OH237087   0.474   0.754  13.059 -0.4028  0.1370  0.0336
 5199TIP3    H137088   0.481   0.849  13.058  0.8548  0.0591 -0.6472
 5199TIP3    H237089   0.559   0.723  13.030 -1.1550 -1.1834 -0.8912
 5200TIP3   OH237090   5.122   1.038   1.268  0.0399 -0.0948 -0.4122
 5200TIP3    H137091   5.043   1.093   1.275  0.9782  1.2616 -0.0533
 5200TIP3    H237092   5.096   0.955   1.307 -1.2393  0.3101 -0.3461
 5201TIP3   OH237093   4.256   1.704   1.412  0.0046  1.0913 -0.1734
 5201TIP3    H137094   4.257   1.773   1.345  0.4684  1.6137  0.3654
 5201TIP3    H237095   4.214   1.745   1.487 -1.5850  0.1445 -0.5083
 5202TIP3   OH237096   6.066   3.160   2.345  0.0582  0.7179 -0.5839
 5202TIP3    H137097   6.005   3.203   2.406 -1.0535 -1.2107 -0.2536
 5202TIP3    H237098   6.011   3.100   2.295  1.5039 -0.1518 -1.1843
 5203TIP3   OH237099   3.964   6.721   5.303  0.9417 -0.6081 -0.1346
 5203TIP3    H137100   3.887   6.772   5.329  1.2543 -0.4893  0.5821
 5203TIP3    H237101   4.031   6.744   5.367  0.5332 -3.3444  1.4444
 5204TIP3   OH237102   0.786   1.677   6.103 -0.8846  0.6694  0.1490
 5204TIP3    H137103   0.878   1.704   6.098 -1.3756  2.3076 -0.4560
 5204TIP3    H237104   0.766   1.642   6.016 -0.1967 -2.0083  0.9824
 5205TIP3   OH237105   4.890   2.796   4.548 -0.3613 -0.1069  0.7367
 5205TIP3    H137106   4.863   2.739   4.476  1.5808 -1.7648  1.2402
 5205TIP3    H237107   4.826   2.778   4.617 -0.5389 -0.6642  0.4322
 5206TIP3   OH237108   1.064   4.282   3.614 -0.1782  1.3467 -0.4558
 5206TIP3    H137109   1.121   4.345   3.659  0.7507  0.3491 -0.1869
 5206TIP3    H237110   1.076   4.200   3.662 -0.4046  0.6453 -1.5528
 5207TIP3   OH237111   1.301   2.476  12.370  0.0296  0.1903  0.6407
 5207TIP3    H137112   1.253   2.559  12.366 -0.9877 -0.3929  0.2739
 5207TIP3    H237113   1.336   2.473  12.459  1.0624  1.5294  0.3114
 5208TIP3   OH237114   4.205   1.810   4.949  0.3542 -0.0718  0.0779
 5208TIP3    H137115   4.132   1.857   4.908  0.4901 -0.5686 -0.7608
 5208TIP3    H237116   4.211   1.847   5.037 -1.2093 -0.3369  0.3254
 5209TIP3   OH237117   5.326   6.096   3.215  0.2131 -0.1219  0.3216
 5209TIP3    H137118   5.262   6.164   3.240 -0.2826 -0.5263  0.1593
 5209TIP3    H237119   5.411   6.139   3.226 -0.1271  0.9189 -0.9186
 5210TIP3   OH237120   3.454   0.314   2.524  0.3031 -0.2889 -0.1266
 5210TIP3    H137121   3.539   0.301   2.483  0.4711  0.5452 -0.0563
 5210TIP3    H237122   3.396   0.337   2.452 -0.1525 -2.0032 -0.3531
 5211TIP3   OH237123   5.020   3.287  17.084  0.3218  0.0527  0.3164
 5211TIP3    H137124   5.027   3.359  17.147  0.7271 -1.1598  1.7224
 5211TIP3    H237125   4.932   3.295  17.049  0.7047  1.8486 -0.3780
 5212TIP3   OH237126   6.327   0.187  16.903 -0.3208 -0.0093 -0.0128
 5212TIP3    H137127   6.319   0.178  16.998 -1.7791 -1.1098 -0.1967
 5212TIP3    H237128   6.237   0.194  16.872  0.1340  0.3894 -1.3212
 5213TIP3   OH237129   1.164   4.117  15.189  0.5122  0.2462  0.6991
 5213TIP3    H137130   1.235   4.128  15.252  1.4198 -0.8933 -0.0799
 5213TIP3    H237131   1.168   4.196  15.134  2.0565 -0.3872 -0.1560
 5214TIP3   OH237132   5.032   1.371  14.631 -0.4571  0.6065  0.2936
 5214TIP3    H137133   5.020   1.376  14.726  2.0104 -1.4084  0.8287
 5214TIP3    H237134   4.974   1.438  14.595 -1.1449  1.7105  3.2385
 5215TIP3   OH237135   2.541   0.337  11.289  0.2748 -0.3504 -0.1705
 5215TIP3    H137136   2.457   0.319  11.246  1.1346 -1.6953 -1.3944
 5215TIP3    H237137   2.567   0.423  11.256 -0.5561  0.0202  0.1267
 5216TIP3   OH237138   3.236   5.412  16.593 -0.9293  0.2862  0.4933
 5216TIP3    H137139   3.158   5.356  16.590 -2.0120  1.7779 -1.0979
 5216TIP3    H237140   3.304   5.360  16.550 -1.6480 -0.1726 -0.1099
 5217TIP3   OH237141   5.977   5.193  10.615 -0.2838  0.1671  0.9245
 5217TIP3    H137142   6.069   5.187  10.638  0.4182  1.3424 -1.2230
 5217TIP3    H237143   5.949   5.102  10.604  0.8038 -0.1885  0.9562
 5218TIP3   OH237144   5.430   1.069   0.833 -0.5184  0.6869  0.1141
 5218TIP3    H137145   5.495   1.042   0.768 -1.7626  0.0892 -0.9144
 5218TIP3    H237146   5.359   1.108   0.782 -1.0718  1.1508  1.1969
 5219TIP3   OH237147   5.445   3.181   4.372  0.9223 -0.6159  0.1262
 5219TIP3    H137148   5.392   3.237   4.315  0.0069  1.6956  2.9946
 5219TIP3    H237149   5.381   3.130   4.421  1.5792 -1.1063  0.4854
 5220TIP3   OH237150   3.448   6.764   2.759  0.0157 -0.2261 -0.2691
 5220TIP3    H137151   3.363   6.727   2.781 -0.0499  0.2592  0.3192
 5220TIP3    H237152   3.433   6.858   2.754  0.4625 -0.1570 -0.4168
 5221TIP3   OH237153   4.684   4.280   5.402 -0.4046  0.2023  0.3136
 5221TIP3    H137154   4.643   4.358   5.365  1.0194 -0.4586 -3.0503
 5221TIP3    H237155   4.773   4.309   5.426  0.2190 -0.3796 -1.1976
 5222TIP3   OH237156   5.663   4.941  16.552 -0.3717 -0.6590  0.7587
 5222TIP3    H137157   5.604   4.890  16.608 -0.3619  1.5884  3.0084
 5222TIP3    H237158   5.627   5.029  16.555  2.0109  0.3891  0.6236
 5223TIP3   OH237159   0.175   0.427  13.586 -0.4290 -0.2743 -0.0585
 5223TIP3    H137160   0.191   0.483  13.662  1.3588 -1.5578  0.5744
 5223TIP3    H237161   0.153   0.488  13.516 -0.6240  1.0527  1.1118
 5224TIP3   OH237162   2.924   2.637  11.720 -0.2038  0.0013 -0.0795
 5224TIP3    H137163   2.834   2.619  11.750  0.4713 -2.0819  0.9245
 5224TIP3    H237164   2.946   2.562  11.666  0.6928  0.8742 -0.9528
 5225TIP3   OH237165   5.148   0.483  16.038  0.1773  0.5978 -0.0162
 5225TIP3    H137166   5.062   0.487  15.996 -0.2102  1.2441  0.8224
 5225TIP3    H237167   5.136   0.419  16.109  1.5026 -2.4923 -2.3265
 5226TIP3   OH237168   2.509   2.072  15.574  0.3726  0.0336  0.4676
 5226TIP3    H137169   2.415   2.058  15.573  0.7539 -3.1894 -0.2107
 5226TIP3    H237170   2.529   2.094  15.665 -0.8846 -0.5041  0.8923
 5227TIP3   OH237171   2.950   1.555  13.289  0.1129  0.8115 -0.7156
 5227TIP3    H137172   3.039   1.521  13.284  0.2340  0.5701  1.9423
 5227TIP3    H237173   2.961   1.648  13.309 -0.2145  0.7014 -0.0014
 5228TIP3   OH237174   6.714   3.948  13.211 -0.4029  0.4882 -0.0321
 5228TIP3    H137175   6.795   3.896  13.214  0.5915  1.9834  2.5383
 5228TIP3    H237176   6.737   4.025  13.160 -0.2447  0.8017  0.5011
 5229TIP3   OH237177   4.911   4.190  12.443  0.5913  0.2903 -0.2443
 5229TIP3    H137178   4.918   4.241  12.524 -1.1331  0.6222 -0.2715
 5229TIP3    H237179   4.862   4.246  12.383  0.9685 -0.3568 -1.1896
 5230TIP3   OH237180   5.927   2.614  11.357  0.3988  0.2311 -0.6231
 5230TIP3    H137181   5.944   2.642  11.267 -1.0973  1.2546 -0.6392
 5230TIP3    H237182   5.991   2.661  11.410  0.7369  0.2905 -1.0811
 5231TIP3   OH237183   4.654   2.818  14.853  0.1407 -0.2870  0.3715
 5231TIP3    H137184   4.654   2.906  14.891  1.3934 -1.1650  2.6064
 5231TIP3    H237185   4.610   2.829  14.768  0.1694  2.4509  0.5971
 5232TIP3   OH237186   4.627   3.773   2.145  0.6814 -0.2356 -0.0085
 5232TIP3    H137187   4.722   3.786   2.138  0.5732  0.6523  0.0585
 5232TIP3    H237188   4.609   3.781   2.239  0.9384 -3.5223  0.4486
 5233TIP3   OH237189   2.335   1.737  13.351 -0.3992 -0.4788  0.1389
 5233TIP3    H137190   2.263   1.801  13.348 -0.7447 -0.8777 -0.2676
 5233TIP3    H237191   2.407   1.780  13.306 -0.2706  0.0534  0.8303
 5234TIP3   OH237192   6.846   3.017  14.719  0.8214  0.0652  0.0755
 5234TIP3    H137193   6.778   2.949  14.710  1.1492 -0.1648 -0.6823
 5234TIP3    H237194   6.827   3.079  14.649  0.6861  0.6293  0.6027
 5235TIP3   OH237195   0.958   3.871   1.399 -0.2913  0.3005  0.1779
 5235TIP3    H137196   1.041   3.824   1.401 -0.7149 -0.5125 -0.3921
 5235TIP3    H237197   0.981   3.962   1.416  0.6609  0.0249  0.4460
 5236TIP3   OH237198   5.790   4.802   0.100  0.4973 -0.2120 -0.6866
 5236TIP3    H137199   5.737   4.870   0.144 -0.4661 -1.5411  0.2980
 5236TIP3    H237200   5.880   4.834   0.107  0.0908  0.8497 -0.0173
 5237TIP3   OH237201   6.128   2.099  16.111 -0.2267  0.1074 -0.2588
 5237TIP3    H137202   6.146   2.165  16.177 -0.1937 -1.9730  1.9669
 5237TIP3    H237203   6.209   2.048  16.106 -0.4559 -0.1842 -1.4620
 5238TIP3   OH237204   5.054   4.402  13.099 -0.0412 -0.1253 -0.1862
 5238TIP3    H137205   5.114   4.407  13.173 -0.5403 -3.8291  0.6596
 5238TIP3    H237206   5.099   4.347  13.035 -1.2182 -0.2801 -0.9240
 5239TIP3   OH237207   3.543   3.662  10.567 -0.1077 -0.2785 -0.3212
 5239TIP3    H137208   3.476   3.628  10.626  0.3117  1.1904  1.0521
 5239TIP3    H237209   3.533   3.757  10.570  1.8529 -0.0302 -0.2951
 5240TIP3   OH237210   1.842   5.262  16.081 -0.4252 -0.2223 -0.3250
 5240TIP3    H137211   1.905   5.334  16.082 -1.2158  0.5024 -0.9874
 5240TIP3    H237212   1.885   5.192  16.033  1.0049 -0.8395  1.7145
 5241TIP3   OH237213   3.190   4.573  12.626  0.1472 -0.1034  0.2152
 5241TIP3    H137214   3.172   4.663  12.598  2.2637  0.4325  0.4294
 5241TIP3    H237215   3.227   4.582  12.714  0.6989 -1.1381  0.1027
 5242TIP3   OH237216   5.268   4.804  14.805  0.0425 -0.1853  0.0733
 5242TIP3    H137217   5.239   4.757  14.726 -0.5364 -0.7820  0.6331
 5242TIP3    H237218   5.188   4.822  14.853  0.3971  0.1575  0.5460
 5243TIP3   OH237219   4.192   0.994   5.314 -0.2644  0.1231 -0.4252
 5243TIP3    H137220   4.115   0.937   5.316 -0.9707  1.0422 -0.7334
 5243TIP3    H237221   4.183   1.045   5.234 -1.1339  2.6272  1.1514
 5244TIP3   OH237222   0.754   2.995   6.058 -0.1189  0.3817  0.5928
 5244TIP3    H137223   0.748   3.026   6.149 -1.2200 -2.4541  1.5972
 5244TIP3    H237224   0.811   2.919   6.062 -0.2515  0.1477 -1.1115
 5245TIP3   OH237225   1.706   6.047  11.309 -0.2207  0.1621  0.0271
 5245TIP3    H137226   1.634   6.110  11.304  1.0951  1.8686  1.1538
 5245TIP3    H237227   1.684   5.991  11.384 -0.4510  0.6006  0.2933
 5246TIP3   OH237228   3.631   1.677  16.489 -0.0590  0.3455  0.2464
 5246TIP3    H137229   3.616   1.667  16.583 -1.3515  0.3318  0.0526
 5246TIP3    H237230   3.637   1.587  16.456 -3.7971  0.1207 -0.2770
 5247TIP3   OH237231   6.178   6.661   5.277 -0.2586  0.0433  0.0204
 5247TIP3    H137232   6.134   6.631   5.197  0.3185 -0.9113  0.0442
 5247TIP3    H237233   6.137   6.744   5.297 -0.4220  0.2979 -1.2760
 5248TIP3   OH237234   6.016   0.589   3.540  0.0595 -0.6671 -0.1080
 5248TIP3    H137235   6.090   0.639   3.505  1.7249 -1.4129  2.1363
 5248TIP3    H237236   6.043   0.497   3.532 -1.5465 -1.0926 -1.1408
 5249TIP3   OH237237   5.008   1.466   3.014 -0.1877  0.4295  0.2668
 5249TIP3    H137238   5.097   1.431   3.013  0.1298  1.2201 -0.4958
 5249TIP3    H237239   4.954   1.396   2.978  0.3321  0.4261 -0.5334
 5250TIP3   OH237240   4.618   6.417   3.220 -0.2695 -0.3521 -0.2377
 5250TIP3    H137241   4.674   6.339   3.228  1.3977  0.8903  1.0637
 5250TIP3    H237242   4.598   6.423   3.127  2.1328 -0.6712 -0.8386
 5251TIP3   OH237243   4.279   6.446  11.389  0.0499  0.0298  0.6740
 5251TIP3    H137244   4.282   6.397  11.471 -0.9030 -0.7735  0.2589
 5251TIP3    H237245   4.327   6.391  11.327  1.4601  1.0155  0.8603
 5252TIP3   OH237246   0.250   4.976  11.970  0.2679  0.0911  0.4990
 5252TIP3    H137247   0.179   5.032  11.938 -0.5569 -1.6840 -1.0234
 5252TIP3    H237248   0.330   5.016  11.935 -0.1043  1.2494  0.9209
 5253TIP3   OH237249   0.855   6.545   0.379 -0.1826 -0.1998  0.1888
 5253TIP3    H137250   0.858   6.520   0.471  0.5514  0.7440  0.4491
 5253TIP3    H237251   0.931   6.501   0.339 -2.2177 -3.2074 -0.7395
 5254TIP3   OH237252   6.507   6.177  11.210 -0.5097 -0.2214 -0.0098
 5254TIP3    H137253   6.579   6.150  11.267  0.4523 -2.2494 -2.0141
 5254TIP3    H237254   6.434   6.121  11.235 -0.5443 -0.0953  0.1742
 5255TIP3   OH237255   0.254   5.467  13.173  0.0806  0.3259 -0.0222
 5255TIP3    H137256   0.163   5.475  13.202 -0.8767 -1.3716 -2.1858
 5255TIP3    H237257   0.286   5.557  13.167 -2.0126  1.0896 -0.7010
 5256TIP3   OH237258   0.987   3.936  12.810 -0.2938 -0.2675 -0.1857
 5256TIP3    H137259   1.011   3.952  12.902 -0.0431 -0.9234 -0.1298
 5256TIP3    H237260   0.978   4.023  12.772 -0.2207  0.0101  0.4203
 5257TIP3   OH237261   3.964   4.002   4.176  0.0192 -0.1710  0.2557
 5257TIP3    H137262   3.906   3.958   4.239  0.3943 -0.7628  0.1868
 5257TIP3    H237263   3.951   4.096   4.194  1.2546 -0.3310  2.2754
 5258TIP3   OH237264   4.277   4.556   5.579  0.1110  0.4931 -0.0140
 5258TIP3    H137265   4.303   4.480   5.632 -0.6364  1.1678  1.3963
 5258TIP3    H237266   4.251   4.519   5.495  1.7796 -0.5869 -0.1077
 5259TIP3   OH237267   2.668   2.899   0.893  0.3795 -0.3258 -0.0029
 5259TIP3    H137268   2.667   2.898   0.989 -0.3487 -0.3329 -0.0103
 5259TIP3    H237269   2.577   2.884   0.868  0.5244 -0.0486 -0.6938
 5260TIP3   OH237270   6.426   5.733  16.142 -0.7450 -0.1453  0.2577
 5260TIP3    H137271   6.354   5.780  16.184 -0.3612  0.0297  0.7278
 5260TIP3    H237272   6.480   5.701  16.214 -0.3570 -0.2873 -0.0867
 5261TIP3   OH237273   6.161   4.312   1.753  0.2851  0.3827 -0.0275
 5261TIP3    H137274   6.171   4.244   1.687 -1.5154 -0.6769  0.7194
 5261TIP3    H237275   6.148   4.392   1.703  2.2174  0.1934 -0.9252
 5262TIP3   OH237276   5.108   4.458  14.419  0.3244 -0.7169 -0.1505
 5262TIP3    H137277   5.052   4.388  14.451 -1.5419  0.5839 -0.4218
 5262TIP3    H237278   5.152   4.420  14.342 -2.3019 -0.9907 -1.6304
 5263TIP3   OH237279   3.958   6.690   2.440 -0.7690 -0.6482 -0.7748
 5263TIP3    H137280   3.999   6.715   2.523 -0.4346  1.0975 -1.4171
 5263TIP3    H237281   4.021   6.717   2.373 -1.3994 -1.2608 -1.6325
 5264TIP3   OH237282   6.677   6.820   6.399 -0.2767  0.5090  0.5069
 5264TIP3    H137283   6.759   6.772   6.407 -0.7876 -1.4381 -3.4812
 5264TIP3    H237284   6.609   6.752   6.398 -1.4664  1.6530 -0.7536
 5265TIP3   OH237285   3.927   5.899   3.703  0.1676 -0.1398 -0.7474
 5265TIP3    H137286   4.022   5.897   3.702  0.2048  0.5999 -2.6912
 5265TIP3    H237287   3.905   5.993   3.703 -0.5790 -0.2917  0.7246
 5266TIP3   OH237288   4.996   0.554   3.398  0.1750 -0.0362  0.2966
 5266TIP3    H137289   5.075   0.608   3.391  0.4635 -0.2765  1.4046
 5266TIP3    H237290   4.953   0.585   3.477 -0.6372 -0.1821 -0.0799
 5267TIP3   OH237291   1.777   2.540  11.483  0.1308  0.2688  0.4761
 5267TIP3    H137292   1.863   2.517  11.448  0.3628 -0.3943  1.4543
 5267TIP3    H237293   1.745   2.609  11.425  1.5428  0.8813  0.4008
 5268TIP3   OH237294   2.997   0.590  15.739 -0.3605 -0.4782 -0.5923
 5268TIP3    H137295   2.924   0.588  15.800  1.4827 -1.0635  1.7481
 5268TIP3    H237296   2.995   0.678  15.702 -2.3064 -0.5432 -0.7221
 5269TIP3   OH237297   4.990   6.200  12.479  0.1340  0.0555  0.5403
 5269TIP3    H137298   5.074   6.205  12.433 -0.4089 -2.2274 -0.8159
 5269TIP3    H237299   4.986   6.111  12.514 -0.7635  0.8303  2.5933
 5270TIP3   OH237300   6.451   4.917   2.369 -0.0819  0.1220  0.0222
 5270TIP3    H137301   6.513   4.872   2.427 -0.6794 -1.6038 -0.6365
 5270TIP3    H237302   6.505   4.947   2.296  0.0955 -0.8161 -0.2414
 5271TIP3   OH237303   5.728   4.493   1.850  0.3088  0.0794 -0.2465
 5271TIP3    H137304   5.724   4.509   1.944 -0.9261  1.3790 -0.4826
 5271TIP3    H237305   5.678   4.413   1.837 -1.0093  0.8292  0.0374
 5272TIP3   OH237306   3.404   2.648  14.453 -0.4624 -0.1338 -0.2236
 5272TIP3    H137307   3.486   2.627  14.409  0.2784  0.0548  1.0293
 5272TIP3    H237308   3.429   2.666  14.543 -1.6834  1.4608 -0.1628
 5273TIP3   OH237309   0.779   0.361   5.644 -0.4168 -0.2141 -0.8822
 5273TIP3    H137310   0.846   0.327   5.703 -0.3970  1.0260 -0.1642
 5273TIP3    H237311   0.779   0.456   5.660 -1.3023 -0.0183 -1.9539
 5274TIP3   OH237312   2.354   3.544  11.382 -0.3364  0.5961  0.4869
 5274TIP3    H137313   2.292   3.611  11.353 -2.3146 -2.1463 -2.3071
 5274TIP3    H237314   2.299   3.469  11.403  1.9054 -1.9131 -1.9184
 5275TIP3   OH237315   1.597   4.427   5.743  0.8817 -0.0473 -0.5172
 5275TIP3    H137316   1.524   4.373   5.712  1.2960  0.3035 -2.2011
 5275TIP3    H237317   1.556   4.509   5.771  0.4728 -0.4565  0.1085
 5276TIP3   OH237318   3.338   5.580   5.426 -0.7102 -0.2413 -0.5232
 5276TIP3    H137319   3.393   5.653   5.452 -0.2007  0.4603 -3.3551
 5276TIP3    H237320   3.395   5.503   5.432 -0.0744  0.1644 -1.2788
 5277TIP3   OH237321   5.368   3.742  11.395  0.0094  0.3117 -0.1184
 5277TIP3    H137322   5.448   3.728  11.344 -0.5870  0.2205 -1.0656
 5277TIP3    H237323   5.397   3.787  11.474  1.4878 -2.6046  1.1845
 5278TIP3   OH237324   5.236   6.810  16.196 -0.6762 -0.0140  0.2759
 5278TIP3    H137325   5.233   6.818  16.101 -1.8613 -0.3400  0.2651
 5278TIP3    H237326   5.329   6.814  16.218 -0.2548 -1.5404 -1.0384
 5279TIP3   OH237327   3.367   2.631   0.713 -0.0444  0.0395 -0.2332
 5279TIP3    H137328   3.323   2.603   0.633  0.0920 -1.3180  0.1506
 5279TIP3    H237329   3.435   2.691   0.683 -0.1065 -0.3210 -1.1244
 5280TIP3   OH237330   0.864   2.438  10.942 -0.1443  0.3624 -0.2180
 5280TIP3    H137331   0.860   2.475  11.030 -2.0327 -1.1401  0.3915
 5280TIP3    H237332   0.785   2.471  10.898  0.0407 -0.0463 -0.8674
 5281TIP3   OH237333   5.463   5.954  12.135  0.1345 -0.0947 -0.2388
 5281TIP3    H137334   5.442   5.885  12.198 -1.4215 -0.3178 -0.9480
 5281TIP3    H237335   5.491   5.908  12.056 -0.3361  0.0924 -0.5217
 5282TIP3   OH237336   5.337   4.085  12.624 -0.3652  0.9611  0.2182
 5282TIP3    H137337   5.346   4.175  12.595 -4.0568  2.2922  2.4967
 5282TIP3    H237338   5.273   4.047  12.564 -2.5597  1.5121  2.0794
 5283TIP3   OH237339   2.017   2.439  15.191  0.2003 -0.0030  0.7886
 5283TIP3    H137340   2.104   2.435  15.151 -0.5343  0.8097 -0.9667
 5283TIP3    H237341   1.980   2.352  15.176  0.6562 -0.3356  1.4990
 5284TIP3   OH237342   1.743   5.884   4.636 -0.5226  0.0509 -0.0607
 5284TIP3    H137343   1.655   5.910   4.662 -0.3745  0.7882 -0.2674
 5284TIP3    H237344   1.799   5.957   4.663  0.0742 -0.5338  0.3283
 5285TIP3   OH237345   6.764   2.335   1.077 -0.2479 -0.1255  0.5352
 5285TIP3    H137346   6.732   2.247   1.056 -0.6105 -0.5542  2.7309
 5285TIP3    H237347   6.686   2.384   1.100 -0.1427  1.0459 -1.3389
 5286TIP3   OH237348   4.869   3.934   6.105  0.5224 -0.2086  0.2151
 5286TIP3    H137349   4.957   3.961   6.129  0.2036  1.4904 -0.3918
 5286TIP3    H237350   4.830   3.903   6.186  1.8185 -1.4859  0.3918
 5287TIP3   OH237351   6.598   6.114   3.357  0.3650 -0.0248 -0.7303
 5287TIP3    H137352   6.521   6.141   3.406 -0.4499 -1.8107 -0.9251
 5287TIP3    H237353   6.670   6.164   3.395 -0.5160 -0.0702  1.1122
 5288TIP3   OH237354   0.395   4.212   2.134  0.4607 -0.3445 -0.2100
 5288TIP3    H137355   0.419   4.214   2.226  0.2264  0.9996 -0.1504
 5288TIP3    H237356   0.477   4.195   2.087  0.8440  0.4182  0.1741
 5289TIP3   OH237357   5.120   3.625  15.162  0.0045 -0.5082  0.5324
 5289TIP3    H137358   5.080   3.542  15.188 -1.0654 -0.4637 -0.8509
 5289TIP3    H237359   5.070   3.653  15.085  1.9988  0.1270 -0.6043
 5290TIP3   OH237360   3.540   2.789   1.796  0.1960  0.2018  0.6628
 5290TIP3    H137361   3.600   2.863   1.805  0.7994 -0.4255  2.3042
 5290TIP3    H237362   3.453   2.828   1.801  0.4383  1.0568 -1.1016
 5291TIP3   OH237363   3.596   1.257   1.719 -0.1276  0.5837 -0.9406
 5291TIP3    H137364   3.676   1.207   1.734 -0.1296  0.4374 -1.3814
 5291TIP3    H237365   3.623   1.326   1.658 -0.2734  0.7085 -0.8633
 5292TIP3   OH237366   1.403   6.017   6.231 -0.0791  0.6053 -0.2541
 5292TIP3    H137367   1.474   6.043   6.290  0.7474  0.5962 -1.2273
 5292TIP3    H237368   1.418   5.924   6.214  0.6207  0.9525 -1.6973
 5293TIP3   OH237369   5.773   3.038  16.423 -0.3856 -0.2125 -0.0817
 5293TIP3    H137370   5.822   3.081  16.493 -1.0799  1.4400 -0.5570
 5293TIP3    H237371   5.775   3.102  16.351  0.0737 -1.7412 -1.4757
 5294TIP3   OH237372   6.433   3.375  13.355 -0.0156  0.1355 -0.3384
 5294TIP3    H137373   6.497   3.364  13.284  0.0986  0.1417 -0.2365
 5294TIP3    H237374   6.356   3.327  13.324  0.0046  0.2069 -0.5031
 5295TIP3   OH237375   1.407   5.228  10.527  0.4461  0.1003 -0.2602
 5295TIP3    H137376   1.359   5.282  10.589  0.2671  0.8507 -1.0235
 5295TIP3    H237377   1.489   5.207  10.571  1.9328  3.6003 -1.0196
 5296TIP3   OH237378   4.996   0.425   3.057  0.0469  0.2746 -0.0915
 5296TIP3    H137379   5.062   0.361   3.083 -0.7641 -0.1226  1.0971
 5296TIP3    H237380   5.037   0.475   2.987  1.1535 -0.7402 -0.2048
 5297TIP3   OH237381   2.615   5.556   0.289  0.3080 -0.0489 -0.2917
 5297TIP3    H137382   2.603   5.614   0.214 -0.4686 -0.0612 -0.1816
 5297TIP3    H237383   2.693   5.505   0.267  0.8780  0.8799 -0.4811
 5298TIP3   OH237384   0.607   4.339   6.081  0.1677 -0.1232  0.6953
 5298TIP3    H137385   0.518   4.347   6.113  0.8752 -1.6538  3.3642
 5298TIP3    H237386   0.641   4.260   6.124  2.7282  0.2341 -0.4615
 5299TIP3   OH237387   3.586   1.302  12.322 -0.2081  0.2056  0.0917
 5299TIP3    H137388   3.518   1.235  12.331  0.6843 -0.6918  0.2776
 5299TIP3    H237389   3.628   1.282  12.239 -0.1684  0.7633 -0.0262
 5300TIP3   OH237390   1.519   5.720  12.881 -0.4775 -0.3438  1.2995
 5300TIP3    H137391   1.592   5.781  12.869 -2.1506  1.4617 -0.4230
 5300TIP3    H237392   1.545   5.667  12.956  1.5325  1.8201  2.2798
 5301TIP3   OH237393   5.096   4.683   5.368 -0.2544 -0.4064 -0.1493
 5301TIP3    H137394   5.057   4.767   5.392 -1.2158 -0.8402 -0.1686
 5301TIP3    H237395   5.190   4.698   5.373 -0.3720  1.1826 -1.8030
 5302TIP3   OH237396   4.451   5.580   5.251 -0.0344  0.2948  0.4181
 5302TIP3    H137397   4.510   5.521   5.299  1.3322 -0.0720 -1.5899
 5302TIP3    H237398   4.379   5.524   5.222 -0.0362  0.1646  0.6730
 5303TIP3   OH237399   6.113   1.472   1.107  0.4290 -0.7780  0.2211
 5303TIP3    H137400   6.028   1.513   1.121  0.4692 -1.0717  1.4810
 5303TIP3    H237401   6.148   1.460   1.195  1.2205 -1.8195 -0.2105
 5304TIP3   OH237402   4.288   6.454   2.379  0.1973 -0.3290 -0.5174
 5304TIP3    H137403   4.369   6.402   2.386 -0.0869 -0.7500 -0.3010
 5304TIP3    H237404   4.271   6.483   2.468 -1.1356 -2.1788 -0.0961
 5305TIP3   OH237405   4.582   4.203  15.718  0.2429 -0.2452 -0.1525
 5305TIP3    H137406   4.550   4.116  15.693 -1.9275 -0.4030  2.7497
 5305TIP3    H237407   4.516   4.264  15.684  0.9398  0.1839 -0.7894
 5306TIP3   OH237408   0.177   1.774  15.209  0.1479  0.0554  0.3779
 5306TIP3    H137409   0.180   1.698  15.150  0.1114  0.4917 -0.1963
 5306TIP3    H237410   0.089   1.772  15.246  0.4460 -0.6982  1.0610
 5307TIP3   OH237411   0.198   2.159  16.192 -0.1068  0.1594  0.1931
 5307TIP3    H137412   0.129   2.118  16.244  0.3757 -0.1925  0.5628
 5307TIP3    H237413   0.205   2.104  16.114  0.6832 -0.5964  0.7854
 5308TIP3   OH237414   5.509   1.800   1.458  0.4297 -0.0837  0.0200
 5308TIP3    H137415   5.461   1.792   1.541 -0.7206  1.8468 -0.3842
 5308TIP3    H237416   5.598   1.771   1.479  0.2869  0.7776  2.0791
 5309TIP3   OH237417   1.735   3.028   3.506 -0.3435 -0.4741  0.1487
 5309TIP3    H137418   1.715   3.027   3.600 -0.1944 -0.3735  0.1821
 5309TIP3    H237419   1.818   2.981   3.499 -0.1498 -0.1316  0.1165
 5310TIP3   OH237420   6.619   6.748   5.165  0.4110 -0.4197 -0.0114
 5310TIP3    H137421   6.552   6.794   5.215  0.1386  0.3541 -1.0588
 5310TIP3    H237422   6.602   6.655   5.182 -0.0303 -0.1808  0.8611
 5311TIP3   OH237423   2.825   0.027   0.088  0.1185 -0.7213  0.0358
 5311TIP3    H137424   2.914  -0.000   0.066  0.9650  1.7540  0.0765
 5311TIP3    H237425   2.793  -0.041   0.147  0.5744 -3.5976 -2.7271
 5312TIP3   OH237426   5.685   6.239  11.909 -0.4195 -0.2081  0.6764
 5312TIP3    H137427   5.599   6.252  11.950 -0.4186 -0.3035  0.7069
 5312TIP3    H237428   5.685   6.298  11.834 -0.0979  0.6144  1.2997
 5313TIP3   OH237429   0.550   5.207   5.427  0.6922  0.0783 -0.4789
 5313TIP3    H137430   0.490   5.180   5.497  1.1597 -0.2735 -0.2107
 5313TIP3    H237431   0.566   5.127   5.377 -1.0761  0.6713 -2.1206
 5314TIP3   OH237432   3.908   2.248   2.569  0.4274  0.1556 -0.4006
 5314TIP3    H137433   3.837   2.312   2.579  0.5343  0.4836 -1.5835
 5314TIP3    H237434   3.910   2.202   2.653 -3.2822 -2.0438 -1.2879
 5315TIP3   OH237435   4.376   2.457   4.528  0.1810 -0.0707  0.2679
 5315TIP3    H137436   4.285   2.487   4.522  0.3234  0.1879 -1.0040
 5315TIP3    H237437   4.392   2.445   4.621 -1.7264 -1.8749  0.4433
 5316TIP3   OH237438   0.894   1.232  12.785 -0.0516  0.3403  0.2476
 5316TIP3    H137439   0.968   1.175  12.765  0.2405  1.1460 -1.0873
 5316TIP3    H237440   0.892   1.295  12.713 -2.1051  0.2804  0.2089
 5317TIP3   OH237441   5.583   5.355  12.962 -0.2411  0.6766 -0.2625
 5317TIP3    H137442   5.518   5.290  12.934  0.2456 -1.7501  3.5161
 5317TIP3    H237443   5.534   5.415  13.018  0.1544  0.8798 -0.1324
 5318TIP3   OH237444   6.523   1.293   1.603 -0.0565  0.1134 -0.1277
 5318TIP3    H137445   6.591   1.338   1.553 -0.7978  2.3330  0.7312
 5318TIP3    H237446   6.570   1.230   1.657  1.0071 -0.3597 -1.5480
 5319TIP3   OH237447   5.442   2.695  13.309 -0.2159  0.3152  0.8020
 5319TIP3    H137448   5.422   2.698  13.402 -0.8676  0.8974  0.6512
 5319TIP3    H237449   5.525   2.741  13.301  0.1731 -0.3061  1.1712
 5320TIP3   OH237450   1.922   3.664   4.373 -0.3124  0.1755  0.2196
 5320TIP3    H137451   1.972   3.625   4.445 -1.5191 -0.5584  0.6864
 5320TIP3    H237452   1.937   3.606   4.299  0.2536  0.4658  0.1002
 5321TIP3   OH237453   3.673   3.792   2.541  0.1019 -0.3148 -0.3454
 5321TIP3    H137454   3.663   3.710   2.491  0.4080 -1.3475  1.1975
 5321TIP3    H237455   3.767   3.801   2.552  0.0489  0.0540 -0.2035
 5322TIP3   OH237456   2.772   1.373   0.381  0.2757  0.5707  0.2040
 5322TIP3    H137457   2.832   1.385   0.455  1.1388  2.4895 -0.7361
 5322TIP3    H237458   2.828   1.342   0.310 -0.0836  1.0968 -0.3114
 5323TIP3   OH237459   2.858   5.880   6.607  0.4046  0.4166 -0.0359
 5323TIP3    H137460   2.926   5.827   6.565 -0.0000  1.5496 -2.2893
 5323TIP3    H237461   2.905   5.936   6.668  1.2099 -0.3373  0.0480
 5324TIP3   OH237462   6.812   1.084  11.150  0.3142 -0.1926 -0.1985
 5324TIP3    H137463   6.740   1.023  11.169  0.2667 -0.7005 -1.8188
 5324TIP3    H237464   6.782   1.168  11.186  0.2027 -0.9902  1.7268
 5325TIP3   OH237465   0.909   0.929  11.938  0.4091 -0.3724  0.1457
 5325TIP3    H137466   0.931   1.015  11.901 -0.1111 -0.5645 -0.6341
 5325TIP3    H237467   0.972   0.869  11.899 -1.3481 -0.9116 -2.0430
 5326TIP3   OH237468   4.987   0.070   3.162  0.3239 -0.1944  0.3104
 5326TIP3    H137469   5.039   0.151   3.163 -0.4345  0.3746 -1.3302
 5326TIP3    H237470   5.050   0.002   3.137  0.0966  0.7748 -3.5991
 5327TIP3   OH237471   0.575   5.376   1.932 -0.1036 -0.0904 -0.0035
 5327TIP3    H137472   0.499   5.391   1.875  0.2142 -1.6618 -0.9009
 5327TIP3    H237473   0.650   5.404   1.879  0.2269 -1.9010 -0.5644
 5328TIP3   OH237474   2.058   2.790  14.389 -0.1782 -0.4670 -0.2291
 5328TIP3    H137475   2.116   2.847  14.337  0.3975  0.4600  1.3633
 5328TIP3    H237476   1.984   2.773  14.330  0.3037  0.7782 -1.2691
 5329TIP3   OH237477   3.387   1.768  16.347 -0.1140  0.1243 -0.1993
 5329TIP3    H137478   3.329   1.707  16.301 -1.0986  1.2411 -0.4790
 5329TIP3    H237479   3.476   1.741  16.322 -0.3743 -2.4458  1.2631
 5330TIP3   OH237480   6.396   2.385  15.237  0.2080 -0.0022 -0.0692
 5330TIP3    H137481   6.441   2.459  15.196  0.9076  0.3982  1.3222
 5330TIP3    H237482   6.347   2.344  15.167  2.9993 -0.6513 -1.8109
 5331TIP3   OH237483   0.066   2.290  15.277 -0.0004  0.0529 -0.1390
 5331TIP3    H137484   0.089   2.313  15.186  0.2664  2.2644  0.4102
 5331TIP3    H237485  -0.020   2.330  15.291 -0.2775 -0.7239  0.4334
 5332TIP3   OH237486   5.181   5.363   0.307  0.7882 -0.4247 -0.2922
 5332TIP3    H137487   5.132   5.294   0.261  0.8410 -0.6608  0.0054
 5332TIP3    H237488   5.243   5.315   0.362 -0.1525 -0.1827  1.0288
 5333TIP3   OH237489   6.182   1.223  16.496  0.7521 -0.2533 -0.3218
 5333TIP3    H137490   6.161   1.314  16.476  1.4037  0.2374  1.0689
 5333TIP3    H237491   6.201   1.183  16.411  2.2360  1.3842 -0.8125
 5334TIP3   OH237492   5.537   4.730  13.723  0.2988 -0.3207  0.1204
 5334TIP3    H137493   5.615   4.783  13.709 -1.7716  2.6449 -1.3057
 5334TIP3    H237494   5.522   4.686  13.639  0.5187 -1.0385  0.4511
 5335TIP3   OH237495   0.729   4.246   4.416 -0.2943 -0.1695  0.3477
 5335TIP3    H137496   0.652   4.302   4.426  0.0333  0.0004  2.3180
 5335TIP3    H237497   0.800   4.306   4.397 -0.2127 -0.0439  1.0131
 5336TIP3   OH237498   1.484   2.140  17.038 -0.3735 -0.0983  0.3781
 5336TIP3    H137499   1.393   2.157  17.062  0.0757  3.6738 -0.1013
 5336TIP3    H237500   1.514   2.078  17.105 -2.6688  0.2506  1.8702
 5337TIP3   OH237501   2.776   4.951   4.253  0.0698  0.8632 -0.2574
 5337TIP3    H137502   2.810   5.035   4.222 -2.5250  1.9764 -0.3684
 5337TIP3    H237503   2.696   4.938   4.202  0.4821 -1.8084 -0.3698
 5338TIP3   OH237504   5.754   2.191   6.523  0.5353 -1.1260  0.4236
 5338TIP3    H137505   5.661   2.188   6.502  0.5139 -0.5859  0.4348
 5338TIP3    H237506   5.786   2.270   6.481  0.8604 -0.9756  0.9415
 5339TIP3   OH237507   6.654   6.048  15.623  0.5251 -0.1785  0.0704
 5339TIP3    H137508   6.662   5.955  15.605  0.7529 -0.7963  2.8339
 5339TIP3    H237509   6.744   6.081  15.620  0.3890  0.1056 -1.4475
 5340TIP3   OH237510   0.579   6.827   2.847 -0.4145 -0.3174  0.2278
 5340TIP3    H137511   0.643   6.764   2.813 -0.2769  1.2404 -2.7052
 5340TIP3    H237512   0.497   6.804   2.803 -1.5592 -1.2078  2.6414
 5341TIP3   OH237513   3.736   6.034  14.710 -0.3526  0.0543  0.0930
 5341TIP3    H137514   3.655   6.072  14.742 -0.1888 -0.4886  1.1770
 5341TIP3    H237515   3.805   6.086  14.751 -0.1316  0.7264 -1.0800
 5342TIP3   OH237516   0.888   6.588  16.233 -0.3778 -0.1198 -0.1981
 5342TIP3    H137517   0.896   6.658  16.169 -0.0491  0.1117  0.0917
 5342TIP3    H237518   0.919   6.627  16.315 -0.9030 -0.3768  0.1270
 5343TIP3   OH237519   6.282   2.116   2.612  0.2224 -0.0402  0.1190
 5343TIP3    H137520   6.262   2.050   2.545  0.2095  0.7054 -0.6282
 5343TIP3    H237521   6.226   2.191   2.589  2.7509  1.5908 -1.2081
 5344TIP3   OH237522   1.125   1.204   3.208 -0.1580  0.6299  0.1784
 5344TIP3    H137523   1.119   1.240   3.297 -1.1403  0.6699  0.1112
 5344TIP3    H237524   1.034   1.186   3.184  0.0313  1.2374 -1.0725
 5345TIP3   OH237525   1.134   2.221  15.385 -0.3653 -0.2080  0.5486
 5345TIP3    H137526   1.137   2.264  15.471 -1.7169  0.9609  0.0529
 5345TIP3    H237527   1.148   2.292  15.322  0.0574 -0.9614 -0.2171
 5346TIP3   OH237528   6.144   5.739   1.786  0.0614  0.8206 -0.1516
 5346TIP3    H137529   6.106   5.666   1.835  0.8165  0.9248  0.6031
 5346TIP3    H237530   6.238   5.733   1.803  0.7210 -0.5841 -3.4567
 5347TIP3   OH237531   2.801   5.119   3.888 -0.1458 -0.4443 -0.3907
 5347TIP3    H137532   2.837   5.136   3.975 -0.0842 -0.9915 -0.3032
 5347TIP3    H237533   2.772   5.028   3.892 -0.0368 -0.5071 -0.9779
 5348TIP3   OH237534   3.359   1.820   5.360 -0.6373  0.1296 -0.2356
 5348TIP3    H137535   3.435   1.812   5.418 -0.3496 -0.0345 -0.6283
 5348TIP3    H237536   3.284   1.811   5.418 -0.3762  1.2716  0.3070
 5349TIP3   OH237537   3.936   3.543  17.105 -0.2070 -0.4858  0.0006
 5349TIP3    H137538   3.860   3.571  17.053  1.0496  0.2499 -1.5171
 5349TIP3    H237539   3.933   3.600  17.182 -1.4147 -0.7416  0.1740
 5350TIP3   OH237540   4.793   1.757   2.183 -0.3766 -0.2259  0.3315
 5350TIP3    H137541   4.794   1.670   2.221 -2.4322 -0.1205  0.7981
 5350TIP3    H237542   4.761   1.814   2.254 -1.4023  0.4761 -0.6525
 5351TIP3   OH237543   0.635   3.485  13.129 -0.7370 -0.3384  0.5129
 5351TIP3    H137544   0.726   3.513  13.116 -0.9417  0.6634  1.1527
 5351TIP3    H237545   0.588   3.519  13.053 -0.2601 -2.5121 -0.8295
 5352TIP3   OH237546   2.809   2.726   2.136 -0.0824 -0.2918 -0.7840
 5352TIP3    H137547   2.765   2.676   2.205 -0.9662 -0.5073 -1.5013
 5352TIP3    H237548   2.821   2.813   2.174  2.2341 -1.1986  0.8033
 5353TIP3   OH237549   0.594   5.140   1.365  0.4812  0.1664 -0.9226
 5353TIP3    H137550   0.586   5.106   1.454 -2.3273 -0.1972 -1.2238
 5353TIP3    H237551   0.652   5.216   1.374 -0.7919  0.9899  1.5113
 5354TIP3   OH237552   2.075   6.497  16.308  0.0210 -0.0560 -0.9418
 5354TIP3    H137553   2.019   6.573  16.327 -1.0350 -1.4856  2.2375
 5354TIP3    H237554   2.032   6.454  16.234 -0.4694  1.2990 -1.4949
 5355TIP3   OH237555   2.661   1.014   1.602 -0.1943  0.1470  0.3188
 5355TIP3    H137556   2.663   0.988   1.694  1.1223  0.4365  0.3888
 5355TIP3    H237557   2.656   1.110   1.604 -1.3854  0.1097  0.0667
 5356TIP3   OH237558   5.778   3.179  15.394  0.1592  0.1345  0.1065
 5356TIP3    H137559   5.686   3.173  15.418  0.1711 -2.7337 -0.1739
 5356TIP3    H237560   5.825   3.144  15.471  0.7184 -1.6830 -0.9945
 5357TIP3   OH237561   1.716   2.980  16.903  0.2084 -0.1163 -0.5204
 5357TIP3    H137562   1.662   3.055  16.929 -0.1809 -0.3675 -0.5893
 5357TIP3    H237563   1.766   3.010  16.827  1.1924  0.5597  0.3662
 5358TIP3   OH237564   0.953   2.821   5.560 -0.2679  0.4190 -0.1998
 5358TIP3    H137565   0.910   2.871   5.630  1.7475 -0.3869  1.7506
 5358TIP3    H237566   0.992   2.746   5.606  1.9483  0.3598 -2.0395
 5359TIP3   OH237567   1.360   5.033  11.650 -0.0913  0.0984  0.2822
 5359TIP3    H137568   1.352   5.006  11.559 -0.6088 -1.0898  0.6609
 5359TIP3    H237569   1.387   5.124  11.646 -2.1693  0.7027 -1.0642
 5360TIP3   OH237570   4.230   6.204   1.772 -0.5395  0.2815  0.2877
 5360TIP3    H137571   4.142   6.176   1.797 -1.2096  1.8407 -0.2370
 5360TIP3    H237572   4.280   6.201   1.854 -1.4398  0.7186  0.8690
 5361TIP3   OH237573   3.326   1.139  11.185  0.0733  0.1170  0.0192
 5361TIP3    H137574   3.417   1.166  11.198 -0.1015  0.7394  0.0095
 5361TIP3    H237575   3.331   1.046  11.161  0.7376  0.2742 -0.4907
 5362TIP3   OH237576   2.651   0.819   4.238  0.3876 -1.0892  0.0631
 5362TIP3    H137577   2.577   0.879   4.250  0.5431 -1.2054  1.8959
 5362TIP3    H237578   2.726   0.876   4.225  0.3019 -0.9168  0.3131
 5363TIP3   OH237579   1.106   6.517   4.159 -0.1096 -0.3983 -0.0261
 5363TIP3    H137580   1.084   6.441   4.212  2.6344 -1.0429  0.3723
 5363TIP3    H237581   1.148   6.481   4.081 -0.3840  0.6496 -0.6833
 5364TIP3   OH237582   4.559   2.584   2.563  0.0068  0.1191  0.0757
 5364TIP3    H137583   4.603   2.574   2.647 -1.0583 -2.4255  0.4065
 5364TIP3    H237584   4.565   2.498   2.522 -2.4025  0.3889 -0.9851
 5365TIP3   OH237585   1.845   4.273  14.963  0.3945  0.0575 -0.2232
 5365TIP3    H137586   1.897   4.283  15.043  1.5200  0.7244 -1.0137
 5365TIP3    H237587   1.762   4.236  14.993  1.3507 -1.1590  1.0593
 5366TIP3   OH237588   1.490   0.804  10.493  0.0215  0.5301 -0.7188
 5366TIP3    H137589   1.554   0.827  10.560  0.1736 -1.9786  0.1288
 5366TIP3    H237590   1.542   0.772  10.419 -0.2135 -0.1338 -0.6004
 5367TIP3   OH237591   3.158   4.285   4.443  0.5947 -0.3298  0.0232
 5367TIP3    H137592   3.217   4.211   4.431  1.1054  0.2929 -1.6165
 5367TIP3    H237593   3.215   4.362   4.443 -0.1422  0.2452 -1.0914
 5368TIP3   OH237594   0.589   5.125  13.857 -0.6218 -0.2701 -0.0100
 5368TIP3    H137595   0.572   5.040  13.898  1.0015 -0.9448 -0.6549
 5368TIP3    H237596   0.620   5.103  13.769 -2.2396  1.0825 -0.9713
 5369TIP3   OH237597   3.514   6.635  15.924 -0.3960  0.1629 -0.8239
 5369TIP3    H137598   3.569   6.603  15.852 -2.0457 -2.2801 -1.1323
 5369TIP3    H237599   3.555   6.602  16.003  0.3339  1.1585 -0.7724
 5370TIP3   OH237600   6.220   1.563  15.399 -0.2281  0.0819  0.2504
 5370TIP3    H137601   6.196   1.533  15.311  2.5059 -1.2844 -0.1399
 5370TIP3    H237602   6.204   1.488  15.455  0.2295  0.1632  0.4941
 5371TIP3   OH237603   3.257   2.581  12.457  0.3640 -0.0991  0.1811
 5371TIP3    H137604   3.253   2.560  12.550  1.5846 -3.3689 -0.3705
 5371TIP3    H237605   3.177   2.542  12.420 -0.8281  2.3692 -0.0503
 5372TIP3   OH237606   2.207   5.413  12.103  0.4128 -0.6436 -0.0153
 5372TIP3    H137607   2.113   5.409  12.118  0.2719  0.0636 -0.6474
 5372TIP3    H237608   2.243   5.341  12.154 -0.3726 -0.3438  0.9888
 5373TIP3   OH237609   0.041   5.968   3.579  0.3184  0.1833  0.0359
 5373TIP3    H137610  -0.003   5.914   3.514  1.6967 -0.2204 -0.5800
 5373TIP3    H237611   0.106   6.017   3.530 -1.4341  3.1457  0.4010
 5374TIP3   OH237612   4.992   6.095   6.085  0.1070 -0.4043 -0.1502
 5374TIP3    H137613   4.993   6.044   6.004  1.2494  0.2352 -0.5619
 5374TIP3    H237614   4.935   6.046   6.144  1.1962 -2.1894 -0.5143
 5375TIP3   OH237615   5.231   0.023   2.599 -0.6549 -0.2082  0.3284
 5375TIP3    H137616   5.259  -0.066   2.578  0.1126 -0.3355  1.7692
 5375TIP3    H237617   5.280   0.079   2.539  4.0758 -0.3027  3.6178
 5376TIP3   OH237618   4.741   2.880   2.679  0.9391  0.6241 -0.2551
 5376TIP3    H137619   4.816   2.821   2.680 -0.7407 -1.6669  1.0107
 5376TIP3    H237620   4.704   2.871   2.591  0.0818 -1.1724  0.2341
 5377TIP3   OH237621   4.546   0.578  16.647 -0.0082  0.1573 -0.0893
 5377TIP3    H137622   4.630   0.538  16.669 -0.2507 -0.1875  0.2332
 5377TIP3    H237623   4.511   0.607  16.731 -0.0672  0.5874 -0.2632
 5378TIP3   OH237624   0.379   6.422   1.780  0.0690  0.2932 -0.0874
 5378TIP3    H137625   0.296   6.405   1.736  0.1851  0.3192 -0.3225
 5378TIP3    H237626   0.442   6.365   1.735 -0.4375 -2.3875  2.3236
 5379TIP3   OH237627   1.948   1.151  12.887 -0.2465  0.1824 -0.0873
 5379TIP3    H137628   1.967   1.140  12.794  0.9303 -0.4234  0.2055
 5379TIP3    H237629   1.963   1.065  12.926  1.3245  0.8911  0.9813
 5380TIP3   OH237630   2.950   3.106   6.253  0.3571  0.0579  0.3962
 5380TIP3    H137631   3.027   3.090   6.308 -0.3099 -0.6884  1.1340
 5380TIP3    H237632   2.912   3.187   6.288  1.5500  1.2133 -0.8524
 5381TIP3   OH237633   1.312   3.580   0.059 -0.0301  0.5422 -0.1707
 5381TIP3    H137634   1.235   3.524   0.058  0.1034  0.2622  1.8709
 5381TIP3    H237635   1.375   3.534   0.114  1.2344  1.2494 -0.9865
 5382TIP3   OH237636   0.439   6.664  11.974 -0.0735  0.3621  0.1401
 5382TIP3    H137637   0.488   6.650  11.893  0.0548  1.1802  0.0640
 5382TIP3    H237638   0.365   6.719  11.948  0.0570  0.7637  0.6019
 5383TIP3   OH237639   3.375   1.113  11.982  0.5996  0.6804  0.2342
 5383TIP3    H137640   3.281   1.095  11.990  0.7220  0.0173  0.2310
 5383TIP3    H237641   3.417   1.027  11.991  1.1336  0.7693 -1.1782
 5384TIP3   OH237642   0.348   5.789   3.169  0.3173 -0.5263  0.6320
 5384TIP3    H137643   0.400   5.740   3.233  0.3095  0.8993  1.7652
 5384TIP3    H237644   0.396   5.870   3.156 -0.2196 -0.3655 -0.4153
 5385TIP3   OH237645   6.714   6.376  11.665  0.0013  0.4186 -0.4998
 5385TIP3    H137646   6.680   6.310  11.604 -0.1597  0.8233 -0.8515
 5385TIP3    H237647   6.801   6.344  11.689 -0.8117 -0.9143  0.8340
 5386TIP3   OH237648   0.196   5.701  14.032 -0.5002 -0.7741  0.0838
 5386TIP3    H137649   0.165   5.636  13.969 -0.3035 -0.2006 -0.6214
 5386TIP3    H237650   0.125   5.765  14.038 -0.2386 -0.4590 -0.0986
 5387TIP3   OH237651   3.574   3.485  14.735 -0.0201 -0.5134  0.5243
 5387TIP3    H137652   3.609   3.558  14.786  1.7458 -0.2180 -1.0117
 5387TIP3    H237653   3.504   3.524  14.682  0.9035  0.1100 -0.2789
 5388TIP3   OH237654   2.105   3.913  13.959 -0.2916 -0.0595 -0.0224
 5388TIP3    H137655   2.166   3.970  13.913 -0.7249  1.0487  0.7296
 5388TIP3    H237656   2.160   3.857  14.013  0.0777  1.3296  1.1068
 5389TIP3   OH237657   5.123   5.501   4.139  0.4474  0.3145  0.0654
 5389TIP3    H137658   5.126   5.409   4.165 -2.4689 -0.0900 -0.6535
 5389TIP3    H237659   5.214   5.526   4.128  1.4665 -1.7017  2.8358
 5390TIP3   OH237660   5.520   1.889   5.012 -0.3430  0.2016  0.0148
 5390TIP3    H137661   5.498   1.852   5.097 -0.0472  0.8974  0.4012
 5390TIP3    H237662   5.563   1.818   4.965 -0.2186 -0.0900  0.5651
 5391TIP3   OH237663   2.001   3.256   1.119 -0.3531  0.2819  0.2330
 5391TIP3    H137664   2.028   3.264   1.028  0.3301  2.3500  0.5806
 5391TIP3    H237665   2.071   3.206   1.161  0.0463  0.5755 -0.0809
 5392TIP3   OH237666   4.212   2.399   3.748 -0.1164 -0.5900 -0.2961
 5392TIP3    H137667   4.257   2.333   3.696  1.1767  0.4080 -0.4868
 5392TIP3    H237668   4.258   2.399   3.832 -1.6860 -1.6383  0.6078
 5393TIP3   OH237669   5.815   2.265  16.119  0.0152  0.3165 -0.2749
 5393TIP3    H137670   5.723   2.249  16.096  0.0709  0.9376 -0.9724
 5393TIP3    H237671   5.851   2.309  16.042  1.0709 -0.5117 -0.2610
 5394TIP3   OH237672   6.358   4.304  14.830 -0.5553 -0.3919 -0.2084
 5394TIP3    H137673   6.423   4.249  14.872  0.4667  0.6319 -0.3725
 5394TIP3    H237674   6.320   4.249  14.761  1.9550 -0.3068 -1.8049
 5395TIP3   OH237675   4.953   3.909   1.129 -0.1754 -0.1169 -0.1374
 5395TIP3    H137676   4.896   3.861   1.070  0.9939  0.2647 -1.6325
 5395TIP3    H237677   5.011   3.959   1.072  0.3713  1.0254  1.3461
 5396TIP3   OH237678   1.237   1.823   1.733  0.0937  0.1654  0.3728
 5396TIP3    H137679   1.254   1.830   1.827  0.4165  2.1422  0.1927
 5396TIP3    H237680   1.301   1.881   1.692 -0.6536  0.0526 -1.0060
 5397TIP3   OH237681   0.325   6.483  13.185 -0.8363 -0.2520  0.5998
 5397TIP3    H137682   0.265   6.415  13.154 -0.2649 -0.0592 -1.0315
 5397TIP3    H237683   0.364   6.446  13.264 -2.6950 -0.5862  1.4067
 5398TIP3   OH237684   0.155   0.521  10.968  0.1634 -0.1260  0.1071
 5398TIP3    H137685   0.246   0.531  10.996 -0.1943  2.3337  0.6240
 5398TIP3    H237686   0.112   0.479  11.043  0.5932 -0.0184  0.4233
 5399TIP3   OH237687   4.338   3.326   5.378 -0.7526 -0.3758  0.0009
 5399TIP3    H137688   4.372   3.268   5.310 -0.8861 -1.8283  1.1453
 5399TIP3    H237689   4.245   3.306   5.384 -0.7831 -0.1239  0.4836
 5400TIP3   OH237690   5.850   3.054   2.947  0.1579  0.7712  0.3591
 5400TIP3    H137691   5.770   3.091   2.910  0.5485  1.2754  0.0009
 5400TIP3    H237692   5.834   3.051   3.041 -0.4519  0.4441  0.2494
 5401TIP3   OH237693   0.892   5.792   1.698  0.1070  0.3546  0.2416
 5401TIP3    H137694   0.942   5.713   1.677  0.3220  0.1842  1.3289
 5401TIP3    H237695   0.807   5.760   1.729 -0.3451  0.6123 -0.6853
 5402TIP3   OH237696   2.636   2.403  14.938  0.4268 -0.0827 -0.3934
 5402TIP3    H137697   2.688   2.326  14.916  3.1718  1.5929 -0.1776
 5402TIP3    H237698   2.587   2.423  14.857  1.5210 -0.6757 -1.2265
 5403TIP3   OH237699   4.528   3.388  14.361 -0.3498 -0.6483  0.1736
 5403TIP3    H137700   4.520   3.481  14.343  0.1700 -1.0275 -2.3406
 5403TIP3    H237701   4.546   3.383  14.455 -0.3951  1.7581  0.3598
 5404TIP3   OH237702   2.294   5.626  15.973  1.2363  0.1395  0.1931
 5404TIP3    H137703   2.202   5.646  15.986  0.8509 -1.4968  0.2076
 5404TIP3    H237704   2.307   5.541  16.015  2.6793  0.1933 -0.0648
 5405TIP3   OH237705   6.731   6.218   1.925 -0.1566  0.4070 -0.1443
 5405TIP3    H137706   6.742   6.133   1.884  1.0892 -0.3860  1.7117
 5405TIP3    H237707   6.642   6.216   1.962  0.8043 -1.2670  2.2991
 5406TIP3   OH237708   4.798   0.113  16.687 -0.0264  0.0793 -0.0369
 5406TIP3    H137709   4.803   0.051  16.615  1.1846  0.5745 -0.3944
 5406TIP3    H237710   4.839   0.193  16.653  1.6437 -0.0394  1.5679
 5407TIP3   OH237711   5.558   4.434  12.708 -0.5994  0.3573 -0.4891
 5407TIP3    H137712   5.627   4.478  12.658 -0.0307 -1.3470 -1.2781
 5407TIP3    H237713   5.507   4.387  12.642 -1.7856  0.6095  0.2245
 5408TIP3   OH237714   6.006   0.577  11.541  0.2908  0.2300 -0.8878
 5408TIP3    H137715   6.018   0.505  11.479 -0.5249 -0.4089 -0.3354
 5408TIP3    H237716   6.062   0.555  11.615  1.3757  1.0665 -1.4452
 5409TIP3   OH237717   4.482   0.594  16.348 -0.3508  0.1348  0.0673
 5409TIP3    H137718   4.406   0.650  16.364 -1.3184 -0.8016 -1.1078
 5409TIP3    H237719   4.472   0.564  16.258  1.4304 -0.0095 -0.1234
 5410TIP3   OH237720   4.094   3.634  15.095  0.8006 -0.2113 -0.1215
 5410TIP3    H137721   4.090   3.562  15.159  0.2473 -0.1391 -0.0660
 5410TIP3    H237722   4.080   3.592  15.010  0.4367 -0.1684 -0.0852
 5411TIP3   OH237723   2.014   6.643  13.204 -0.4891 -0.4050 -0.0506
 5411TIP3    H137724   2.021   6.587  13.281 -1.1305  1.9418  1.8530
 5411TIP3    H237725   1.924   6.632  13.174 -0.7278 -0.1688  0.5481
 5412TIP3   OH237726   3.807   3.189  12.580 -0.5297  0.0685  0.6786
 5412TIP3    H137727   3.729   3.181  12.524 -0.2632 -0.2016  0.3490
 5412TIP3    H237728   3.803   3.279  12.612 -0.4855  0.3479 -0.0722
 5413TIP3   OH237729   5.277   0.223   2.375 -0.6695 -0.1618 -0.1109
 5413TIP3    H137730   5.214   0.293   2.361  0.9365  1.3762 -0.0488
 5413TIP3    H237731   5.351   0.245   2.317 -0.1826 -1.8942 -0.2042
 5414TIP3   OH237732   1.056   6.615   0.549 -0.5655 -0.4585  0.1929
 5414TIP3    H137733   1.149   6.602   0.535 -0.5825 -0.5355  0.1529
 5414TIP3    H237734   1.048   6.630   0.643 -0.4501  0.0888  0.1199
 5415TIP3   OH237735   1.411   1.730   5.720 -0.1904 -0.4089 -0.4665
 5415TIP3    H137736   1.416   1.813   5.675 -1.1475 -0.4992 -0.7472
 5415TIP3    H237737   1.387   1.753   5.810  0.1938 -0.3433 -0.3772
 5416TIP3   OH237738   1.824   3.976   2.668  0.1689  0.1842  0.0034
 5416TIP3    H137739   1.805   3.970   2.575 -0.0522 -0.1838  0.0703
 5416TIP3    H237740   1.772   3.906   2.708 -1.7176  1.8996  0.7186
 5417TIP3   OH237741   6.644   3.317  15.991 -0.3089 -0.4881 -0.8434
 5417TIP3    H137742   6.550   3.311  15.972 -0.2342 -0.0336 -1.3843
 5417TIP3    H237743   6.666   3.408  15.973 -0.2219  0.0032  1.4881
 5418TIP3   OH237744   0.466   3.391  10.909  0.2025 -0.3070  0.4051
 5418TIP3    H137745   0.410   3.401  10.987  0.7844  2.3157  0.5666
 5418TIP3    H237746   0.511   3.475  10.901  0.0240 -0.3972 -2.8900
 5419TIP3   OH237747   5.407   2.934   0.285 -0.1414  0.5844  0.3712
 5419TIP3    H137748   5.409   2.847   0.246 -0.4712  0.4739  0.5987
 5419TIP3    H237749   5.496   2.949   0.315  0.4054  1.1059 -1.3678
 5420TIP3   OH237750   1.238   0.929   0.479 -0.1985 -0.0992  0.2479
 5420TIP3    H137751   1.262   0.978   0.400 -2.9778  1.2098  0.1042
 5420TIP3    H237752   1.200   0.848   0.447 -2.2898  0.8788  0.1101
 5421TIP3   OH237753   3.786   4.680  15.920  0.1680 -0.2301 -0.2519
 5421TIP3    H137754   3.822   4.757  15.964  0.7308 -0.5771 -0.0907
 5421TIP3    H237755   3.847   4.662  15.849  0.9295 -1.4479  0.6640
 5422TIP3   OH237756   3.130   5.676  11.558 -0.4770  0.3967 -0.5523
 5422TIP3    H137757   3.049   5.670  11.506 -1.2783 -0.8375  0.7732
 5422TIP3    H237758   3.130   5.597  11.611 -0.7839  2.5272  2.8949
 5423TIP3   OH237759   0.571   1.173  16.714 -0.4954  0.2788  0.8956
 5423TIP3    H137760   0.625   1.129  16.780 -0.0452  2.6806  2.2520
 5423TIP3    H237761   0.482   1.168  16.750 -0.7264 -0.9274  0.2099
 5424TIP3   OH237762   4.580   1.490   5.613 -0.0868 -0.2154  0.1451
 5424TIP3    H137763   4.556   1.482   5.521 -1.0451 -1.2013  0.4588
 5424TIP3    H237764   4.540   1.573   5.640  1.7114  1.0117 -0.7301
 5425TIP3   OH237765   5.800   4.215   3.927  0.2374 -0.2921  0.1377
 5425TIP3    H137766   5.784   4.258   4.010 -0.4070 -0.0922 -0.0866
 5425TIP3    H237767   5.827   4.126   3.951  0.3377 -0.1465  0.5666
 5426TIP3   OH237768   6.770   6.084   3.800  0.0505 -0.1252 -0.1323
 5426TIP3    H137769   6.712   6.013   3.830 -1.7837  0.3380 -2.2659
 5426TIP3    H237770   6.801   6.054   3.714 -1.9492  2.1639 -1.7813
 5427TIP3   OH237771   4.070   2.427   0.884  0.1127  0.1082 -0.4030
 5427TIP3    H137772   4.120   2.394   0.810  1.0188  2.1114 -0.7720
 5427TIP3    H237773   4.131   2.419   0.958 -0.3781 -0.8313 -0.0869
 5428TIP3   OH237774   1.261   3.642   5.167  0.4614 -0.1821  0.1065
 5428TIP3    H137775   1.205   3.610   5.097  2.1778 -1.1915 -0.8895
 5428TIP3    H237776   1.235   3.733   5.180 -0.8185 -0.3852 -0.8612
 5429TIP3   OH237777   4.118   4.391  11.439 -0.5039 -0.0825  0.0585
 5429TIP3    H137778   4.187   4.447  11.473 -0.8663 -0.2053  1.0330
 5429TIP3    H237779   4.146   4.302  11.461  0.1276 -0.3105 -1.5818
 5430TIP3   OH237780   1.427   4.058  16.572 -0.2506 -0.1525  0.2254
 5430TIP3    H137781   1.467   3.971  16.580  0.5477  0.2494  0.7680
 5430TIP3    H237782   1.492   4.118  16.610  0.2990  0.9832 -2.2815
 5431TIP3   OH237783   2.567   5.223   0.523 -0.0653 -0.0667  0.3396
 5431TIP3    H137784   2.616   5.192   0.448  0.7665  0.5354  0.6191
 5431TIP3    H237785   2.490   5.166   0.527  1.0940 -1.7016  0.4852
 5432TIP3   OH237786   4.790   3.556  14.904  0.2116 -0.0503  0.0444
 5432TIP3    H137787   4.703   3.574  14.867  0.2733 -1.1117 -0.6576
 5432TIP3    H237788   4.831   3.497  14.841  1.4441  0.4110  0.3887
 5433TIP3   OH237789   6.019   5.192  14.567  0.4177 -0.3505 -0.1971
 5433TIP3    H137790   5.951   5.248  14.605 -0.4951 -1.4572 -0.1575
 5433TIP3    H237791   5.971   5.119  14.529  1.5674 -0.9385 -0.5536
 5434TIP3   OH237792   2.233   6.108  12.736 -0.1032 -0.4721  0.1114
 5434TIP3    H137793   2.308   6.154  12.698  0.3358  1.1938  2.7699
 5434TIP3    H237794   2.156   6.146  12.692  0.4403  0.4235 -0.0794
 5435TIP3   OH237795   4.071   4.003  13.864  0.2904  0.0241 -0.1410
 5435TIP3    H137796   4.108   3.999  13.776 -0.5250  0.1402 -0.4956
 5435TIP3    H237797   3.983   3.966  13.855  0.4939 -0.7200  0.7907
 5436TIP3   OH237798   2.388   1.458   3.251  0.0689  0.3002 -0.4077
 5436TIP3    H137799   2.470   1.409   3.263 -0.1832 -1.2607 -3.7219
 5436TIP3    H237800   2.415   1.549   3.247  1.6376 -0.1360 -0.8749
 5437TIP3   OH237801   4.288   1.546   5.565 -0.1106  0.0755 -0.0585
 5437TIP3    H137802   4.264   1.638   5.569 -0.2236  0.0172  0.9343
 5437TIP3    H237803   4.286   1.524   5.472 -2.8555  0.3618 -0.1690
 5438TIP3   OH237804   0.293   1.176  13.688  0.8675  0.4167  0.4686
 5438TIP3    H137805   0.328   1.232  13.618 -1.4110  0.4167 -0.7706
 5438TIP3    H237806   0.327   1.089  13.668  0.3285  0.4351 -0.6138
 5439TIP3   OH237807   6.521   3.671  14.718 -0.3474 -0.1761  0.1275
 5439TIP3    H137808   6.519   3.750  14.663  1.0072  0.1124  0.4707
 5439TIP3    H237809   6.606   3.674  14.763 -1.6694  0.0298  2.8630
 5440TIP3   OH237810   3.532   2.025  15.855 -0.1641 -0.1368  0.4038
 5440TIP3    H137811   3.457   2.036  15.796  0.8921 -1.1292 -1.1958
 5440TIP3    H237812   3.494   1.991  15.936 -1.7290  1.8091  0.5614
 5441TIP3   OH237813   5.272   3.277  16.903  0.3863  0.0680 -0.2089
 5441TIP3    H137814   5.180   3.297  16.886  0.5914  1.5908  0.2622
 5441TIP3    H237815   5.285   3.190  16.866 -1.9596 -1.4588  2.1766
 5442TIP3   OH237816   1.835   1.927   1.087  0.1245  0.3185  0.3138
 5442TIP3    H137817   1.803   1.931   1.177  2.7916 -1.3831  1.4594
 5442TIP3    H237818   1.881   2.010   1.075 -0.7232  0.7947  0.2897
 5443TIP3   OH237819   0.289   1.482   1.418 -0.3471  0.0889  0.0146
 5443TIP3    H137820   0.207   1.437   1.438 -0.1975 -0.2606 -0.1584
 5443TIP3    H237821   0.276   1.516   1.330 -0.1439 -0.3450 -0.1867
 5444TIP3   OH237822   3.339   4.738  10.288  0.3333 -0.1985 -0.1786
 5444TIP3    H137823   3.293   4.822  10.296  0.0566 -0.4656  1.2285
 5444TIP3    H237824   3.337   4.701  10.376  1.0168 -1.3988 -0.6483
 5445TIP3   OH237825   4.270   3.274  13.529  0.7865 -0.1471 -0.5722
 5445TIP3    H137826   4.356   3.292  13.491  0.0402  0.9252 -1.8434
 5445TIP3    H237827   4.287   3.210  13.598  2.7017  0.5760 -0.3009
 5446TIP3   OH237828   4.265   3.696   1.647 -0.0939 -0.1527  0.2986
 5446TIP3    H137829   4.293   3.606   1.664 -2.0847 -0.9973 -0.5084
 5446TIP3    H237830   4.183   3.686   1.598  0.5229  2.1056 -1.3520
 5447TIP3   OH237831   1.828   3.734  17.025  0.8834 -0.0012  0.0461
 5447TIP3    H137832   1.778   3.670  16.975  0.6120  0.0459  0.2545
 5447TIP3    H237833   1.899   3.684  17.064  1.6875  0.1284 -1.1757
 5448TIP3   OH237834   4.788   0.779   4.504 -0.0685  0.1534  0.0470
 5448TIP3    H137835   4.833   0.767   4.421 -1.8971 -0.6499 -0.8735
 5448TIP3    H237836   4.777   0.690   4.538 -0.2615  0.3986  0.6360
 5449TIP3   OH237837   4.303   1.202   3.590  0.7244  0.0183 -0.0406
 5449TIP3    H137838   4.346   1.118   3.608  0.7757  0.4523  2.0674
 5449TIP3    H237839   4.231   1.179   3.532  1.2342 -1.3614 -0.1717
 5450TIP3   OH237840   4.666   0.360   3.032 -0.4615  0.8035  0.2488
 5450TIP3    H137841   4.706   0.280   3.065  1.4962  1.9839  0.9036
 5450TIP3    H237842   4.575   0.336   3.012 -0.1763 -1.3095  1.3060
 5451TIP3   OH237843   0.895   6.748  16.704 -0.7735  0.5751 -0.1609
 5451TIP3    H137844   0.965   6.759  16.639 -0.6107  0.5632  0.0080
 5451TIP3    H237845   0.820   6.717  16.654  0.1576 -2.2304  0.0212
 5452TIP3   OH237846   5.233   2.760   3.951 -0.8002 -0.0152  0.0394
 5452TIP3    H137847   5.237   2.837   3.894 -1.8275 -0.4050 -0.5969
 5452TIP3    H237848   5.179   2.788   4.025 -0.8118  0.0052  0.0234
 5453TIP3   OH237849   0.059   3.418   5.757 -0.3636 -0.5552 -0.3666
 5453TIP3    H137850   0.129   3.471   5.720 -0.0427  0.2296  1.2814
 5453TIP3    H237851   0.098   3.376   5.833 -1.5752 -0.3769  0.3834
 5454TIP3   OH237852   4.682   4.123  13.616  0.1738 -0.2092 -0.2150
 5454TIP3    H137853   4.661   4.050  13.558 -1.8108  1.4474 -1.7681
 5454TIP3    H237854   4.762   4.161  13.578  1.1349 -1.4363  0.5219
 5455TIP3   OH237855   3.126   3.359  12.114  0.3460 -0.7184  0.6362
 5455TIP3    H137856   3.104   3.404  12.033  0.0549  1.1536  1.7064
 5455TIP3    H237857   3.054   3.297  12.127 -0.5204  0.2076  0.3498
 5456TIP3   OH237858   2.325   3.512   4.842 -0.5316 -0.0752  0.3904
 5456TIP3    H137859   2.234   3.483   4.839 -1.1518  1.7246  0.5948
 5456TIP3    H237860   2.351   3.498   4.933  0.0424 -2.3115 -0.0604
 5457TIP3   OH237861   3.238   6.349   1.557  1.0401 -0.1175 -0.4093
 5457TIP3    H137862   3.291   6.282   1.600  0.8012 -1.7616 -2.5371
 5457TIP3    H237863   3.301   6.404   1.511  1.2154  1.0852  1.1520
 5458TIP3   OH237864   1.834   6.067   2.372  0.3041  0.5753  0.2887
 5458TIP3    H137865   1.783   5.992   2.404  1.4327 -0.4384 -0.1685
 5458TIP3    H237866   1.785   6.144   2.399 -1.7422 -0.3421 -0.5855
 5459TIP3   OH237867   5.507   1.446   2.839 -0.5527 -0.0908 -0.4814
 5459TIP3    H137868   5.483   1.407   2.756 -0.6083 -0.6152 -0.2241
 5459TIP3    H237869   5.457   1.527   2.844 -1.8893 -0.9090 -0.1763
 5460TIP3   OH237870   2.021   4.614  15.210 -0.1006  0.5725  0.0769
 5460TIP3    H137871   2.004   4.643  15.121  2.0622  1.0451 -0.2443
 5460TIP3    H237872   2.097   4.556  15.202  0.8274  1.4856  1.7127
 5461TIP3   OH237873   1.547   0.137   0.781  0.0635  0.5344  0.2131
 5461TIP3    H137874   1.469   0.143   0.726  0.5581  0.2593 -0.5271
 5461TIP3    H237875   1.515   0.155   0.870 -0.9738 -0.3257  0.0351
 5462TIP3   OH237876   0.335   1.864  15.470 -0.3006 -0.2734 -0.3095
 5462TIP3    H137877   0.264   1.893  15.413 -0.1619 -0.3523 -0.5284
 5462TIP3    H237878   0.304   1.781  15.507 -0.5182 -0.0630 -0.0275
 5463TIP3   OH237879   2.772   2.137  12.361 -0.2427 -0.8052  0.4212
 5463TIP3    H137880   2.773   2.218  12.312 -1.7151 -1.2085 -0.3484
 5463TIP3    H237881   2.681   2.127  12.389 -0.0524 -2.0742  0.6719
 5464TIP3   OH237882   4.763   4.971  14.596  0.3200  0.2371 -0.5604
 5464TIP3    H137883   4.740   5.033  14.527  1.6896  1.2079 -0.2108
 5464TIP3    H237884   4.724   5.008  14.675  0.2733  0.1094 -0.5246
 5465TIP3   OH237885   4.602   5.745   4.907 -0.7361  0.5316  0.1744
 5465TIP3    H137886   4.558   5.796   4.840 -3.8198  1.0976  2.4008
 5465TIP3    H237887   4.537   5.679   4.934  1.2777 -1.2774  0.9090
 5466TIP3   OH237888   5.336   1.377  14.189  0.3734  0.1575  0.3593
 5466TIP3    H137889   5.280   1.416  14.256  0.5047  0.6133  0.2021
 5466TIP3    H237890   5.403   1.330  14.238  1.4262  1.8221  0.5744
 5467TIP3   OH237891   5.632   5.688   5.992 -0.4157 -0.2142  0.8137
 5467TIP3    H137892   5.715   5.686   5.945 -1.9267  2.1355 -2.4264
 5467TIP3    H237893   5.597   5.599   5.982  1.7478 -1.3619  2.5982
 5468TIP3   OH237894   2.387   0.289  13.774 -0.0688  0.0933 -0.7850
 5468TIP3    H137895   2.381   0.212  13.718 -0.3782 -0.0481 -0.5596
 5468TIP3    H237896   2.480   0.310  13.777 -0.0116 -0.1225 -1.0469
 5469TIP3   OH237897   6.535   4.920   0.737  0.6321  0.0981  0.2363
 5469TIP3    H137898   6.594   4.955   0.804  0.1055 -1.3771  1.5263
 5469TIP3    H237899   6.487   4.997   0.706  1.6249  0.9766  0.7898
 5470TIP3   OH237900   6.660   3.925   2.123  0.7421  0.4251 -0.3205
 5470TIP3    H137901   6.583   3.875   2.152 -0.7574  1.7027 -1.8631
 5470TIP3    H237902   6.685   3.976   2.199 -1.0807  1.3038 -0.2519
 5471TIP3   OH237903   1.107   4.481   0.491 -0.7421  0.3645 -0.0467
 5471TIP3    H137904   1.123   4.546   0.559 -0.5942 -0.4093  0.6759
 5471TIP3    H237905   1.114   4.397   0.536 -0.1017 -0.1824 -1.1308
 5472TIP3   OH237906   5.630   0.784  14.345  0.9498 -0.1352 -0.1810
 5472TIP3    H137907   5.638   0.689  14.331 -0.6002 -0.3948  0.4481
 5472TIP3    H237908   5.675   0.823  14.270  1.2666 -1.3738 -0.6690
 5473TIP3   OH237909   0.851   0.206   0.934  0.6925  0.1191  0.4618
 5473TIP3    H137910   0.807   0.246   1.008  1.4908 -1.7465  2.0290
 5473TIP3    H237911   0.862   0.278   0.871  0.0104  1.7711  2.1286
 5474TIP3   OH237912   6.399   4.502  14.222 -0.3667 -0.1359 -0.1893
 5474TIP3    H137913   6.366   4.576  14.273  1.1156 -0.6735  1.7051
 5474TIP3    H237914   6.327   4.439  14.220 -1.8545  1.5028 -2.3373
 5475TIP3   OH237915   2.842   4.221   6.487  0.1418 -0.1261  0.0351
 5475TIP3    H137916   2.826   4.183   6.574 -0.0097 -1.6837 -0.6402
 5475TIP3    H237917   2.790   4.167   6.428 -1.4646  2.2136 -0.8275
 5476TIP3   OH237918   3.370   0.931  13.074 -0.2049 -0.1036 -0.4165
 5476TIP3    H137919   3.341   0.956  13.162 -1.9546 -1.0464 -0.6757
 5476TIP3    H237920   3.325   0.992  13.016  1.3913  0.8862 -0.6609
 5477TIP3   OH237921   1.595   2.189   0.767  0.0609 -0.9400 -0.0314
 5477TIP3    H137922   1.504   2.203   0.795  0.8756  1.5639  1.7338
 5477TIP3    H237923   1.617   2.102   0.799 -0.7404 -0.2829  2.5781
 5478TIP3   OH237924   6.240   5.674   4.889  0.3764 -0.4604  0.2021
 5478TIP3    H137925   6.252   5.742   4.955 -1.4462  0.7248 -0.5929
 5478TIP3    H237926   6.277   5.711   4.809  0.2852 -0.8348 -0.0186
 5479TIP3   OH237927   2.762   0.573  16.908  0.1358  0.1532 -0.3756
 5479TIP3    H137928   2.830   0.640  16.907 -0.7637  1.1618  0.7370
 5479TIP3    H237929   2.805   0.493  16.878  0.8341  1.5674 -3.5688
 5480TIP3   OH237930   5.057   2.286   4.293  0.8622  0.2586  0.9487
 5480TIP3    H137931   5.075   2.217   4.357  0.9460 -0.5128  0.1114
 5480TIP3    H237932   4.991   2.341   4.336  1.0066 -0.1699  1.7471
 5481TIP3   OH237933   3.804   2.083   0.420 -0.5439  0.0737 -0.0094
 5481TIP3    H137934   3.772   2.168   0.392 -0.6443  0.3263  0.8224
 5481TIP3    H237935   3.890   2.102   0.459 -0.9174 -0.0678  0.9156
 5482TIP3   OH237936   4.681   2.495  15.432 -0.3292  0.8685  0.0784
 5482TIP3    H137937   4.679   2.577  15.382  1.9999  1.7760  1.2845
 5482TIP3    H237938   4.766   2.456  15.410 -0.4677 -0.1119  1.1774
 5483TIP3   OH237939   1.289   0.765  14.865  0.1899 -0.2772  0.3531
 5483TIP3    H137940   1.256   0.855  14.871 -1.1546 -0.8083  1.3740
 5483TIP3    H237941   1.233   0.723  14.800  0.9737 -0.3341 -0.3013
 5484TIP3   OH237942   4.651   2.681  12.972  0.3579 -0.7787 -0.0953
 5484TIP3    H137943   4.618   2.768  12.952  1.2568 -0.1136  1.1721
 5484TIP3    H237944   4.743   2.683  12.945  0.7852 -0.8264  1.2793
 5485TIP3   OH237945   2.602   3.751  11.029  0.2840 -0.6608 -0.1891
 5485TIP3    H137946   2.551   3.787  11.101  0.0236 -1.6543  0.1404
 5485TIP3    H237947   2.552   3.774  10.950  0.1586 -0.2585  0.0050
 5486TIP3   OH237948   0.085   0.466   1.197  0.2032 -0.3911 -0.2660
 5486TIP3    H137949   0.103   0.497   1.108  2.0410  0.1458  0.2514
 5486TIP3    H237950   0.056   0.544   1.244  0.9818 -0.2740  0.0375
 5487TIP3   OH237951   2.318   4.109  13.890 -0.5284 -0.0459  0.1037
 5487TIP3    H137952   2.361   4.068  13.815 -0.5339 -0.2404  0.2049
 5487TIP3    H237953   2.384   4.168  13.927 -1.6647  2.9336 -2.2379
 5488TIP3   OH237954   4.210   2.275   5.850  1.1123 -0.0979 -0.3992
 5488TIP3    H137955   4.219   2.292   5.944 -1.3436 -0.4618 -0.0281
 5488TIP3    H237956   4.246   2.354   5.808 -1.2747  1.9137  1.0182
 5489TIP3   OH237957   6.822   1.237   2.596 -0.3346  0.1102  0.1868
 5489TIP3    H137958   6.726   1.239   2.600 -0.3867  0.8308 -1.0396
 5489TIP3    H237959   6.850   1.251   2.686 -1.3757  0.0207  0.5413
 5490TIP3   OH237960   1.049   1.945  12.662 -0.6953 -0.7959 -0.1427
 5490TIP3    H137961   1.094   1.962  12.745  1.1584  0.2826 -1.3066
 5490TIP3    H237962   0.962   1.983  12.675 -0.2300 -0.0758  1.0971
 5491TIP3   OH237963   2.261   0.916  14.450 -0.1051 -0.2381  0.1032
 5491TIP3    H137964   2.210   0.836  14.460  2.8707 -2.1615  1.3011
 5491TIP3    H237965   2.334   0.891  14.392  2.1543  0.8481  2.2890
 5492TIP3   OH237966   2.732   2.650   5.358  0.2109 -0.2615 -0.1983
 5492TIP3    H137967   2.785   2.579   5.321 -0.4918 -0.3443 -1.0641
 5492TIP3    H237968   2.792   2.724   5.362  0.2232 -0.1416 -1.8785
 5493TIP3   OH237969   2.895   3.058   5.945  0.2242  0.3916  0.2880
 5493TIP3    H137970   2.973   3.091   5.898  0.1905 -1.3677 -1.1092
 5493TIP3    H237971   2.833   3.037   5.875 -0.6603 -0.3117  1.2719
 5494TIP3   OH237972   0.086   6.381   4.573 -0.5914 -0.4247  0.0418
 5494TIP3    H137973   0.152   6.439   4.535 -0.8264 -0.5529 -0.5768
 5494TIP3    H237974   0.099   6.297   4.528 -1.6992 -0.2267 -0.6834
 5495TIP3   OH237975   3.724   5.142   2.406 -0.1267 -0.5012 -0.2757
 5495TIP3    H137976   3.744   5.213   2.467 -2.2525 -1.6629  1.9524
 5495TIP3    H237977   3.760   5.063   2.446 -1.2284 -1.2485 -0.6990
 5496TIP3   OH237978   1.445   0.534  16.821  0.1375 -1.0365 -0.3253
 5496TIP3    H137979   1.379   0.467  16.800 -2.1087  1.5480 -2.2211
 5496TIP3    H237980   1.443   0.594  16.747  0.5134  2.2125  2.0606
 5497TIP3   OH237981   0.035   3.434   0.473 -0.5346  0.2238 -0.3191
 5497TIP3    H137982   0.039   3.434   0.378 -0.1793  0.1431 -0.3071
 5497TIP3    H237983   0.124   3.458   0.500 -0.8234  0.9847 -0.0174
 5498TIP3   OH237984   5.335   1.700   4.001  0.1913  0.4826  0.6189
 5498TIP3    H137985   5.292   1.704   3.916 -2.4799  0.1007  1.8339
 5498TIP3    H237986   5.382   1.782   4.009  0.6079  0.4660 -1.2441
 5499TIP3   OH237987   4.186   6.312  15.317  0.4871 -0.3622  0.1574
 5499TIP3    H137988   4.105   6.261  15.326 -0.3245  0.9562  0.7338
 5499TIP3    H237989   4.170   6.369  15.242  0.3336  0.8129  1.0495
 5500TIP3   OH237990   1.577   3.004  13.438 -0.6625 -0.0608 -0.0002
 5500TIP3    H137991   1.667   3.007  13.405 -0.8531  2.6439 -0.5551
 5500TIP3    H237992   1.586   2.996  13.533  0.1713  0.2863 -0.0462
 5501TIP3   OH237993   6.282   4.486  13.345  0.0199  0.2438 -0.4980
 5501TIP3    H137994   6.360   4.470  13.399 -0.8712  0.3512  0.8835
 5501TIP3    H237995   6.307   4.456  13.258  1.7727  0.7243 -0.2133
 5502TIP3   OH237996   4.566   1.433  11.059  0.1044  0.1767  0.8005
 5502TIP3    H137997   4.595   1.443  10.969 -0.0857  0.0872  0.7274
 5502TIP3    H237998   4.559   1.338  11.072  0.3801  0.1821  0.9897
 5503TIP3   OH237999   1.842   2.537  15.386  0.1200 -0.6460 -0.3082
 5503TIP3    H138000   1.909   2.536  15.318  0.2676 -0.5490 -0.1657
 5503TIP3    H238001   1.858   2.456  15.435 -1.5178 -2.0106 -1.8621
 5504TIP3   OH238002   4.425   2.254   2.801  0.3935  0.0011  0.6932
 5504TIP3    H138003   4.385   2.334   2.767  2.1589  1.8954  2.7066
 5504TIP3    H238004   4.458   2.209   2.724 -0.9787  1.0314 -0.5452
 5505TIP3   OH238005   3.037   4.349   1.295 -0.0096  0.6292 -0.0575
 5505TIP3    H138006   2.997   4.263   1.310 -0.2024  1.0823  2.4446
 5505TIP3    H238007   2.964   4.404   1.265  0.0379  0.0564 -1.2952
 5506TIP3   OH238008   0.325   6.609  12.929 -0.2183  0.3663 -0.4596
 5506TIP3    H138009   0.355   6.577  13.014 -3.9140 -0.1764  0.8326
 5506TIP3    H238010   0.286   6.532  12.886 -0.5721  1.1290 -1.5547
 5507TIP3   OH238011   1.045   2.394   2.006  0.1804  0.1833  0.6910
 5507TIP3    H138012   1.012   2.484   2.002 -1.6488 -0.4964 -0.7338
 5507TIP3    H238013   1.003   2.357   2.084 -2.0726 -0.4666 -0.7327
 5508TIP3   OH238014   3.097   1.764   5.466 -0.5528  0.1650  0.3201
 5508TIP3    H138015   3.069   1.852   5.444  1.0843  1.3453  2.5669
 5508TIP3    H238016   3.042   1.739   5.541 -0.6471 -0.5246  0.0333
 5509TIP3   OH238017   5.364   2.687   4.908  0.2816 -0.0288 -0.2332
 5509TIP3    H138018   5.439   2.705   4.965 -0.6048  0.5898  0.7696
 5509TIP3    H238019   5.332   2.601   4.936 -0.6537  0.6251  0.8216
 5510TIP3   OH238020   3.131   6.477   4.491 -0.1662  0.2009  0.6202
 5510TIP3    H138021   3.093   6.437   4.413  1.0531 -3.0582  1.5639
 5510TIP3    H238022   3.224   6.485   4.470  0.2050 -0.8817  1.7554
 5511TIP3   OH238023   6.142   5.605   0.374  0.2334 -0.3542 -0.2318
 5511TIP3    H138024   6.231   5.626   0.344 -0.4926  1.7830 -1.1228
 5511TIP3    H238025   6.088   5.612   0.295 -0.6298 -2.7961  0.0439
 5512TIP3   OH238026   3.207   1.389  12.502 -0.4027  0.6663  0.1596
 5512TIP3    H138027   3.206   1.446  12.579  0.0036  2.9366 -1.4032
 5512TIP3    H238028   3.200   1.449  12.427  2.2357 -1.1235 -1.7193
 5513TIP3   OH238029   1.655   5.171  16.559  0.0315  0.3659 -0.6535
 5513TIP3    H138030   1.655   5.266  16.572 -3.3711  0.2106  2.1760
 5513TIP3    H238031   1.627   5.136  16.644 -2.5715 -2.8710 -2.6252
 5514TIP3   OH238032   6.636   5.801  16.784 -0.0145 -0.2199 -0.4022
 5514TIP3    H138033   6.543   5.825  16.788  0.2282  0.8694 -0.9331
 5514TIP3    H238034   6.637   5.714  16.744 -0.7402  0.2862 -1.5728
 5515TIP3   OH238035   1.434   0.408   5.970 -0.5371  0.1079 -0.2784
 5515TIP3    H138036   1.396   0.458   6.042  1.0404  1.1611 -0.1313
 5515TIP3    H238037   1.478   0.334   6.013 -0.1273  0.3924 -0.2011
 5516TIP3   OH238038   4.446   6.299  12.357 -0.7817 -0.1709 -0.4257
 5516TIP3    H138039   4.524   6.329  12.311 -1.9260 -0.7963 -2.9334
 5516TIP3    H238040   4.477   6.227  12.412  0.4256 -0.4269 -1.4019
 5517TIP3   OH238041   5.682   5.157  14.637  0.3763 -0.3390  0.2548
 5517TIP3    H138042   5.715   5.244  14.660  0.2168  0.0637 -0.9542
 5517TIP3    H238043   5.642   5.169  14.551 -1.6336 -1.1130  1.0168
 5518TIP3   OH238044   6.335   0.644  15.559  0.0481 -0.0700  0.4025
 5518TIP3    H138045   6.413   0.606  15.519  0.7721 -0.4989  2.1157
 5518TIP3    H238046   6.335   0.735  15.531  2.2002  0.4167  1.7578
 5519TIP3   OH238047   2.171   4.094   3.014 -0.1130  0.0531  0.4906
 5519TIP3    H138048   2.165   4.083   2.919 -0.9827 -0.0303  0.5470
 5519TIP3    H238049   2.263   4.077   3.035 -0.5262 -3.3133  0.1095
 5520TIP3   OH238050   2.126   4.667  14.453  0.5140  0.0483  0.6998
 5520TIP3    H138051   2.101   4.593  14.399  0.5591 -0.5540  1.4907
 5520TIP3    H238052   2.140   4.738  14.391  1.7695 -0.9431 -0.1860
 5521TIP3   OH238053   5.571   4.998   3.479  0.1135 -0.5949  0.0482
 5521TIP3    H138054   5.529   5.080   3.456  1.9547  0.1691 -0.7548
 5521TIP3    H238055   5.558   4.990   3.574  0.9678  1.2792  0.3717
 5522TIP3   OH238056   2.453   3.557  15.560  0.1850 -0.0272 -0.1659
 5522TIP3    H138057   2.364   3.580  15.585  0.5304  2.1612 -0.7490
 5522TIP3    H238058   2.497   3.539  15.643 -0.7057 -0.8770  0.1449
 5523TIP3   OH238059   1.885   3.544   6.022  0.1590 -0.0582  0.0274
 5523TIP3    H138060   1.929   3.462   6.044  0.8615  0.5334  0.9186
 5523TIP3    H238061   1.937   3.611   6.065 -0.7279  0.8090 -0.2157
 5524TIP3   OH238062   2.657   3.355   3.330 -1.5156 -0.2430  0.5410
 5524TIP3    H138063   2.584   3.406   3.295  0.3964  0.5687 -2.6451
 5524TIP3    H238064   2.663   3.278   3.274 -0.8090 -1.0864  1.7078
 5525TIP3   OH238065   3.594   3.227   4.406  0.0622  0.3373 -0.6422
 5525TIP3    H138066   3.640   3.281   4.341 -0.7516 -0.1787 -1.6879
 5525TIP3    H238067   3.526   3.284   4.442 -1.4719 -0.2126 -2.4889
 5526TIP3   OH238068   6.022   2.380   3.319 -0.2051 -0.0394  0.9673
 5526TIP3    H138069   5.973   2.356   3.398 -0.5002  0.5049  0.9518
 5526TIP3    H238070   6.088   2.442   3.349  0.0041 -0.2093  0.8639
 5527TIP3   OH238071   3.354   3.541   2.174  0.1474  0.5515  0.6201
 5527TIP3    H138072   3.295   3.609   2.140  0.0421  1.4071  2.3752
 5527TIP3    H238073   3.370   3.483   2.099 -2.6538  0.4486 -0.0102
 5528TIP3   OH238074   6.780   2.276   5.184 -0.0274 -0.0494  0.0505
 5528TIP3    H138075   6.808   2.239   5.268 -2.5114  2.5474  2.2032
 5528TIP3    H238076   6.848   2.340   5.162 -0.2492  0.5534  1.0643
 5529TIP3   OH238077   0.268   0.112   5.300  0.2379  0.2409 -1.1507
 5529TIP3    H138078   0.237   0.050   5.234 -0.0593 -0.6159 -0.2337
 5529TIP3    H238079   0.201   0.180   5.302  0.8647  0.9372 -2.5969
 5530TIP3   OH238080   5.710   4.512   2.136  0.5415  0.6322  0.0259
 5530TIP3    H138081   5.690   4.562   2.215 -0.3152 -0.8203  0.7624
 5530TIP3    H238082   5.637   4.452   2.126  0.3322  1.1675 -2.2365
 5531TIP3   OH238083   0.327   3.537  14.923  0.1026 -0.3132  0.0075
 5531TIP3    H138084   0.243   3.491  14.921 -0.2852  0.3788 -0.1697
 5531TIP3    H238085   0.384   3.482  14.976 -1.8509  1.4897  4.4890
 5532TIP3   OH238086   0.824   3.324   4.584 -0.2914 -0.1932 -0.2928
 5532TIP3    H138087   0.815   3.355   4.674  1.4922 -1.2827  0.3327
 5532TIP3    H238088   0.744   3.351   4.540  1.0458  5.4814  0.0510
 5533TIP3   OH238089   3.788   4.625  15.346  0.0838 -0.3961 -0.2812
 5533TIP3    H138090   3.845   4.598  15.418  0.1310 -1.2961 -0.6394
 5533TIP3    H238091   3.743   4.702  15.379 -0.3188 -1.1096  0.9332
 5534TIP3   OH238092   6.459   2.390  13.269  0.2449 -0.7239  0.1364
 5534TIP3    H138093   6.374   2.408  13.229  0.9642  2.1306 -0.3855
 5534TIP3    H238094   6.440   2.377  13.362 -0.8204 -0.7741 -0.0794
 5535TIP3   OH238095   0.119   2.436   0.080  0.0673 -0.6561 -0.3184
 5535TIP3    H138096   0.143   2.448  -0.012 -0.8973  1.1586 -0.3758
 5535TIP3    H238097   0.181   2.491   0.128  0.7434 -1.8103  0.1790
 5536TIP3   OH238098   5.211   0.650   3.158 -0.5853 -0.4510  0.1438
 5536TIP3    H138099   5.218   0.716   3.228  1.5098  0.0981 -0.4990
 5536TIP3    H238100   5.149   0.687   3.096 -0.3377  0.3753  0.3709
 5537TIP3   OH238101   1.087   6.809  12.338  0.5330  0.2171  0.3554
 5537TIP3    H138102   1.143   6.759  12.397  0.4190 -0.1477  0.1602
 5537TIP3    H238103   0.999   6.774  12.353  0.1972  1.4293  1.3386
 5538TIP3   OH238104   0.956   1.995  11.318 -0.1915 -0.8218  0.3142
 5538TIP3    H138105   0.984   2.082  11.290  0.9865 -1.3560 -0.2589
 5538TIP3    H238106   0.869   1.983  11.280  0.4961 -0.6954 -1.3782
 5539TIP3   OH238107   4.812   6.374   0.537  0.8011 -0.2653 -0.0699
 5539TIP3    H138108   4.861   6.367   0.456  1.8195  1.0932  0.3899
 5539TIP3    H238109   4.800   6.284   0.566  1.1577 -0.7209 -1.2881
 5540TIP3   OH238110   5.986   2.963   0.238  0.0970 -0.1692  0.1376
 5540TIP3    H138111   5.951   2.926   0.319  0.7513 -2.7011 -0.6751
 5540TIP3    H238112   6.078   2.936   0.236  0.0559 -0.2757 -1.5251
 5541TIP3   OH238113   6.081   1.972   5.431 -0.3433  0.1780  0.1543
 5541TIP3    H138114   6.153   2.009   5.482  0.7314  0.2138 -1.3269
 5541TIP3    H238115   6.031   2.048   5.401  0.5055  0.3178 -0.9418
 5542TIP3   OH238116   5.591   6.427   0.920  0.1791 -0.3105 -0.4899
 5542TIP3    H138117   5.604   6.375   0.999 -0.6688 -0.2914 -0.3277
 5542TIP3    H238118   5.679   6.449   0.890  0.5835 -2.1261 -0.7437
 5543TIP3   OH238119   3.066   1.485   5.379 -0.3240  0.6845 -0.3372
 5543TIP3    H138120   3.134   1.418   5.385 -1.3607 -0.4254 -0.4425
 5543TIP3    H238121   3.105   1.563   5.417  0.6333 -0.2372  0.6400
 5544TIP3   OH238122   3.593   2.206  16.568 -0.0163 -0.1223  0.3441
 5544TIP3    H138123   3.508   2.168  16.590 -0.1786  1.2607  2.3404
 5544TIP3    H238124   3.654   2.165  16.629  0.4966 -0.0281 -0.0962
 5545TIP3   OH238125   1.017   4.353   3.938  0.4225 -0.1384  0.0229
 5545TIP3    H138126   1.035   4.300   4.016  1.0559 -0.6970 -0.4812
 5545TIP3    H238127   0.944   4.307   3.895  1.8469 -1.4213 -1.1199
 5546TIP3   OH238128   4.610   0.345   3.981  0.3473  0.0776 -0.8020
 5546TIP3    H138129   4.649   0.383   3.902  1.1208  2.5028  0.6206
 5546TIP3    H238130   4.604   0.419   4.041  0.9661 -1.9131  1.8654
 5547TIP3   OH238131   6.360   1.261   1.233  0.1936 -0.1441  0.7923
 5547TIP3    H138132   6.331   1.254   1.142 -0.2539 -1.9236  1.0519
 5547TIP3    H238133   6.427   1.193   1.243  0.0926 -0.1070  1.8529
 5548TIP3   OH238134   6.546   4.056   1.797  0.1681  0.3403  0.3639
 5548TIP3    H138135   6.501   3.976   1.823  1.1704 -1.7063 -3.4526
 5548TIP3    H238136   6.626   4.057   1.848  0.5132 -1.6061 -0.0622
 5549TIP3   OH238137   4.453   2.519   2.213  0.2866  0.2746  0.1555
 5549TIP3    H138138   4.462   2.461   2.288  1.3864 -0.7658 -0.7403
 5549TIP3    H238139   4.539   2.558   2.202  0.3399 -0.1139 -0.9533
 5550TIP3   OH238140   5.319   6.059  13.794 -0.0674  0.3741 -0.2159
 5550TIP3    H138141   5.296   5.985  13.738 -1.0386  1.1631 -0.9016
 5550TIP3    H238142   5.302   6.028  13.883  3.4243 -1.6088 -0.0525
 5551TIP3   OH238143   0.084   4.304  12.389 -0.1901 -0.6113 -0.6218
 5551TIP3    H138144   0.065   4.298  12.295 -1.4865 -1.6719 -0.3249
 5551TIP3    H238145   0.177   4.284  12.396 -0.2515 -1.3356 -1.6123
 5552TIP3   OH238146   0.553   0.629   4.569  0.0798 -0.0213 -0.4772
 5552TIP3    H138147   0.615   0.678   4.516  0.7665  0.4204  0.6775
 5552TIP3    H238148   0.606   0.590   4.639 -0.9450  0.5839  0.6849
 5553TIP3   OH238149   6.422   3.261  15.682  0.2395 -0.1050  0.4191
 5553TIP3    H138150   6.333   3.247  15.712  0.0489 -0.5876 -0.3329
 5553TIP3    H238151   6.476   3.202  15.735  0.4507  1.7603  2.4376
 5554TIP3   OH238152   6.555   2.694   2.779 -0.3314  0.0392  0.6884
 5554TIP3    H138153   6.521   2.648   2.702 -0.5734 -0.7795  1.2752
 5554TIP3    H238154   6.640   2.654   2.795 -0.0483  0.5806  0.5231
 5555TIP3   OH238155   2.977   4.633   4.061  0.3602 -0.0645 -0.2150
 5555TIP3    H138156   2.911   4.564   4.055  1.0409 -0.8110  0.7407
 5555TIP3    H238157   2.944   4.690   4.130  0.5227 -0.2171 -0.0132
 5556TIP3   OH238158   5.161   4.110   3.572 -0.5921  0.0407  0.5137
 5556TIP3    H138159   5.077   4.066   3.581 -0.5921  0.2764  1.7742
 5556TIP3    H238160   5.139   4.202   3.558 -0.5652  0.3728  2.3837
 5557TIP3   OH238161   4.155   6.674  11.178  0.2985  0.0664  0.3772
 5557TIP3    H138162   4.125   6.757  11.139 -0.7470 -0.2855  0.3997
 5557TIP3    H238163   4.132   6.682  11.270  0.3773 -0.1644  0.4159
 5558TIP3   OH238164   6.640   4.378  14.224  0.4869  0.0225 -0.4590
 5558TIP3    H138165   6.563   4.434  14.212  0.6402  0.6996  1.3601
 5558TIP3    H238166   6.604   4.291  14.241  0.2212 -0.2609 -2.2810
 5559TIP3   OH238167   3.422   1.557   6.217  0.2773  0.0291 -0.3430
 5559TIP3    H138168   3.348   1.576   6.275  1.2918  0.0687  1.0034
 5559TIP3    H238169   3.429   1.461   6.219 -0.2751 -0.0307 -1.1749
 5560TIP3   OH238170   1.500   4.706   5.818 -0.5007  0.2494  0.4300
 5560TIP3    H138171   1.520   4.699   5.911 -0.0980 -1.1892  0.2634
 5560TIP3    H238172   1.421   4.760   5.814  0.8852  2.4763  1.4048
 5561TIP3   OH238173   0.859   2.948  11.893 -0.4895  0.3396 -0.2689
 5561TIP3    H138174   0.859   2.955  11.989 -1.4455  0.2890 -0.2559
 5561TIP3    H238175   0.767   2.935  11.870 -0.1587 -0.6334 -1.1247
 5562TIP3   OH238176   4.894   0.488  13.652 -0.2673  0.0897  0.5126
 5562TIP3    H138177   4.850   0.488  13.567  1.8695  0.6537 -0.6622
 5562TIP3    H238178   4.833   0.442  13.711 -2.4055  0.8687 -0.9666
 5563TIP3   OH238179   5.628   3.960   2.969  0.8171  0.4293  0.5835
 5563TIP3    H138180   5.681   4.039   2.960 -0.4917  1.3775  0.8275
 5563TIP3    H238181   5.608   3.955   3.063  0.1968  0.2938  0.4494
 5564TIP3   OH238182   1.010   1.987  15.493 -0.2636  0.0784  0.1571
 5564TIP3    H138183   1.027   2.006  15.586  0.2402 -1.3334  0.3750
 5564TIP3    H238184   1.046   2.062  15.446 -1.7958  1.5224  1.1606
 5565TIP3   OH238185   3.636   5.850   4.987  0.1395 -0.0554 -0.4965
 5565TIP3    H138186   3.702   5.852   5.057  1.3360  0.3740 -1.5871
 5565TIP3    H238187   3.619   5.942   4.968 -1.4303 -0.1552  0.3413
 5566TIP3   OH238188   5.331   3.622  11.779  0.4861 -0.6879  0.1092
 5566TIP3    H138189   5.318   3.711  11.746 -1.7860 -1.1685 -0.4311
 5566TIP3    H238190   5.324   3.631  11.874  0.6107 -0.2492  0.0798
 5567TIP3   OH238191   0.540   5.625   6.457  0.3994  0.1400  0.3794
 5567TIP3    H138192   0.632   5.601   6.443  0.1529 -0.6271  0.0081
 5567TIP3    H238193   0.509   5.653   6.371  0.1389 -0.1411  0.3786
 5568TIP3   OH238194   4.069   3.642   4.979  0.4618 -0.6187 -0.5183
 5568TIP3    H138195   4.082   3.691   4.899 -1.5648  1.6023  0.3804
 5568TIP3    H238196   4.136   3.674   5.039 -1.4348  1.9831  0.3783
 5569TIP3   OH238197   3.066   3.193  11.837 -0.1140 -0.1055  0.0375
 5569TIP3    H138198   3.031   3.126  11.895  0.5611  0.4796  1.1634
 5569TIP3    H238199   3.027   3.275  11.869 -2.4380 -0.0837 -2.4784
 5570TIP3   OH238200   0.448   1.539   2.300  0.1176  0.1045 -0.0338
 5570TIP3    H138201   0.410   1.503   2.380 -0.7101 -0.2632 -0.5755
 5570TIP3    H238202   0.474   1.628   2.323  1.4956 -0.5623  1.1158
 5571TIP3   OH238203   5.086   2.405  13.942 -0.3993 -0.5546  0.1096
 5571TIP3    H138204   5.144   2.372  14.010 -0.1891  0.2466  0.3226
 5571TIP3    H238205   5.135   2.394  13.861 -0.1048 -0.2376  0.2456
 5572TIP3   OH238206   1.594   5.891  16.543  0.3629  0.3824 -0.1675
 5572TIP3    H138207   1.509   5.935  16.545  0.8577  1.3628 -0.3145
 5572TIP3    H238208   1.657   5.959  16.567  1.2690  0.0746 -1.5357
 5573TIP3   OH238209   3.146   0.663  14.302 -0.7709 -0.1294 -0.1486
 5573TIP3    H138210   3.186   0.677  14.387 -3.1634  0.4123  0.9707
 5573TIP3    H238211   3.057   0.634  14.322 -1.6768  0.8288 -2.4367
 5574TIP3   OH238212   1.547   6.369  12.204 -0.0858 -0.1833 -0.2485
 5574TIP3    H138213   1.608   6.340  12.135  0.8183  0.3992  0.2846
 5574TIP3    H238214   1.584   6.333  12.285 -1.4210 -1.3106 -0.0972
 5575TIP3   OH238215   0.981   1.698  13.499  0.3791 -0.3133  0.2957
 5575TIP3    H138216   0.949   1.783  13.471  0.6719 -0.4575 -0.4953
 5575TIP3    H238217   1.033   1.717  13.577 -2.3670 -0.1976  2.2380
 5576TIP3   OH238218   1.283   0.903  13.473  0.1795  0.5957 -0.7361
 5576TIP3    H138219   1.234   0.919  13.553 -1.4923 -0.2091 -1.5500
 5576TIP3    H238220   1.328   0.986  13.456  0.1550  0.9432  0.7257
 5577TIP3   OH238221   2.568   4.672  10.408 -0.2004  0.0787 -0.3561
 5577TIP3    H138222   2.564   4.742  10.474 -1.7911 -1.7903  1.6775
 5577TIP3    H238223   2.479   4.668  10.373 -0.5644 -1.8711  0.6682
 5578TIP3   OH238224   1.477   2.771   2.305 -0.3379  0.3895 -0.1733
 5578TIP3    H138225   1.535   2.752   2.379  1.2325 -0.0109 -1.4563
 5578TIP3    H238226   1.436   2.854   2.328  0.0092  0.2118  1.2017
 5579TIP3   OH238227   4.292   3.161  12.289  0.0047 -0.1182  0.1312
 5579TIP3    H138228   4.286   3.254  12.313 -1.4603 -0.6221  1.9810
 5579TIP3    H238229   4.215   3.121  12.331 -2.0021 -1.4759 -4.2686
 5580TIP3   OH238230   0.604   1.059  10.862  0.3060 -0.3244  0.0076
 5580TIP3    H138231   0.533   1.043  10.925  0.7161 -1.1787  0.2643
 5580TIP3    H238232   0.564   1.045  10.776 -0.5716  1.9676 -0.0463
 5581TIP3   OH238233   0.743   5.231  16.250  0.2591  0.5730 -0.7200
 5581TIP3    H138234   0.786   5.159  16.296 -1.1228 -0.0638 -0.3832
 5581TIP3    H238235   0.742   5.205  16.158 -1.3410 -0.4633 -0.4517
 5582TIP3   OH238236   3.118   4.013   5.261  0.1586 -0.4281  0.1729
 5582TIP3    H138237   3.165   3.956   5.200 -1.0266 -0.8056 -0.4141
 5582TIP3    H238238   3.027   4.009   5.232 -0.6754 -1.5756  2.6967
 5583TIP3   OH238239   0.235   3.848  12.409  0.0373  0.0416 -0.3347
 5583TIP3    H138240   0.272   3.769  12.448  2.5760  0.2288 -2.1012
 5583TIP3    H238241   0.249   3.917  12.474  1.9471 -0.1329 -0.4944
 5584TIP3   OH238242   6.157   5.638  12.348 -0.5491  0.5990 -0.0079
 5584TIP3    H138243   6.239   5.644  12.299 -0.6716 -1.2191 -0.5130
 5584TIP3    H238244   6.169   5.699  12.421  1.6184 -0.2500  0.4320
 5585TIP3   OH238245   3.054   3.482   0.482 -0.4125  0.6439  0.1494
 5585TIP3    H138246   3.090   3.568   0.461 -0.4870  0.6970  0.2361
 5585TIP3    H238247   3.126   3.436   0.525  0.2684 -0.0558 -1.6806
 5586TIP3   OH238248   2.412   3.926   1.622 -0.2007  0.0176 -0.0672
 5586TIP3    H138249   2.431   3.998   1.562 -1.0783  1.2027  1.0439
 5586TIP3    H238250   2.499   3.892   1.646  0.2091  0.4832 -0.8277
 5587TIP3   OH238251   1.000   5.562  15.219  0.6118 -0.8217  0.2787
 5587TIP3    H138252   1.063   5.628  15.192  0.0642 -0.1657  0.5764
 5587TIP3    H238253   1.047   5.479  15.212  1.7875 -0.2730  1.3504
 5588TIP3   OH238254   3.642   0.761   4.392  0.3149  0.0099  0.6212
 5588TIP3    H138255   3.661   0.745   4.485 -0.3584 -0.7004  0.6492
 5588TIP3    H238256   3.726   0.748   4.348  0.2909 -1.4187  0.9341
 5589TIP3   OH238257   2.855   3.756   1.515  0.6083  0.3377  0.1996
 5589TIP3    H138258   2.948   3.751   1.495  0.3266  0.7479 -1.2740
 5589TIP3    H238259   2.840   3.684   1.577  1.7782 -0.1168 -0.0244
 5590TIP3   OH238260   5.047   6.415   1.471 -0.0559 -0.2626  0.4206
 5590TIP3    H138261   4.966   6.424   1.421 -0.1544  0.0389  0.6279
 5590TIP3    H238262   5.038   6.479   1.542  0.8327  0.5587 -0.1801
 5591TIP3   OH238263   4.815   3.721  16.766 -0.5919 -0.1245 -0.3548
 5591TIP3    H138264   4.751   3.792  16.775 -1.8278 -0.7266 -3.1632
 5591TIP3    H238265   4.798   3.663  16.840  1.0517  2.7963  2.5313
 5592TIP3   OH238266   5.978   5.522   0.825 -0.2086  0.3161  0.5930
 5592TIP3    H138267   5.955   5.596   0.769  1.0765  0.0869 -0.2772
 5592TIP3    H238268   5.898   5.470   0.829 -0.2827  0.2045 -1.2805
 5593TIP3   OH238269   6.224   3.676  13.572  0.0253  0.0328  0.0571
 5593TIP3    H138270   6.149   3.697  13.516  0.4026  0.2178 -0.3834
 5593TIP3    H238271   6.196   3.702  13.660 -0.1406  0.8328 -0.2219
 5594TIP3   OH238272   3.806   4.997   4.951  0.3650 -0.2896  0.0666
 5594TIP3    H138273   3.844   5.078   4.917  0.6248 -0.6457 -0.5017
 5594TIP3    H238274   3.833   4.995   5.043  0.6130  0.1194  0.0051
 5595TIP3   OH238275   6.044   3.839   4.394  0.0333  0.2388  0.3366
 5595TIP3    H138276   5.964   3.817   4.441 -0.3407 -2.4756 -1.3482
 5595TIP3    H238277   6.108   3.859   4.463 -1.5244  0.4675  1.7765
 5596TIP3   OH238278   3.278   3.995  16.163 -0.6126 -0.3673  0.4306
 5596TIP3    H138279   3.317   3.940  16.230  1.5316  0.4946 -0.0460
 5596TIP3    H238280   3.329   3.977  16.084 -0.5065  1.5574  0.0151
 5597TIP3   OH238281   4.072   1.416  15.135 -0.7232 -0.0683 -0.2872
 5597TIP3    H138282   4.067   1.483  15.203  4.0467  0.0945  0.2280
 5597TIP3    H238283   4.062   1.333  15.183 -1.7437  0.1216 -0.1495
 5598TIP3   OH238284   5.870   0.752  12.482 -0.2735 -0.2720 -0.1459
 5598TIP3    H138285   5.876   0.661  12.455  0.6174 -0.8478  1.8417
 5598TIP3    H238286   5.798   0.754  12.545 -0.3476  0.4307 -0.2372
 5599TIP3   OH238287   5.332   5.099  14.853 -0.6294 -0.4522 -0.0713
 5599TIP3    H138288   5.290   5.026  14.900  0.4786 -0.8995  0.2736
 5599TIP3    H238289   5.423   5.071  14.845  0.1090  1.4271  1.1626
 5600TIP3   OH238290   2.297   2.776   4.948  0.4776  0.6348  0.3545
 5600TIP3    H138291   2.364   2.773   4.879 -0.1985  0.3601 -0.3092
 5600TIP3    H238292   2.324   2.848   5.005  1.3727  0.4790  0.1357
 5601TIP3   OH238293   3.148   0.122   2.909  0.1261 -0.4523  0.0257
 5601TIP3    H138294   3.177   0.161   2.827 -2.7711 -0.8432 -1.3070
 5601TIP3    H238295   3.069   0.074   2.886 -1.5262  0.4351  3.2650
 5602TIP3   OH238296   1.409   2.032   2.836 -0.0780 -0.1441 -0.3495
 5602TIP3    H138297   1.354   2.026   2.914  0.4203 -0.2836 -0.0030
 5602TIP3    H238298   1.375   1.964   2.778 -2.6024  2.0478 -1.6742
 5603TIP3   OH238299   2.198   2.254   4.709 -0.7033 -0.1859  0.0423
 5603TIP3    H138300   2.271   2.306   4.741 -0.3467 -0.5785 -0.1298
 5603TIP3    H238301   2.126   2.317   4.699 -0.3090  0.2477 -0.0697
 5604TIP3   OH238302   6.496   0.967   4.130  0.1514 -0.2309  0.6182
 5604TIP3    H138303   6.577   1.017   4.128 -0.8807  1.5022 -0.2328
 5604TIP3    H238304   6.478   0.947   4.038  1.7258 -4.3586  0.9876
 5605TIP3   OH238305   6.646   6.491  12.750 -0.6639 -0.3190 -0.2268
 5605TIP3    H138306   6.580   6.422  12.747 -0.2114 -0.8549  1.4276
 5605TIP3    H238307   6.600   6.568  12.782 -0.4846 -0.7240  1.0387
 5606TIP3   OH238308   2.885   0.852  16.690  0.3218 -0.0462 -0.3318
 5606TIP3    H138309   2.953   0.794  16.656 -0.3125 -0.7330 -0.4751
 5606TIP3    H238310   2.807   0.796  16.696 -0.8294  1.2125 -2.2142
 5607TIP3   OH238311   5.201   1.222  11.471 -0.0658  0.0585  0.0665
 5607TIP3    H138312   5.283   1.263  11.498 -1.1662  1.3626  1.6075
 5607TIP3    H238313   5.186   1.256  11.383 -0.4180  2.2269  0.9102
 5608TIP3   OH238314   2.079   5.675   5.391  0.3139  0.1894 -0.4407
 5608TIP3    H138315   2.031   5.632   5.462  0.5474  0.1467 -0.3062
 5608TIP3    H238316   2.126   5.604   5.347  0.7012  0.3019 -0.2174
 5609TIP3   OH238317   1.061   4.421  15.401  0.4083  0.5504  0.6175
 5609TIP3    H138318   1.099   4.370  15.472  0.1131  0.6739  0.8707
 5609TIP3    H238319   1.129   4.424  15.334  0.9975  1.1011  1.2214
 5610TIP3   OH238320   6.560   2.132  16.522  0.5000  0.1490  0.1453
 5610TIP3    H138321   6.582   2.179  16.442 -0.4752  0.1799 -0.1265
 5610TIP3    H238322   6.637   2.080  16.542 -0.6626 -3.4500 -3.3976
 5611TIP3   OH238323   2.577   1.463   0.893  0.4146 -0.7506 -0.0528
 5611TIP3    H138324   2.608   1.522   0.962  1.5338 -0.2318 -0.9683
 5611TIP3    H238325   2.618   1.496   0.813 -0.6613 -1.4891 -0.9313
 5612TIP3   OH238326   2.748   6.529  13.654 -0.0636 -0.0157  0.0680
 5612TIP3    H138327   2.796   6.583  13.717 -0.3986 -0.5650  0.8006
 5612TIP3    H238328   2.760   6.440  13.685 -2.3133 -0.1192  0.8048
 5613TIP3   OH238329   5.479   2.468   1.120 -0.1894 -0.6515 -0.2439
 5613TIP3    H138330   5.495   2.512   1.036 -0.4692  0.3264  0.1960
 5613TIP3    H238331   5.388   2.439   1.115 -0.4144  0.0010 -0.0269
 5614TIP3   OH238332   5.941   5.569  13.324 -0.5174  0.3497 -0.1638
 5614TIP3    H138333   5.982   5.515  13.257  0.1359  1.0668 -0.3523
 5614TIP3    H238334   5.940   5.657  13.287 -0.9182  0.6055  0.4316
 5615TIP3   OH238335   0.783   1.382  11.687 -0.6107  0.0784 -0.1343
 5615TIP3    H138336   0.809   1.321  11.618 -1.7984  0.0045 -0.5381
 5615TIP3    H238337   0.843   1.456  11.679  1.9554 -1.6700  1.3940
 5616TIP3   OH238338   4.058   1.473   1.339 -0.3159  0.0141  0.0290
 5616TIP3    H138339   4.087   1.394   1.384 -0.8603  0.2689  0.8374
 5616TIP3    H238340   4.122   1.540   1.364 -0.0093 -0.0964 -0.4411
 5617TIP3   OH238341   5.755   2.349   6.196  0.2899 -0.4028 -0.3583
 5617TIP3    H138342   5.677   2.395   6.165 -1.6007 -3.2739 -0.2730
 5617TIP3    H238343   5.772   2.386   6.282 -0.6071  0.7038 -0.6297
 5618TIP3   OH238344   2.806   5.109   4.986 -0.0561  0.0949 -0.4052
 5618TIP3    H138345   2.711   5.099   4.990 -0.2487  1.2596 -1.3894
 5618TIP3    H238346   2.821   5.201   5.008  1.1368 -0.7712  2.9087
 5619TIP3   OH238347   5.470   2.995  16.501 -0.3568 -0.0717 -0.3899
 5619TIP3    H138348   5.554   2.949  16.496 -0.0117  0.5376 -0.3050
 5619TIP3    H238349   5.444   2.988  16.593 -0.4917 -0.4216 -0.4541
 5620TIP3   OH238350   2.624   2.034  14.735 -0.0543  0.0640  0.0972
 5620TIP3    H138351   2.704   2.047  14.683  0.1244 -0.6321  0.1898
 5620TIP3    H238352   2.644   1.960  14.792 -1.3458 -1.2413 -1.0618
 5621TIP3   OH238353   1.914   6.653   0.492 -0.2132 -0.3760  0.1042
 5621TIP3    H138354   1.878   6.564   0.496  0.2727 -0.7652 -2.3999
 5621TIP3    H238355   1.837   6.710   0.497 -0.5246 -0.8805  1.7828
 5622TIP3   OH238356   2.718   5.701   0.684  0.2628 -0.0913  0.0655
 5622TIP3    H138357   2.787   5.699   0.618  0.1760  2.4836 -0.1914
 5622TIP3    H238358   2.647   5.649   0.646  1.0815 -0.5851 -0.8154
 5623TIP3   OH238359   3.797   4.654  17.071  0.3910  0.3303 -0.0983
 5623TIP3    H138360   3.863   4.641  17.139 -0.2827  1.3745  0.7916
 5623TIP3    H238361   3.846   4.684  16.995  1.0299  0.3263  0.3030
 5624TIP3   OH238362   0.327   4.844   3.163 -0.0305 -0.0111 -0.1938
 5624TIP3    H138363   0.325   4.773   3.226 -1.5603 -0.3084 -0.5415
 5624TIP3    H238364   0.307   4.803   3.079  2.1489  0.3416 -0.9686
 5625TIP3   OH238365   4.168   5.456  14.927  0.4380  0.2096 -0.0494
 5625TIP3    H138366   4.155   5.535  14.875 -0.1967 -0.6572 -1.2537
 5625TIP3    H238367   4.173   5.386  14.863  0.3006 -0.8173  1.0306
 5626TIP3   OH238368   0.702   5.213  16.759  0.2500 -0.8928  0.5503
 5626TIP3    H138369   0.636   5.244  16.821 -1.5973 -1.8035 -0.8726
 5626TIP3    H238370   0.670   5.241  16.674  2.3610 -0.3088 -0.1280
 5627TIP3   OH238371   2.193   0.022   4.197 -0.1232 -0.0864 -0.7002
 5627TIP3    H138372   2.217  -0.060   4.241  0.0938  0.7182  0.7566
 5627TIP3    H238373   2.184  -0.002   4.105 -0.6148 -1.8565 -0.2342
 5628TIP3   OH238374   0.160   6.190   4.890 -0.5346  0.0587 -0.4347
 5628TIP3    H138375   0.250   6.180   4.859 -0.2917  1.5777 -0.2936
 5628TIP3    H238376   0.169   6.206   4.984 -0.7977  1.9785 -0.7018
 5629TIP3   OH238377   3.682   4.201   3.883  0.2162 -0.3588  0.1953
 5629TIP3    H138378   3.757   4.249   3.920 -0.7760  1.2682  0.1887
 5629TIP3    H238379   3.611   4.214   3.946 -0.3839 -0.9607 -0.3337
 5630TIP3   OH238380   1.760   2.869   2.241 -0.6556  0.0773  0.7419
 5630TIP3    H138381   1.739   2.776   2.246 -1.5026  0.1956 -0.3156
 5630TIP3    H238382   1.675   2.912   2.238 -0.4079  0.6252 -2.8959
 5631TIP3   OH238383   6.505   6.710   0.328 -0.1707 -0.1003 -0.1790
 5631TIP3    H138384   6.444   6.661   0.272 -1.6597  0.3538  0.9897
 5631TIP3    H238385   6.589   6.668   0.314 -0.9139 -1.3277 -1.1701
 5632TIP3   OH238386   3.144   5.830   2.903 -0.2730  0.0318 -0.8369
 5632TIP3    H138387   3.122   5.738   2.920  0.1825  0.0412 -0.1868
 5632TIP3    H238388   3.067   5.879   2.932  0.1343 -0.0231  0.4007
 5633TIP3   OH238389   4.794   5.155  15.110  0.1349  0.0401  0.8601
 5633TIP3    H138390   4.831   5.108  15.185 -1.2156 -2.4427  0.0608
 5633TIP3    H238391   4.852   5.132  15.037 -1.4512 -1.8458  0.1218
 5634TIP3   OH238392   6.798   0.768  10.644  0.2864  0.0245  0.0102
 5634TIP3    H138393   6.732   0.768  10.713 -2.1068  2.0957 -2.1165
 5634TIP3    H238394   6.800   0.858  10.611  1.8624 -0.6989 -2.1481
 5635TIP3   OH238395   1.541   3.898   0.600  0.0583 -0.4997 -0.2977
 5635TIP3    H138396   1.475   3.830   0.617 -0.5570 -0.5555 -2.6151
 5635TIP3    H238397   1.573   3.922   0.687 -2.1226 -1.3616  0.8298
 5636TIP3   OH238398   2.175   6.849  13.620  0.6015  0.7877  0.6072
 5636TIP3    H138399   2.108   6.870  13.554 -1.3458 -0.6299  2.0163
 5636TIP3    H238400   2.252   6.824  13.568 -0.8009 -0.1246 -1.1644
 5637TIP3   OH238401   5.493   1.499   1.549 -0.2367  0.2409 -0.1016
 5637TIP3    H138402   5.435   1.571   1.524  0.1393  0.8500  0.7225
 5637TIP3    H238403   5.502   1.507   1.644  0.6787 -0.2369 -0.1354
 5638TIP3   OH238404   3.417   3.367  13.408  0.2285  0.4975 -0.0022
 5638TIP3    H138405   3.420   3.433  13.338  0.1178  0.3000 -0.1931
 5638TIP3    H238406   3.324   3.346  13.417  0.3963 -0.8472 -1.0793
 5639TIP3   OH238407   5.653   1.337  11.906 -0.1277 -0.5575 -0.1470
 5639TIP3    H138408   5.669   1.429  11.884  1.6115 -0.5762  0.8839
 5639TIP3    H238409   5.708   1.288  11.844  0.7849 -0.7983  0.8369
 5640TIP3   OH238410   2.596   3.506  15.814 -0.7288 -0.3686 -0.1819
 5640TIP3    H138411   2.584   3.455  15.894 -0.2074 -0.6802 -0.2980
 5640TIP3    H238412   2.685   3.540  15.821 -1.3346  1.2121  0.2803
 5641TIP3   OH238413   2.537   6.651   3.141 -0.4584  0.9814  0.6135
 5641TIP3    H138414   2.488   6.641   3.222  0.0137  0.0032  0.7971
 5641TIP3    H238415   2.574   6.564   3.125  1.7176  1.8001  0.8201
 5642TIP3   OH238416   2.504   0.082   3.658  1.0068  0.4713  0.2922
 5642TIP3    H138417   2.540   0.142   3.593  0.0144  2.3738  1.3923
 5642TIP3    H238418   2.415   0.062   3.627  0.8900  0.5841  0.5474
 5643TIP3   OH238419   5.750   6.155  16.694 -0.4414  0.5678  0.0501
 5643TIP3    H138420   5.814   6.194  16.754  0.0818  0.9567 -0.7547
 5643TIP3    H238421   5.688   6.110  16.752  1.2259 -0.8679  0.7844
 5644TIP3   OH238422   4.020   2.390  15.638 -0.0660 -0.3388 -0.3657
 5644TIP3    H138423   3.965   2.327  15.684  1.1533 -0.1168  1.4920
 5644TIP3    H238424   4.073   2.338  15.578 -2.6884 -0.5003 -2.7823
 5645TIP3   OH238425   5.251   2.908   3.070 -0.8591 -0.0939 -0.5163
 5645TIP3    H138426   5.193   2.852   3.122  0.4266 -1.8408 -0.8585
 5645TIP3    H238427   5.328   2.920   3.124  0.9368 -2.7808 -2.2263
 5646TIP3   OH238428   0.893   5.915  14.064 -0.1098 -0.1958  0.2246
 5646TIP3    H138429   0.823   5.927  14.000  0.1852 -0.1236 -0.0919
 5646TIP3    H238430   0.948   5.846  14.026  0.5211  0.4193  0.0023
 5647TIP3   OH238431   2.157   4.999   1.180 -0.1692  0.0792  0.3440
 5647TIP3    H138432   2.214   4.935   1.223 -2.0093 -1.6607  0.3661
 5647TIP3    H238433   2.096   5.026   1.249 -0.2829  0.7875 -0.0319
 5648TIP3   OH238434   6.443   6.512   1.596 -0.1922 -0.2368 -0.3607
 5648TIP3    H138435   6.439   6.420   1.621 -1.9862  0.1034  0.7674
 5648TIP3    H238436   6.464   6.559   1.677 -4.2719  0.7099  0.3884
 5649TIP3   OH238437   5.960   4.973  15.745  0.6031 -0.4245 -0.0474
 5649TIP3    H138438   5.983   5.014  15.829  1.6492 -0.0650 -0.4988
 5649TIP3    H238439   6.014   4.895  15.740  0.4306 -0.5290 -0.3157
 5650TIP3   OH238440   3.122   0.826  16.945  0.3503  0.0375 -0.1722
 5650TIP3    H138441   3.197   0.851  16.891  2.1153 -1.9714  1.2162
 5650TIP3    H238442   3.085   0.750  16.900 -0.0699  0.2245 -0.1488
 5651TIP3   OH238443   4.178   5.813  16.895  0.2007  0.3418  0.2470
 5651TIP3    H138444   4.136   5.727  16.894  1.7050 -0.4398 -1.2644
 5651TIP3    H238445   4.263   5.798  16.937  0.4754  1.0945 -0.0171
 5652TIP3   OH238446   4.204   2.359   4.223 -0.3699  0.2650  0.3415
 5652TIP3    H138447   4.270   2.309   4.272 -0.9353  1.1073  2.0319
 5652TIP3    H238448   4.121   2.331   4.260 -0.6880  2.6781  1.6114
 5653TIP3   OH238449   6.454   4.140  15.457  0.1380 -0.5746 -0.5462
 5653TIP3    H138450   6.460   4.104  15.546 -1.3420  1.1403  0.3086
 5653TIP3    H238451   6.390   4.083  15.413  1.0224 -1.5495 -0.6100
 5654TIP3   OH238452   3.500   1.746  11.252 -0.0288 -0.2522 -0.5198
 5654TIP3    H138453   3.558   1.734  11.177 -1.7559 -1.0687 -1.7926
 5654TIP3    H238454   3.472   1.657  11.274 -3.3402  0.2382 -2.1211
 5655TIP3   OH238455   1.324   6.449  12.687 -0.2625 -0.3369 -0.2320
 5655TIP3    H138456   1.307   6.445  12.781 -1.4147  0.4399 -0.3803
 5655TIP3    H238457   1.383   6.376  12.669  0.8150  0.1274  1.2579
 5656TIP3   OH238458   1.597   4.265  16.684 -0.1726 -0.2934  0.4362
 5656TIP3    H138459   1.538   4.333  16.652  0.6838  0.6658  0.8166
 5656TIP3    H238460   1.583   4.265  16.779 -2.3270 -2.7583  0.2328
 5657TIP3   OH238461   4.333   4.408   0.803  0.3355 -0.3405 -0.2162
 5657TIP3    H138462   4.256   4.429   0.855  0.6352  0.7094 -0.1754
 5657TIP3    H238463   4.373   4.493   0.784  1.2738 -0.8429 -0.5498
 5658TIP3   OH238464   5.933   1.095   2.651 -0.2559 -0.1534 -0.6914
 5658TIP3    H138465   5.853   1.044   2.663  0.3743 -1.0213  0.0299
 5658TIP3    H238466   6.003   1.030   2.657  0.6638  0.9402  1.5838
 5659TIP3   OH238467   1.888   4.164  11.890 -0.1128 -0.6899 -0.0044
 5659TIP3    H138468   1.975   4.172  11.930 -0.1719 -0.1586  0.0299
 5659TIP3    H238469   1.828   4.197  11.957 -0.4738 -2.2397  0.4643
 5660TIP3   OH238470   3.748   5.581  16.925 -0.2830 -0.4803  0.0971
 5660TIP3    H138471   3.717   5.558  16.837  0.1296 -0.9324  0.0689
 5660TIP3    H238472   3.763   5.676  16.921  0.3838 -0.6036 -0.5295
 5661TIP3   OH238473   4.288   6.323   3.259 -0.2348  0.1070  0.1036
 5661TIP3    H138474   4.198   6.299   3.276 -0.7845 -0.2462 -2.7185
 5661TIP3    H238475   4.335   6.240   3.256 -0.5305 -0.0481 -1.6262
 5662TIP3   OH238476   3.050   4.168   2.094 -0.1355 -0.3770  0.8430
 5662TIP3    H138477   3.099   4.237   2.139 -1.4592 -0.8524  3.1672
 5662TIP3    H238478   3.078   4.087   2.136 -0.8535 -0.9540  0.2448
 5663TIP3   OH238479   3.380   2.353  15.585  0.2185  0.1748  0.2600
 5663TIP3    H138480   3.462   2.315  15.554  0.0540 -0.5306  0.6547
 5663TIP3    H238481   3.346   2.288  15.647  0.2725  1.2839  1.4925
 5664TIP3   OH238482   4.029   1.746  11.267 -0.0909  0.0555 -0.1485
 5664TIP3    H138483   3.971   1.812  11.306 -2.0045 -1.5697 -0.0410
 5664TIP3    H238484   4.062   1.696  11.342 -0.0088 -0.1469 -0.3201
 5665TIP3   OH238485   5.780   0.527   5.449  0.3759 -0.5953  0.2708
 5665TIP3    H138486   5.818   0.470   5.515  1.5329 -3.5873 -2.7044
 5665TIP3    H238487   5.850   0.589   5.427  1.5226 -2.2721 -0.9908
 5666TIP3   OH238488   3.364   2.268   3.064 -0.5019 -0.5224 -0.0013
 5666TIP3    H138489   3.309   2.193   3.086 -1.7122  0.2906 -0.1608
 5666TIP3    H238490   3.359   2.275   2.969  1.3928 -1.5345 -0.2229
 5667TIP3   OH238491   2.120   5.491  16.364  1.1672 -0.4358 -0.2629
 5667TIP3    H138492   2.189   5.429  16.389  2.1014  0.9064  0.6030
 5667TIP3    H238493   2.152   5.576  16.395 -0.9815  0.2011  0.3644
 5668TIP3   OH238494   1.722   6.455   0.552  0.3850 -0.4957  0.1673
 5668TIP3    H138495   1.662   6.386   0.524 -0.1743 -0.0016  0.1306
 5668TIP3    H238496   1.716   6.455   0.648  1.8368 -1.7748  0.2892
 5669TIP3   OH238497   1.676   0.229   1.202  0.0633  0.0207  0.0973
 5669TIP3    H138498   1.724   0.297   1.155  0.7819 -1.1606 -0.9457
 5669TIP3    H238499   1.680   0.256   1.294  3.6435 -0.4860  0.2343
 5670TIP3   OH238500   2.841   4.835  12.749 -0.3437  0.2552  0.4907
 5670TIP3    H138501   2.854   4.834  12.844  0.5841  0.0705  0.3661
 5670TIP3    H238502   2.794   4.754  12.731 -0.9048  0.4965  0.8389
 5671TIP3   OH238503   2.062   0.359  16.144 -0.3586 -0.1860 -0.1460
 5671TIP3    H138504   1.978   0.392  16.113  0.8279  1.8370 -1.4733
 5671TIP3    H238505   2.087   0.292  16.081  0.1891  1.0912 -1.3464
 5672TIP3   OH238506   3.389   0.573   1.026  0.3054  0.1299 -0.5764
 5672TIP3    H138507   3.325   0.518   0.981 -0.6297  1.2310 -0.6508
 5672TIP3    H238508   3.469   0.562   0.975 -0.0148 -0.6986 -0.9269
 5673TIP3   OH238509   2.049   3.878  11.034  0.0174 -0.5141 -0.3589
 5673TIP3    H138510   1.998   3.850  10.958 -0.9782 -1.4490  0.6317
 5673TIP3    H238511   2.134   3.902  10.997 -1.1383  1.2515 -2.0621
 5674TIP3   OH238512   3.111   3.163  13.253 -0.4469  0.0026 -0.7353
 5674TIP3    H138513   3.020   3.135  13.264 -0.1145 -0.7338  0.3221
 5674TIP3    H238514   3.163   3.090  13.287  0.4850  1.2951  0.7783
 5675TIP3   OH238515   1.308   0.023  14.240 -0.4029  0.8378  0.4689
 5675TIP3    H138516   1.359   0.086  14.292  1.0348  0.2550 -0.1661
 5675TIP3    H238517   1.230   0.071  14.214 -0.2594  1.7301  1.6149
 5676TIP3   OH238518   2.524   6.452  14.823 -0.2551 -0.0414  0.5247
 5676TIP3    H138519   2.550   6.497  14.904 -1.8177 -0.8924  1.5542
 5676TIP3    H238520   2.588   6.481  14.758  1.7557 -0.1713  2.3167
 5677TIP3   OH238521   2.477   1.508   5.748  0.3445 -0.4923 -0.8466
 5677TIP3    H138522   2.545   1.451   5.787  1.6181 -0.3661 -2.7566
 5677TIP3    H238523   2.519   1.593   5.742 -0.2644 -0.2269 -1.3687
 5678TIP3   OH238524   6.323   3.091   6.528 -0.0192 -0.2253  0.1995
 5678TIP3    H138525   6.261   3.036   6.479 -1.8386  1.9072 -0.0363
 5678TIP3    H238526   6.318   3.177   6.487  2.6246  0.2388  0.6641
 5679TIP3   OH238527   0.503   6.531   0.038 -0.3435 -0.8752 -0.0925
 5679TIP3    H138528   0.427   6.589   0.039  0.4452  0.2264 -0.9856
 5679TIP3    H238529   0.529   6.523   0.130  0.3466  1.3599 -0.0203
 5680TIP3   OH238530   1.037   2.679   2.660 -0.2089 -0.0599  0.2528
 5680TIP3    H138531   1.020   2.636   2.577  1.1375  1.7979 -1.0747
 5680TIP3    H238532   1.129   2.660   2.678 -0.9261 -2.0487  2.4033
 5681TIP3   OH238533   5.844   5.243  15.203  0.2959 -0.1861  0.1877
 5681TIP3    H138534   5.923   5.287  15.172 -0.5344  1.5448  0.3587
 5681TIP3    H238535   5.799   5.215  15.124  0.4976 -0.0659  0.0305
 5682TIP3   OH238536   2.422   3.336  16.303  0.3012  0.0028 -0.3353
 5682TIP3    H138537   2.330   3.347  16.277  0.4843  0.2005 -0.9190
 5682TIP3    H238538   2.443   3.415  16.353  0.1048 -0.1225 -0.0538
 5683TIP3   OH238539   0.083   2.490   3.619 -0.5133  0.8380 -0.6767
 5683TIP3    H138540   0.056   2.569   3.666  1.2927  1.6275 -0.9093
 5683TIP3    H238541   0.013   2.427   3.637 -0.9806  1.8216  1.2194
 5684TIP3   OH238542   4.434   3.066   4.278 -0.6041 -0.1560 -0.2379
 5684TIP3    H138543   4.427   3.025   4.364  0.6463 -2.2227 -1.0287
 5684TIP3    H238544   4.401   3.000   4.217  0.6734  0.3165 -1.5173
 5685TIP3   OH238545   0.805   5.024   2.880  0.0526 -0.0506  0.1824
 5685TIP3    H138546   0.853   5.055   2.803 -0.5578  0.7181  0.0885
 5685TIP3    H238547   0.741   4.962   2.845  0.7878 -0.8806  0.2759
 5686TIP3   OH238548   2.106   5.870  14.894 -0.2333  0.2943  0.4703
 5686TIP3    H138549   2.014   5.856  14.917 -0.6432  2.4103  0.3719
 5686TIP3    H238550   2.112   5.843  14.802 -0.7655  0.1035  0.4855
 5687TIP3   OH238551   0.307   1.682  17.062 -0.7746 -0.3035 -0.0086
 5687TIP3    H138552   0.262   1.616  17.115 -1.1299  0.3355  0.5028
 5687TIP3    H238553   0.237   1.739  17.030 -0.3452  0.7014  0.7904
 5688TIP3   OH238554   3.143   1.019  12.139 -0.5587 -0.5615 -0.4805
 5688TIP3    H138555   3.078   1.085  12.117  0.3785 -0.4128 -3.1316
 5688TIP3    H238556   3.094   0.937  12.142 -1.4251 -0.0225  1.0844
 5689TIP3   OH238557   6.179   1.699   5.922 -0.0306 -0.6543  0.3909
 5689TIP3    H138558   6.196   1.792   5.906  0.1172 -0.7488  0.0043
 5689TIP3    H238559   6.221   1.682   6.007  0.8216 -0.6080 -0.0112
 5690TIP3   OH238560   3.696   0.145  15.335 -0.0995 -0.0431 -0.6467
 5690TIP3    H138561   3.607   0.109  15.336 -0.0801 -0.1716  1.7282
 5690TIP3    H238562   3.691   0.224  15.389  1.3115 -0.3340 -0.0431
 5691TIP3   OH238563   4.746   5.138   5.368  0.6335  0.2359  0.2951
 5691TIP3    H138564   4.682   5.116   5.436  1.4784 -3.6416  0.0703
 5691TIP3    H238565   4.698   5.124   5.286  0.5129  1.8620  0.0649
 5692TIP3   OH238566   6.450   2.560   4.943  0.0276  0.1895  1.0080
 5692TIP3    H138567   6.517   2.589   5.005  0.1714  0.6835  0.6231
 5692TIP3    H238568   6.451   2.464   4.951 -1.0760  0.2955  2.9303
 5693TIP3   OH238569   6.533   2.144  11.981  0.3991  0.2970 -0.2790
 5693TIP3    H138570   6.556   2.111  11.895 -2.1391  0.1507 -0.9896
 5693TIP3    H238571   6.507   2.066  12.030  0.3555  0.5488  0.1058
 5694TIP3   OH238572   6.673   5.535   0.960 -0.0831  0.1663 -0.2542
 5694TIP3    H138573   6.757   5.563   0.996 -0.2626 -1.2353  1.4328
 5694TIP3    H238574   6.615   5.527   1.036 -0.7870 -2.0067 -0.9196
 5695TIP3   OH238575   0.753   1.016   1.591 -0.3136 -0.3796 -0.4652
 5695TIP3    H138576   0.738   1.037   1.499 -0.8712  1.9074  0.0724
 5695TIP3    H238577   0.773   1.101   1.631 -2.0753 -0.9813  1.8879
 5696TIP3   OH238578   5.925   0.689  15.985 -0.2932  0.2644  0.1722
 5696TIP3    H138579   6.008   0.736  15.989  0.5057 -1.1517  0.8297
 5696TIP3    H238580   5.861   0.756  15.958  1.3234  0.9859 -2.1266
 5697TIP3   OH238581   4.970   4.540  10.501  0.4240 -0.3170  0.0371
 5697TIP3    H138582   4.985   4.450  10.528 -1.1792 -0.8500 -0.7020
 5697TIP3    H238583   4.877   4.543  10.479  0.7099  1.2088 -1.1328
 5698TIP3   OH238584   4.899   1.743  15.314  0.2056 -0.2327  0.1086
 5698TIP3    H138585   4.958   1.800  15.364 -0.0137  0.3019 -0.2379
 5698TIP3    H238586   4.946   1.659  15.309  0.1825 -0.3409  1.3091
 5699TIP3   OH238587   4.901   0.572  12.886  0.3393  0.1408 -0.4044
 5699TIP3    H138588   4.860   0.509  12.945 -1.0072  1.6264  0.2881
 5699TIP3    H238589   4.993   0.543  12.882  0.0437 -1.1176  0.8680
 5700TIP3   OH238590   0.752   3.319   4.264 -0.0178  0.6756 -0.0398
 5700TIP3    H138591   0.680   3.365   4.221 -0.7691  1.2150  1.7050
 5700TIP3    H238592   0.830   3.347   4.218 -0.6769  2.1494 -0.2954
 5701TIP3   OH238593   0.298   0.589   3.837 -0.8339  0.4729 -0.4914
 5701TIP3    H138594   0.255   0.526   3.779  0.1395  1.1461 -2.0207
 5701TIP3    H238595   0.234   0.607   3.905 -1.1113 -2.2085  0.0475
 5702TIP3   OH238596   3.631   5.686  15.759 -0.3107 -0.7548  0.6964
 5702TIP3    H138597   3.721   5.713  15.779 -0.1100 -1.8067  1.2958
 5702TIP3    H238598   3.597   5.756  15.703  1.6221 -1.3907 -1.4508
 5703TIP3   OH238599   2.391   2.151   0.931  0.5985  0.1332  0.4460
 5703TIP3    H138600   2.305   2.136   0.970  1.0413  0.4333  1.5876
 5703TIP3    H238601   2.445   2.183   1.003  1.8984 -0.8417 -0.0344
 5704TIP3   OH238602   0.676   1.162   4.347  0.2068 -0.4325  0.6181
 5704TIP3    H138603   0.593   1.125   4.376  0.2173 -1.6607 -0.7633
 5704TIP3    H238604   0.719   1.090   4.302  0.8762  0.8856 -0.9583
 5705TIP3   OH238605   1.293   2.184   1.627  0.2815  0.4185 -0.1222
 5705TIP3    H138606   1.324   2.093   1.624 -0.1193  0.2875 -0.7493
 5705TIP3    H238607   1.320   2.221   1.543  1.1657  1.1395  0.4677
 5706TIP3   OH238608   3.981   2.905   0.971 -0.0217  0.4424  0.4467
 5706TIP3    H138609   3.951   2.995   0.962 -0.4931  0.1373 -1.8456
 5706TIP3    H238610   4.069   2.905   0.933 -0.6948 -0.3286 -1.2426
 5707TIP3   OH238611   2.095   4.666   1.103 -0.7864  0.0632 -0.0541
 5707TIP3    H138612   2.152   4.594   1.079 -0.0491  0.4091  0.6351
 5707TIP3    H238613   2.092   4.722   1.025 -1.2961 -0.6475 -0.5606
 5708TIP3   OH238614   5.862   0.643   4.916 -0.2849  0.0058  0.2831
 5708TIP3    H138615   5.871   0.738   4.909 -2.4686  0.3337  1.0076
 5708TIP3    H238616   5.865   0.626   5.010  1.0161 -0.8043  0.1288
 5709TIP3   OH238617   4.664   4.685   3.010  0.5075  0.2593 -0.0701
 5709TIP3    H138618   4.677   4.718   2.921 -0.9215 -2.3402 -1.3543
 5709TIP3    H238619   4.573   4.655   3.012 -0.0477  1.7741  2.8758
 5710TIP3   OH238620   0.928   1.393   3.684  0.0250  0.2765  0.1831
 5710TIP3    H138621   0.970   1.351   3.759  0.8911  0.3619 -0.2414
 5710TIP3    H238622   0.957   1.484   3.688 -1.6732  0.8365  0.9793
 5711TIP3   OH238623   1.396   1.433   0.785 -0.2710 -0.2320 -0.4834
 5711TIP3    H138624   1.369   1.421   0.876 -0.2969  0.3303 -0.4111
 5711TIP3    H238625   1.489   1.412   0.785  0.3805  2.3190  0.2478
 5712TIP3   OH238626   6.299   3.786   1.361 -0.3890 -1.1056 -0.0311
 5712TIP3    H138627   6.390   3.784   1.390  0.1127 -4.0894 -1.3644
 5712TIP3    H238628   6.291   3.867   1.310  1.7686 -1.1513 -0.5217
 5713TIP3   OH238629   1.562   6.789  12.527  0.5101  0.5343  0.3757
 5713TIP3    H138630   1.549   6.709  12.578 -1.1196 -0.5163 -1.5666
 5713TIP3    H238631   1.536   6.766  12.438  2.0202  2.6595 -0.7140
 5714TIP3   OH238632   1.054   0.638   1.078  0.2646  0.0582 -0.0500
 5714TIP3    H138633   1.127   0.578   1.094 -0.1560  0.0724  2.1802
 5714TIP3    H238634   0.982   0.581   1.051 -0.4132 -0.6717  2.9671
 5715TIP3   OH238635   6.525   6.722  12.839  0.4317  0.3445 -0.6865
 5715TIP3    H138636   6.564   6.761  12.918 -0.2018  0.5800 -0.4818
 5715TIP3    H238637   6.460   6.661  12.873 -1.3389  1.9574 -0.9924
 5716TIP3   OH238638   1.486   1.948   6.097 -0.0293  0.0287  0.2081
 5716TIP3    H138639   1.544   1.872   6.105  1.2086  0.8476 -0.6423
 5716TIP3    H238640   1.410   1.914   6.050  0.2845 -0.7991  0.2788
 5717TIP3   OH238641   3.417   4.022  13.380  0.2177  0.4068  0.0156
 5717TIP3    H138642   3.353   3.963  13.341  0.8415 -0.3265  0.0698
 5717TIP3    H238643   3.366   4.096  13.413 -0.4406  0.4889 -1.1623
 5718TIP3   OH238644   2.720   4.632   0.342 -0.3120  0.8656 -0.0321
 5718TIP3    H138645   2.641   4.643   0.289 -0.3657 -0.7043 -0.3352
 5718TIP3    H238646   2.695   4.665   0.429 -1.4367  0.0941 -0.0349
 5719TIP3   OH238647   2.468   0.722  11.961 -0.3448  0.0867  0.7179
 5719TIP3    H138648   2.405   0.780  12.004 -1.1919  0.1406 -0.5354
 5719TIP3    H238649   2.418   0.679  11.892  0.8818 -0.2235 -0.0133
 5720TIP3   OH238650   1.290   2.260   4.509  0.0781 -0.6661 -0.7759
 5720TIP3    H138651   1.310   2.188   4.450  0.0375 -0.4517 -1.0530
 5720TIP3    H238652   1.345   2.332   4.479  0.3797 -0.6864 -0.2802
 5721TIP3   OH238653   0.367   3.808  12.021  0.1674  0.1561 -0.1317
 5721TIP3    H138654   0.352   3.828  11.929  0.3743  0.2373 -0.1501
 5721TIP3    H238655   0.296   3.852  12.068  0.8828  1.3634 -0.1310
 5722TIP3   OH238656   6.301   1.374   6.088 -0.0373 -0.0723 -0.2927
 5722TIP3    H138657   6.339   1.314   6.153 -1.7222  0.3316  1.1678
 5722TIP3    H238658   6.279   1.452   6.138 -0.8695  0.4910 -1.4904
 5723TIP3   OH238659   2.458   5.004   4.508 -0.0979 -0.3105  0.7323
 5723TIP3    H138660   2.552   5.024   4.507  0.3228 -1.9687  2.3733
 5723TIP3    H238661   2.454   4.911   4.532 -2.1604 -0.3883  0.2232
 5724TIP3   OH238662   2.429   0.674   0.717  0.3129  0.8134 -0.1590
 5724TIP3    H138663   2.426   0.644   0.808 -0.7663  0.6931 -0.2232
 5724TIP3    H238664   2.380   0.756   0.717  1.4641  1.5312 -0.3911
 5725TIP3   OH238665   2.980   0.307   1.423 -0.2915 -0.2972  0.6617
 5725TIP3    H138666   2.943   0.220   1.404 -0.3739 -0.5397  1.8530
 5725TIP3    H238667   3.067   0.305   1.384 -0.3780 -0.8436  0.4841
 5726TIP3   OH238668   4.234   1.540   4.933  0.8312 -0.3279  0.3636
 5726TIP3    H138669   4.217   1.634   4.935  2.4349  0.0670 -1.8787
 5726TIP3    H238670   4.147   1.501   4.924  0.3237  1.1321 -1.9371
 5727TIP3   OH238671   5.567   1.365  15.325  0.1260  0.1534  0.0562
 5727TIP3    H138672   5.588   1.341  15.235 -0.5444 -0.6314  0.0920
 5727TIP3    H238673   5.473   1.351  15.332 -0.0266  1.3088  0.5613
 5728TIP3   OH238674   2.131   1.446   0.172  0.4946 -0.0932  0.3941
 5728TIP3    H138675   2.173   1.512   0.227  2.8436 -0.7796 -0.4255
 5728TIP3    H238676   2.162   1.465   0.084  0.0929 -1.4322 -0.0620
 5729TIP3   OH238677   4.619   1.521   2.112 -0.3457 -0.5878  0.3210
 5729TIP3    H138678   4.666   1.479   2.040 -1.2994 -1.6160  0.2743
 5729TIP3    H238679   4.554   1.457   2.139 -1.5744  0.6959  0.5500
 5730TIP3   OH238680   6.783   3.257  16.615 -0.2722 -0.5569 -0.3370
 5730TIP3    H138681   6.830   3.196  16.559 -1.8733 -0.7535 -1.5618
 5730TIP3    H238682   6.807   3.343  16.582  2.9760 -0.3177  2.1897
 5731TIP3   OH238683   5.204   2.897   3.514 -0.1925  0.1450  0.0455
 5731TIP3    H138684   5.240   2.814   3.483  0.1938  0.2875  0.1100
 5731TIP3    H238685   5.199   2.887   3.609  0.2123  0.3363  0.0881
 5732TIP3   OH238686   5.204   6.051  13.022 -0.5174 -0.4388  0.4778
 5732TIP3    H138687   5.262   5.976  13.029  1.9352  1.2917 -0.0248
 5732TIP3    H238688   5.263   6.127  13.020 -2.8796  1.6369  2.4608
 5733TIP3   OH238689   2.651   2.058   5.341  0.2206  0.8212  0.7142
 5733TIP3    H138690   2.597   2.130   5.309  0.4336  0.4602 -0.4935
 5733TIP3    H238691   2.595   1.980   5.332 -0.5823  0.9899  3.4553
 5734TIP3   OH238692   2.504   4.629  11.287 -0.3348 -0.4121  0.1564
 5734TIP3    H138693   2.460   4.579  11.356 -1.7361  1.5134  0.7258
 5734TIP3    H238694   2.574   4.676  11.333  0.5073 -1.2504 -0.2458
 5735TIP3   OH238695   6.060   4.399   4.009 -0.0531 -0.1432 -0.1470
 5735TIP3    H138696   5.975   4.409   4.052  0.8548  1.9249  1.3777
 5735TIP3    H238697   6.040   4.385   3.917 -2.0686  2.0531 -0.1244
 5736TIP3   OH238698   6.094   5.887  10.543 -0.1860  0.0914  0.0772
 5736TIP3    H138699   6.039   5.840  10.481 -0.3163 -1.4270  1.2802
 5736TIP3    H238700   6.050   5.972  10.553 -0.8963 -0.1412 -0.8783
 5737TIP3   OH238701   0.456   2.284   0.226  0.7638  0.0388  0.1780
 5737TIP3    H138702   0.536   2.337   0.221 -0.2123  1.6844  1.2456
 5737TIP3    H238703   0.436   2.262   0.135  1.6967  0.7428 -0.2089
 5738TIP3   OH238704   5.652   2.086  14.513  0.9764 -0.0320  0.1078
 5738TIP3    H138705   5.654   2.043  14.599 -0.4842  0.1813  0.2671
 5738TIP3    H238706   5.721   2.042  14.463  0.8996 -1.1383  0.9395
 5739TIP3   OH238707   6.558   1.271   2.595 -0.3337  0.7605  0.1025
 5739TIP3    H138708   6.488   1.268   2.661 -0.9582 -1.8528 -0.5661
 5739TIP3    H238709   6.513   1.290   2.513 -0.0659  0.5675 -0.0926
 5740TIP3   OH238710   1.235   5.155   6.442 -0.0575 -0.1029 -0.4350
 5740TIP3    H138711   1.217   5.199   6.359 -2.2093 -0.1549 -0.0546
 5740TIP3    H238712   1.150   5.119   6.469  0.7706 -0.8350  1.3630
 5741TIP3   OH238713   3.248   6.629  14.852 -0.5228 -0.5992 -0.0240
 5741TIP3    H138714   3.219   6.546  14.889 -0.1449 -0.8900 -0.3808
 5741TIP3    H238715   3.167   6.671  14.821 -0.8907 -0.1809  1.4496
 5742TIP3   OH238716   4.463   0.664   3.943  0.2242 -0.0034 -0.2348
 5742TIP3    H138717   4.478   0.633   3.854  0.3831 -2.0173  0.4451
 5742TIP3    H238718   4.371   0.690   3.945  0.1640 -0.1607 -0.9122
 5743TIP3   OH238719   4.079   2.810   4.591 -0.3214 -0.4716  0.3307
 5743TIP3    H138720   4.005   2.784   4.647  0.7626 -0.2982  1.8868
 5743TIP3    H238721   4.112   2.890   4.631 -0.3380  0.4205 -1.3692
 5744TIP3   OH238722   5.002   1.419  17.047 -0.3075 -0.5715 -0.3380
 5744TIP3    H138723   5.042   1.505  17.061 -3.8046  1.0722  0.8117
 5744TIP3    H238724   5.006   1.405  16.953 -1.8551  2.1643 -0.9047
 5745TIP3   OH238725   6.580   6.193  12.980 -0.0961  0.9411 -0.4125
 5745TIP3    H138726   6.666   6.155  12.961 -1.0233 -1.7144  0.1596
 5745TIP3    H238727   6.544   6.214  12.894  0.9317  1.6405 -0.6859
 5746TIP3   OH238728   1.904   2.740  14.722  0.1103  0.5643  0.0106
 5746TIP3    H138729   1.839   2.741  14.651 -1.1473 -0.1463  1.1105
 5746TIP3    H238730   1.959   2.817  14.705 -0.2408  0.4946 -1.6360
 5747TIP3   OH238731   3.622   5.316  10.972 -0.4067 -0.2173  0.1474
 5747TIP3    H138732   3.614   5.380  10.902  0.0864 -0.9149 -0.5520
 5747TIP3    H238733   3.715   5.297  10.978 -0.5054 -0.5855  0.6108
 5748TIP3   OH238734   2.151   2.292   3.185  0.2197 -0.3454 -0.4056
 5748TIP3    H138735   2.081   2.304   3.250  0.1042 -2.3163 -0.1019
 5748TIP3    H238736   2.105   2.288   3.101  0.1520 -0.0495 -0.3867
 5749TIP3   OH238737   4.136   2.336  10.942 -0.4544  0.3549 -1.0860
 5749TIP3    H138738   4.179   2.304  11.021  1.4140 -3.5860 -3.4468
 5749TIP3    H238739   4.200   2.395  10.902 -0.1121 -0.0696 -1.1682
 5750TIP3   OH238740   1.421   1.271   2.523 -0.0018  0.1910  0.3139
 5750TIP3    H138741   1.492   1.292   2.462  0.3328  0.0621  0.6512
 5750TIP3    H238742   1.461   1.278   2.610  0.0759 -1.5585  0.4641
 5751TIP3   OH238743   1.542   0.699  13.512 -0.5871 -0.8205 -0.0232
 5751TIP3    H138744   1.526   0.737  13.599 -1.0429  0.6932 -0.7302
 5751TIP3    H238745   1.486   0.750  13.453  1.3751 -0.3050 -1.5396
 5752TIP3   OH238746   1.480   1.405  12.576 -0.7630 -0.0908 -0.4241
 5752TIP3    H138747   1.448   1.385  12.664 -0.7314 -0.5152 -0.5060
 5752TIP3    H238748   1.443   1.336  12.521  0.8103 -0.9990 -0.4059
 5753TIP3   OH238749   4.711   2.098   1.244 -0.2420  0.1391  0.0073
 5753TIP3    H138750   4.759   2.132   1.319 -1.8640  0.6973  0.8538
 5753TIP3    H238751   4.619   2.120   1.262 -0.6329  0.8982 -2.4506
 5754TIP3   OH238752   3.918   6.042  14.938  0.5020 -0.1996 -0.4166
 5754TIP3    H138753   3.926   5.950  14.913  1.2213 -0.2721  0.0605
 5754TIP3    H238754   3.970   6.090  14.872  0.8546 -0.2208 -0.1580
 5755TIP3   OH238755   6.437   4.572  12.554 -0.3897  0.1120 -0.1842
 5755TIP3    H138756   6.521   4.606  12.585 -0.2281 -0.7509  0.3640
 5755TIP3    H238757   6.373   4.611  12.613 -0.0267 -2.0338  1.7959
 5756TIP3   OH238758   1.303   6.250  13.365 -0.1504 -0.4899  0.4310
 5756TIP3    H138759   1.282   6.259  13.458 -0.5468 -0.2406  0.3189
 5756TIP3    H238760   1.389   6.207  13.364  0.7141  1.1004  0.9631
 5757TIP3   OH238761   0.473   4.468   0.914  0.3295  0.5425  0.0823
 5757TIP3    H138762   0.496   4.378   0.939 -1.8675 -0.1345 -0.0682
 5757TIP3    H238763   0.447   4.461   0.822 -1.6238  0.9171  0.5645
 5758TIP3   OH238764   6.512   6.143  13.565  0.5061 -0.2370 -0.3221
 5758TIP3    H138765   6.426   6.159  13.527  1.0188 -0.0232 -1.4264
 5758TIP3    H238766   6.515   6.049  13.581 -0.9020  0.0586  2.1912
 5759TIP3   OH238767   2.563   2.949   5.357  0.4328  0.2829 -0.1573
 5759TIP3    H138768   2.546   2.883   5.290 -1.8865 -1.7642  2.2101
 5759TIP3    H238769   2.485   3.004   5.356  2.0443  2.7562 -1.6304
 5760TIP3   OH238770   6.771   0.368   5.572 -0.1477  0.1717 -0.2583
 5760TIP3    H138771   6.689   0.416   5.557 -0.1077 -0.1276 -1.5559
 5760TIP3    H238772   6.745   0.294   5.627 -0.9398 -0.4230 -1.3961
 5761TIP3   OH238773   6.097   6.740  10.942  0.0163 -0.3787  0.6639
 5761TIP3    H138774   6.126   6.806  10.880  0.8318 -0.4376  0.9700
 5761TIP3    H238775   6.173   6.684  10.955 -0.4110 -0.8790  1.0523
 5762TIP3   OH238776   4.746   1.404   0.797  0.0590 -0.0053 -0.1631
 5762TIP3    H138777   4.708   1.462   0.863 -1.1785  0.1031 -0.9424
 5762TIP3    H238778   4.790   1.462   0.736  0.4724 -0.0444  0.0915
 5763TIP3   OH238779   5.514   3.389  11.217 -0.0820 -0.4777  0.2797
 5763TIP3    H138780   5.573   3.455  11.180  1.1875 -1.5197  0.3711
 5763TIP3    H238781   5.534   3.309  11.169 -2.3999 -0.6071 -0.6239
 5764TIP3   OH238782   2.465   5.315  14.939 -0.0542  0.0847  0.1872
 5764TIP3    H138783   2.430   5.328  14.851  1.8905 -2.2407 -1.0503
 5764TIP3    H238784   2.479   5.404  14.972  0.0008  1.0459 -2.2077
 5765TIP3   OH238785   2.423   1.581   4.354 -0.5036 -0.0524 -0.1437
 5765TIP3    H138786   2.369   1.578   4.433 -0.3286  0.7948  0.0122
 5765TIP3    H238787   2.500   1.632   4.380 -1.1391  1.5372 -1.2712
 5766TIP3   OH238788   0.328   0.156   1.493  0.3479  0.0841 -0.3136
 5766TIP3    H138789   0.306   0.149   1.586 -1.1459  0.2848 -0.6342
 5766TIP3    H238790   0.363   0.245   1.484 -0.5427  0.4612 -0.1384
 5767TIP3   OH238791   0.904   1.785   5.653 -0.2222  0.6930 -0.7317
 5767TIP3    H138792   0.910   1.809   5.745  1.2903  0.3767 -0.7259
 5767TIP3    H238793   0.884   1.691   5.654  2.3335  0.0820 -0.6551
 5768TIP3   OH238794   6.612   5.404   5.042 -0.0192 -0.3894 -0.0866
 5768TIP3    H138795   6.562   5.323   5.044 -1.9733  0.7195 -0.8275
 5768TIP3    H238796   6.574   5.458   5.112  0.5277  0.2655 -0.2784
 5769TIP3   OH238797   0.314   1.625  11.762 -0.6313  0.0443  0.1050
 5769TIP3    H138798   0.378   1.559  11.735 -1.9431 -0.6491 -1.4645
 5769TIP3    H238799   0.318   1.623  11.858  1.1719 -0.4772  0.0544
 5770TIP3   OH238800   0.250   4.912   2.297  0.8850  0.2566 -0.4120
 5770TIP3    H138801   0.284   4.870   2.218  0.5676 -0.2076 -0.2989
 5770TIP3    H238802   0.174   4.860   2.322  1.4389 -0.0756  0.6477
 5771TIP3   OH238803   4.097   4.892  16.874  0.2824 -0.5780 -0.8823
 5771TIP3    H138804   4.117   4.844  16.954 -0.9441 -1.3305 -1.0107
 5771TIP3    H238805   4.166   4.959  16.869  0.9281 -1.1211  0.2832
 5772TIP3   OH238806   0.546   4.628   3.907 -0.5982 -0.0354  0.1830
 5772TIP3    H138807   0.469   4.650   3.854 -0.8682  1.7808  1.2563
 5772TIP3    H238808   0.509   4.591   3.987 -0.2035 -2.2034 -0.5513
 5773TIP3   OH238809   5.137   1.221   0.508 -0.2119 -0.0524  0.1913
 5773TIP3    H138810   5.055   1.247   0.467  0.7394  1.8484 -0.6453
 5773TIP3    H238811   5.133   1.258   0.596 -0.1799  0.2263  0.0780
 5774TIP3   OH238812   0.505   4.173  14.695 -0.3425  0.7089 -0.0348
 5774TIP3    H138813   0.420   4.131  14.712 -0.7049  1.0720 -0.8835
 5774TIP3    H238814   0.564   4.099  14.679 -0.5508  0.4600  0.3152
 5775TIP3   OH238815   1.417   4.769   5.499 -0.0056  0.1881 -0.1879
 5775TIP3    H138816   1.460   4.727   5.424  0.6950 -0.2083  0.4208
 5775TIP3    H238817   1.416   4.701   5.567  0.9772  1.0772  0.7484
 5776TIP3   OH238818   5.458   4.948  16.836 -0.4466  0.1318  0.1813
 5776TIP3    H138819   5.516   5.019  16.864 -1.1047  1.3424 -1.3717
 5776TIP3    H238820   5.516   4.873  16.821  0.8524  1.4618 -1.8802
 5777TIP3   OH238821   5.886   1.666   3.054  0.2613  0.0181  0.3738
 5777TIP3    H138822   5.859   1.600   2.990  0.2138  0.7212 -0.3449
 5777TIP3    H238823   5.812   1.726   3.059  1.6728  2.0762 -1.7608
 5778TIP3   OH238824   0.192   4.804  15.623 -0.2103 -0.0470 -0.3537
 5778TIP3    H138825   0.238   4.736  15.574  0.2226 -0.0151  0.0020
 5778TIP3    H238826   0.149   4.756  15.694  1.1315  0.1853  0.6523
 5779TIP3   OH238827   4.049   5.124  12.373  0.2639 -0.3722  0.4965
 5779TIP3    H138828   4.108   5.073  12.427 -0.8582 -2.4136 -0.0948
 5779TIP3    H238829   4.045   5.077  12.290  2.0807  2.7423 -1.5924
 5780TIP3   OH238830   1.961   6.486  10.815  0.8450  0.1937  0.3042
 5780TIP3    H138831   1.905   6.413  10.790  0.3851  0.6439  0.0088
 5780TIP3    H238832   2.050   6.455  10.800  0.6199  0.0730 -0.8682
 5781TIP3   OH238833   3.345   0.955  11.520  0.1066 -0.5061 -0.5896
 5781TIP3    H138834   3.440   0.944  11.531  0.0070 -0.3999  0.4387
 5781TIP3    H238835   3.326   0.911  11.437  1.7896  3.3558 -3.3532
 5782TIP3   OH238836   2.024   4.767   3.576  0.0821 -0.3006  0.1196
 5782TIP3    H138837   2.005   4.673   3.578  0.5878 -0.3986  1.0623
 5782TIP3    H238838   2.071   4.783   3.658 -0.4138  0.8632  0.1907
 5783TIP3   OH238839   4.984   1.594   5.095 -0.3767 -0.0734 -0.3337
 5783TIP3    H138840   4.939   1.524   5.142  0.9381 -0.3147  0.6066
 5783TIP3    H238841   4.917   1.632   5.039 -2.2173  0.6300  2.1646
 5784TIP3   OH238842   0.099   6.387   2.084  0.1828 -0.2197  0.2416
 5784TIP3    H138843   0.101   6.338   2.002  1.0745  0.2569 -0.0336
 5784TIP3    H238844   0.049   6.466   2.064 -1.2057 -0.9653  0.6698
 5785TIP3   OH238845   3.274   2.232  13.903  0.4513  0.3491  0.3754
 5785TIP3    H138846   3.277   2.185  13.820  0.6064 -0.5410  0.8742
 5785TIP3    H238847   3.355   2.209  13.947  0.5995  1.2069  0.5737
 5786TIP3   OH238848   1.405   2.631   6.451  0.3161  0.0299  0.7211
 5786TIP3    H138849   1.430   2.667   6.366  1.6039 -0.6810  0.7739
 5786TIP3    H238850   1.474   2.568   6.472  0.3698  0.6541  2.5937
 5787TIP3   OH238851   0.251   0.161  14.302  0.2908  0.2096  0.1825
 5787TIP3    H138852   0.336   0.118  14.287 -0.4407 -1.9583  1.7116
 5787TIP3    H238853   0.219   0.123  14.383 -2.1087  1.0671 -0.2790
 5788TIP3   OH238854   5.753   5.526  15.188  0.2903 -0.2385 -0.8179
 5788TIP3    H138855   5.773   5.532  15.281  0.4165  1.5191 -0.9189
 5788TIP3    H238856   5.786   5.440  15.161  2.7713  0.3170  0.1879
 5789TIP3   OH238857   3.872   4.746  14.800  0.0954 -0.6077 -0.1081
 5789TIP3    H138858   3.955   4.705  14.825  0.4018  0.5775  0.9566
 5789TIP3    H238859   3.891   4.840  14.798 -1.2037 -0.3117  0.1116
 5790TIP3   OH238860   0.491   0.451  13.713  0.6181 -0.6951 -0.2025
 5790TIP3    H138861   0.405   0.458  13.755  1.5010 -0.2084  1.6293
 5790TIP3    H238862   0.501   0.358  13.694 -0.0635 -0.8475  0.1285
 5791TIP3   OH238863   3.445   1.822   1.030  0.2900 -0.3969  0.3659
 5791TIP3    H138864   3.519   1.855   0.981 -0.0439 -0.1958 -0.0061
 5791TIP3    H238865   3.480   1.747   1.079  0.5874 -0.6873 -0.2829
 5792TIP3   OH238866   2.790   1.000   3.855  0.1247  0.5702 -0.4525
 5792TIP3    H138867   2.826   1.087   3.873 -0.8385  0.4960  2.3394
 5792TIP3    H238868   2.716   0.992   3.915 -0.7445 -1.6388 -1.6982
 5793TIP3   OH238869   2.893   4.827   0.600  0.2454 -0.1976  0.4306
 5793TIP3    H138870   2.921   4.807   0.510 -1.1694 -0.2118 -0.0303
 5793TIP3    H238871   2.935   4.911   0.619 -1.8061  1.4050 -1.4359
 5794TIP3   OH238872   2.466   6.826  12.258 -0.6137 -0.0957  0.0201
 5794TIP3    H138873   2.539   6.877  12.224 -0.3737 -0.4319  0.0292
 5794TIP3    H238874   2.486   6.815  12.351 -0.3656 -0.7040 -0.0995
 5795TIP3   OH238875   5.667   6.768  10.701  0.0441  0.6995 -0.4192
 5795TIP3    H138876   5.712   6.683  10.705 -0.6129  0.3431 -0.4466
 5795TIP3    H238877   5.738   6.832  10.707  0.4541  0.1650  0.9536
 5796TIP3   OH238878   6.321   3.053  13.141 -0.1405 -0.5002  0.0904
 5796TIP3    H138879   6.382   3.117  13.104  1.3143 -2.1882 -0.6162
 5796TIP3    H238880   6.323   2.979  13.079 -2.9855 -0.6273  0.0227
 5797TIP3   OH238881   1.349   4.332   5.644 -0.9255  0.0945 -0.0324
 5797TIP3    H138882   1.298   4.410   5.619 -1.1575 -0.3416 -0.9824
 5797TIP3    H238883   1.388   4.302   5.562  0.7428  0.3117  0.6455
 5798TIP3   OH238884   3.946   6.148   1.863 -0.0001  0.8309  0.2896
 5798TIP3    H138885   3.884   6.198   1.917 -0.8293  0.6346 -0.4447
 5798TIP3    H238886   3.895   6.073   1.832  0.4874  0.8603 -0.6284
 5799TIP3   OH238887   2.425   3.515  16.530 -0.4228 -0.2836 -0.0425
 5799TIP3    H138888   2.518   3.502  16.550 -0.5092  1.4982  1.7808
 5799TIP3    H238889   2.382   3.442  16.575 -0.0455 -0.0604  0.7066
 5800TIP3   OH238890   5.956   2.191  12.788  0.0920  0.4904  0.0223
 5800TIP3    H138891   5.977   2.266  12.733  0.8467  0.4873  0.2972
 5800TIP3    H238892   5.983   2.217  12.876  1.0329 -0.3477  0.0106
 5801TIP3   OH238893   3.498   3.083  13.898  0.5544  0.4564 -0.0332
 5801TIP3    H138894   3.584   3.053  13.926  0.4976 -0.7934 -1.0771
 5801TIP3    H238895   3.515   3.148  13.830  0.6843  0.0952 -0.3504
 5802TIP3   OH238896   2.450   6.289  15.359  0.0426  0.5051  0.0683
 5802TIP3    H138897   2.443   6.258  15.449 -0.0969 -3.4402 -1.1140
 5802TIP3    H238898   2.375   6.250  15.314  0.5939  1.6332 -1.9548
 5803TIP3   OH238899   2.586   2.530  16.000 -0.2591  0.3620 -0.1097
 5803TIP3    H138900   2.638   2.466  16.049  0.2490 -1.2381 -2.5520
 5803TIP3    H238901   2.504   2.485  15.981 -0.7903  1.2633 -0.0224
 5804TIP3   OH238902   4.823   6.511  11.526  0.3834  0.3320  0.2168
 5804TIP3    H138903   4.739   6.554  11.542  1.1207  2.7989 -1.8538
 5804TIP3    H238904   4.814   6.471  11.439  0.7861 -0.9869  0.7594
 5805TIP3   OH238905   1.646   5.221   4.830 -0.3809  0.1261  0.3489
 5805TIP3    H138906   1.699   5.251   4.756 -0.8242  2.0866  0.7605
 5805TIP3    H238907   1.574   5.172   4.791 -1.0486  1.8149 -0.6134
 5806TIP3   OH238908   3.146   5.633  16.175 -0.2132  0.2172  0.4070
 5806TIP3    H138909   3.072   5.615  16.118 -0.5329 -1.1320  1.1995
 5806TIP3    H238910   3.203   5.557  16.166  1.1994  1.3062 -0.3224
 5807TIP3   OH238911   0.287   6.148   1.136 -0.4919  0.7169  0.3548
 5807TIP3    H138912   0.278   6.120   1.227 -1.4218  1.9590  0.6674
 5807TIP3    H238913   0.293   6.243   1.141  0.5790  0.7239 -0.8121
 5808TIP3   OH238914   0.349   3.104   2.283 -0.4176  0.5213 -0.4455
 5808TIP3    H138915   0.296   3.114   2.204  0.3666 -0.1769 -1.0807
 5808TIP3    H238916   0.290   3.063   2.346 -0.3374 -1.4152 -1.5362
 5809TIP3   OH238917   2.222   2.134  13.972 -0.0321  0.0829 -0.2487
 5809TIP3    H138918   2.198   2.165  14.058 -1.1538 -1.8667  0.2040
 5809TIP3    H238919   2.165   2.181  13.912 -0.6597 -0.0009  0.2736
 5810TIP3   OH238920   0.661   2.545   0.582 -0.1401 -0.2949 -0.0802
 5810TIP3    H138921   0.696   2.603   0.649  2.5525 -1.1600 -0.5877
 5810TIP3    H238922   0.662   2.598   0.502  3.4431 -1.1845 -0.7945
 5811TIP3   OH238923   5.834   0.290  17.103 -0.3696  0.0199 -0.0043
 5811TIP3    H138924   5.843   0.356  17.034  0.7504  0.4706  0.5450
 5811TIP3    H238925   5.851   0.207  17.060  0.7229  0.3351 -0.2056
 5812TIP3   OH238926   1.115   4.234   2.763 -0.2887  0.2546 -0.4315
 5812TIP3    H138927   1.045   4.202   2.820  0.7672  1.2588  1.5345
 5812TIP3    H238928   1.093   4.327   2.750  0.5107  0.4959 -0.0635
 5813TIP3   OH238929   1.329   1.324   1.055 -0.1526  0.2244  0.3785
 5813TIP3    H138930   1.298   1.261   0.989 -2.3478 -0.3223  1.8316
 5813TIP3    H238931   1.359   1.270   1.127  0.1170  0.8416  0.7332
 5814TIP3   OH238932   1.456   4.861  16.650 -0.6118 -0.5261  0.3889
 5814TIP3    H138933   1.533   4.814  16.619 -0.3497  0.3261 -0.3220
 5814TIP3    H238934   1.488   4.915  16.723 -0.0896  1.1391 -0.9891
 5815TIP3   OH238935   1.868   4.463   6.356  0.2900 -0.7388  0.0364
 5815TIP3    H138936   1.801   4.486   6.291 -0.8125  1.0121  1.6946
 5815TIP3    H238937   1.827   4.482   6.440  1.4653 -3.5178  1.3380
 5816TIP3   OH238938   3.162   3.937   2.191 -0.4029  0.8545 -0.5939
 5816TIP3    H138939   3.254   3.915   2.177 -0.3805 -0.2997  1.0372
 5816TIP3    H238940   3.113   3.865   2.152 -0.4876  0.0779  0.8790
 5817TIP3   OH238941   5.750   2.879   0.856  0.1512  0.4353 -0.3178
 5817TIP3    H138942   5.709   2.841   0.779 -1.0458 -1.4143  1.1430
 5817TIP3    H238943   5.840   2.847   0.854 -0.3734 -1.1251 -0.0299
 5818TIP3   OH238944   0.514   3.384  11.455  0.2404 -0.1279  0.0908
 5818TIP3    H138945   0.527   3.326  11.529 -3.3912 -1.8203 -0.3928
 5818TIP3    H238946   0.569   3.347  11.386  0.2891 -1.2108  0.6907
 5819TIP3   OH238947   1.703   2.914   4.307 -0.5029 -0.6226  0.0545
 5819TIP3    H138948   1.612   2.931   4.328 -0.4491 -1.8041  1.3938
 5819TIP3    H238949   1.745   3.000   4.308 -1.8471  0.1288 -2.0985
 5820TIP3   OH238950   4.478   2.827   5.098  0.1458 -0.0012  0.3958
 5820TIP3    H138951   4.401   2.882   5.088  0.3844  0.3095  0.2428
 5820TIP3    H238952   4.479   2.805   5.191 -0.6293 -0.7578  0.2341
 5821TIP3   OH238953   2.302   3.065  14.644  0.1055 -0.4149  0.2354
 5821TIP3    H138954   2.256   3.149  14.638  0.7365 -0.0240  0.7433
 5821TIP3    H238955   2.394   3.089  14.651  0.4884 -1.1952 -1.4887
 5822TIP3   OH238956   5.625   3.932  16.946 -0.6695  0.3624 -0.6571
 5822TIP3    H138957   5.699   3.966  16.996  0.9585  0.1363 -2.7459
 5822TIP3    H238958   5.611   3.996  16.876 -2.9714  0.7573  0.0739
 5823TIP3   OH238959   5.074   3.437  16.786 -0.0544  0.2496 -0.2095
 5823TIP3    H138960   5.088   3.448  16.692 -0.4299  0.0015 -0.2974
 5823TIP3    H238961   5.134   3.500  16.827  0.6265 -0.1410 -0.5898
 5824TIP3   OH238962   5.341   2.070   5.738  0.1837 -0.6224 -0.1956
 5824TIP3    H138963   5.274   2.115   5.789 -1.2312 -1.1298 -1.5549
 5824TIP3    H238964   5.420   2.077   5.792 -0.6227  1.1182  0.8565
 5825TIP3   OH238965   3.206   3.552   5.375 -0.1105  0.1958  0.0030
 5825TIP3    H138966   3.216   3.457   5.367 -0.1244  0.2316 -0.5031
 5825TIP3    H238967   3.143   3.564   5.445 -0.4857 -0.1851 -0.2612
 5826TIP3   OH238968   2.100   2.361   5.092  0.2941  0.4282 -0.0248
 5826TIP3    H138969   2.087   2.267   5.098  0.9774  0.3279 -0.0368
 5826TIP3    H238970   2.019   2.394   5.054  0.9162 -0.4308 -2.2421
 5827TIP3   OH238971   5.649   5.000   0.222  0.4329  0.6324  0.0015
 5827TIP3    H138972   5.578   5.007   0.286 -0.0740  0.6358 -0.5526
 5827TIP3    H238973   5.678   5.090   0.208  0.0413  0.7068 -0.3303
 5828TIP3   OH238974   3.271   0.605  12.737 -0.1664 -0.7239  0.0366
 5828TIP3    H138975   3.322   0.661  12.795 -0.0768 -0.1726 -0.5590
 5828TIP3    H238976   3.180   0.630  12.754 -0.0823  0.4840 -1.0627
 5829TIP3   OH238977   3.342   4.823   4.866 -0.1010 -0.0034 -0.4281
 5829TIP3    H138978   3.377   4.910   4.846 -1.6244  1.5098  2.7868
 5829TIP3    H238979   3.420   4.770   4.883  0.8653  0.6472 -2.5146
 5830TIP3   OH238980   5.108   3.990   3.074 -0.0908 -0.4943 -0.1820
 5830TIP3    H138981   5.170   4.044   3.123  1.2628 -1.8333 -0.3449
 5830TIP3    H238982   5.136   3.997   2.983 -2.0771  1.2920 -0.7677
 5831TIP3   OH238983   2.490   4.911  13.363  0.1700 -0.6393  0.0656
 5831TIP3    H138984   2.512   4.820  13.384 -1.6415 -1.1915 -0.2560
 5831TIP3    H238985   2.530   4.926  13.278  0.5321 -1.1100  0.1439
 5832TIP3   OH238986   6.532   1.357   3.978  0.0004 -0.0493 -0.3248
 5832TIP3    H138987   6.532   1.316   4.064  1.0475  0.1180 -0.2309
 5832TIP3    H238988   6.625   1.372   3.958 -0.2415  0.1732 -1.3558
 5833TIP3   OH238989   0.258   2.602  15.577  0.2279  0.0510  0.1504
 5833TIP3    H138990   0.288   2.587  15.487  0.4430  3.2888 -0.4287
 5833TIP3    H238991   0.166   2.625  15.567  0.2643  0.4644  0.7312
 5834TIP3   OH238992   4.716   2.362  11.697  0.2358 -0.0643  0.2613
 5834TIP3    H138993   4.785   2.420  11.730 -0.8751  0.9575  0.8430
 5834TIP3    H238994   4.683   2.406  11.618  0.2191 -0.5419 -0.0040
 5835TIP3   OH238995   0.607   0.165  15.950 -0.8677  0.1833  0.3798
 5835TIP3    H138996   0.628   0.238  15.891 -3.1119  0.4195 -0.2507
 5835TIP3    H238997   0.665   0.094  15.923  0.2977  1.2449 -0.0147
 5836TIP3   OH238998   5.366   5.558  16.216 -0.3817 -1.0340 -0.4326
 5836TIP3    H138999   5.420   5.619  16.266 -1.2603 -0.6936  0.1337
 5836TIP3    H239000   5.355   5.483  16.275 -2.0200 -0.3307  0.2193
 5837TIP3   OH239001   4.885   0.649  11.287 -0.8353 -0.5453  0.3722
 5837TIP3    H139002   4.909   0.629  11.197 -1.5711 -1.9512  0.4546
 5837TIP3    H239003   4.793   0.676  11.282 -0.7856 -0.3166  0.6650
 5838TIP3   OH239004   6.674   1.913  11.123 -0.0497 -0.2192 -0.7816
 5838TIP3    H139005   6.766   1.902  11.101 -0.0207  0.7031 -1.1843
 5838TIP3    H239006   6.653   1.840  11.181  1.7606  1.2101  1.8872
 5839TIP3   OH239007   2.673   1.291  14.816 -0.5182  0.1397  0.8166
 5839TIP3    H139008   2.649   1.275  14.725 -1.4299  0.1044  1.0577
 5839TIP3    H239009   2.758   1.248  14.826  0.2210  1.2218 -0.3565
 5840TIP3   OH239010   5.494   3.334  12.000  0.3151  0.2220  0.4525
 5840TIP3    H139011   5.405   3.301  12.010 -1.4391  4.1590 -0.0917
 5840TIP3    H239012   5.523   3.301  11.915  0.8825 -3.7543  1.9614
 5841TIP3   OH239013   3.883   5.150  16.985 -0.4201 -0.3224 -0.3152
 5841TIP3    H139014   3.908   5.063  17.017 -1.4525 -0.5103  0.0182
 5841TIP3    H239015   3.796   5.165  17.022 -1.3827 -0.2430 -2.4670
 5842TIP3   OH239016   4.105   2.495   4.787  0.4283  0.3760 -0.0098
 5842TIP3    H139017   4.110   2.512   4.693  1.7845  2.1908  0.3270
 5842TIP3    H239018   4.012   2.494   4.806  0.1427  2.8298 -0.9590
 5843TIP3   OH239019   5.869   2.476  11.842  0.3241  0.0418  0.1607
 5843TIP3    H139020   5.877   2.391  11.884  2.5946 -1.3253 -2.7194
 5843TIP3    H239021   5.946   2.483  11.785 -1.4962  2.5148 -2.2925
 5844TIP3   OH239022   3.839   4.443  12.010 -0.5152 -0.0881  0.1320
 5844TIP3    H139023   3.928   4.413  11.992 -1.2485 -1.3212 -1.6678
 5844TIP3    H239024   3.791   4.363  12.033 -1.8736  0.0134 -2.0987
 5845TIP3   OH239025   2.649   1.066  12.585 -0.3415 -0.9048 -0.1775
 5845TIP3    H139026   2.560   1.086  12.616 -0.4879 -0.5792 -0.8057
 5845TIP3    H239027   2.650   1.093  12.494  0.2754 -1.3224 -0.3017
 5846TIP3   OH239028   6.021   2.546   2.885  0.1407 -0.0409 -0.0159
 5846TIP3    H139029   6.006   2.635   2.915 -0.8268 -0.2812  0.2198
 5846TIP3    H239030   6.055   2.499   2.962 -0.3148 -0.1292  0.1303
 5847TIP3   OH239031   5.671   1.327   5.584 -0.3552 -0.2701  0.1745
 5847TIP3    H139032   5.605   1.376   5.535 -0.6779  0.1710  1.0144
 5847TIP3    H239033   5.730   1.395   5.619  0.8275 -0.6819 -0.9342
 5848TIP3   OH239034   0.657   6.237   2.727  0.0840 -0.0150 -0.0742
 5848TIP3    H139035   0.626   6.183   2.800  0.7546  1.0373  1.0110
 5848TIP3    H239036   0.580   6.246   2.671 -0.7696  0.0808  1.0650
 5849TIP3   OH239037   3.928   5.654   4.121  0.5596  0.5512 -0.5836
 5849TIP3    H139038   3.976   5.613   4.049 -0.6485 -0.6955 -0.7194
 5849TIP3    H239039   3.932   5.590   4.192 -1.7670 -0.1037 -0.9554
 5850TIP3   OH239040   2.337   0.676  11.742 -0.5185 -0.8745  0.2734
 5850TIP3    H139041   2.412   0.719  11.701 -0.9151  0.6328  1.0717
 5850TIP3    H239042   2.287   0.641  11.668 -1.2083  1.7353 -0.6152
 5851TIP3   OH239043   2.250   0.942  11.638  0.0362 -0.3195 -0.1864
 5851TIP3    H139044   2.327   0.943  11.696 -0.0210  0.3602 -0.1095
 5851TIP3    H239045   2.182   0.898  11.689  0.0923 -0.0474  0.1334
 5852TIP3   OH239046   0.979   1.526  17.090  0.3227 -0.2911  0.0261
 5852TIP3    H139047   0.934   1.538  17.173  0.9406  0.5488  0.2503
 5852TIP3    H239048   1.042   1.597  17.086  1.5250 -1.3321 -0.3488
 5853TIP3   OH239049   3.295   5.818   2.193 -0.3971  0.4158  0.2730
 5853TIP3    H139050   3.312   5.908   2.220 -0.4654 -0.1000  2.1408
 5853TIP3    H239051   3.277   5.770   2.274  2.3435 -1.8723 -0.2885
 5854TIP3   OH239052   3.374   2.495  11.306 -0.2293  0.0848  0.0816
 5854TIP3    H139053   3.387   2.537  11.221 -1.6869  0.6631  0.1262
 5854TIP3    H239054   3.282   2.508  11.326 -0.4425 -2.0382  0.7170
 5855TIP3   OH239055   2.857   2.919  14.244  0.0287  0.4132 -0.0160
 5855TIP3    H139056   2.931   2.895  14.300  1.8541  2.2685 -1.4688
 5855TIP3    H239057   2.871   2.869  14.164 -0.7712  0.1845 -0.0209
 5856TIP3   OH239058   0.859   5.650   3.444  0.0134  0.2882  0.0849
 5856TIP3    H139059   0.919   5.621   3.376  0.9975  0.7984  0.7115
 5856TIP3    H239060   0.848   5.573   3.501  1.2989  0.6090  0.8117
 5857TIP3   OH239061   6.048   1.989  12.197 -0.5120 -0.0139  0.1091
 5857TIP3    H139062   6.033   2.024  12.109  1.0236 -0.0418 -0.1795
 5857TIP3    H239063   5.960   1.987  12.237 -1.2298  0.0066 -1.4042
 5858TIP3   OH239064   2.606   2.636  12.437  0.4332  0.3570 -0.3154
 5858TIP3    H139065   2.547   2.629  12.362  0.3704  1.1086 -0.3434
 5858TIP3    H239066   2.671   2.702  12.412 -0.5804  1.9008  0.9146
 5859TIP3   OH239067   3.237   2.282  14.321  0.5262 -0.3293 -0.3543
 5859TIP3    H139068   3.182   2.268  14.244  1.8395  1.1444 -1.6023
 5859TIP3    H239069   3.198   2.357  14.365  0.7433 -0.1421 -0.4833
 5860TIP3   OH239070   3.993   1.100   3.132  0.4240 -0.3031 -0.4522
 5860TIP3    H139071   3.988   1.054   3.048  1.1723 -1.6702  0.2081
 5860TIP3    H239072   3.917   1.158   3.132 -0.7790 -1.7910 -1.2165
 5861TIP3   OH239073   0.152   5.496  12.587 -0.1909 -0.0512  0.0207
 5861TIP3    H139074   0.187   5.443  12.659  0.2753  0.5428  0.2446
 5861TIP3    H239075   0.225   5.554  12.563 -1.1576  1.5651  0.8299
 5862TIP3   OH239076   1.754   1.661  15.153  0.4012 -0.3301  0.2750
 5862TIP3    H139077   1.689   1.616  15.100  0.4205  0.7918 -0.7482
 5862TIP3    H239078   1.836   1.652  15.104  0.5457  0.2007  0.4088
 5863TIP3   OH239079   4.742   1.840  12.341 -0.2030 -0.5332 -0.0540
 5863TIP3    H139080   4.809   1.780  12.307 -0.8531  0.0687 -2.6654
 5863TIP3    H239081   4.661   1.810  12.299 -1.5104 -0.8199  2.4997
 5864TIP3   OH239082   1.032   2.088  11.911 -0.8616  0.0574  0.5390
 5864TIP3    H139083   1.029   2.033  11.989  1.7963 -0.0170  0.6801
 5864TIP3    H239084   1.115   2.135  11.918 -0.5095  0.0223 -2.2492
 5865TIP3   OH239085   5.163   3.535   1.964 -0.3718  0.0189  0.1425
 5865TIP3    H139086   5.212   3.573   1.891 -2.4910  0.0985 -1.3437
 5865TIP3    H239087   5.177   3.441   1.956 -0.6538  0.0192 -0.4670
 5866TIP3   OH239088   3.589   2.703   5.155 -0.5244 -0.1474 -0.8206
 5866TIP3    H139089   3.568   2.763   5.083 -2.6024  1.0324  0.6449
 5866TIP3    H239090   3.685   2.697   5.153 -0.4308  0.8388 -2.8673
 5867TIP3   OH239091   2.068   0.425  15.370  0.4332 -0.5824 -0.1157
 5867TIP3    H139092   2.048   0.333  15.352  2.6554 -0.9880 -0.8663
 5867TIP3    H239093   2.128   0.451  15.299  1.8716  0.6632  1.4701
 5868TIP3   OH239094   6.627   0.709   4.052  0.2920 -0.2343 -0.6463
 5868TIP3    H139095   6.657   0.756   4.130  1.4297 -0.4533 -0.9357
 5868TIP3    H239096   6.560   0.766   4.014 -0.0243  0.0418  0.2906
 5869TIP3   OH239097   2.782   0.620  15.513  0.4653 -0.1880 -0.0574
 5869TIP3    H139098   2.765   0.605  15.420  0.5462 -2.2666  0.1984
 5869TIP3    H239099   2.878   0.623  15.520  0.7220 -3.8657  0.3114
 5870TIP3   OH239100   6.526   6.779  14.899  0.1631  0.2288  0.1993
 5870TIP3    H139101   6.538   6.727  14.978 -0.2134 -1.4149 -0.7753
 5870TIP3    H239102   6.435   6.764  14.873  1.3799 -3.3292 -3.1247
 5871TIP3   OH239103   5.140   2.717   5.492 -0.0989 -0.7777  0.0806
 5871TIP3    H139104   5.159   2.639   5.440 -0.4735 -0.3000 -0.8051
 5871TIP3    H239105   5.073   2.763   5.442  1.0431  0.7659 -0.0841
 5872TIP3   OH239106   4.113   3.938   2.260  0.2336 -0.1156  0.3153
 5872TIP3    H139107   4.197   3.969   2.225  0.6042 -1.8576 -0.4493
 5872TIP3    H239108   4.068   3.900   2.185 -0.1547 -1.4410  1.1889
 5873TIP3   OH239109   3.455   4.265  15.188 -0.9233 -0.5110 -0.5009
 5873TIP3    H139110   3.371   4.306  15.167 -1.4663 -1.2304  0.1633
 5873TIP3    H239111   3.502   4.330  15.239 -1.0410 -0.0696 -0.9497
 5874TIP3   OH239112   5.628   5.642   1.143 -0.2806  0.3099 -0.3203
 5874TIP3    H139113   5.714   5.678   1.161 -0.5684  1.0075 -0.3102
 5874TIP3    H239114   5.568   5.716   1.151 -0.9537 -0.2687  0.2032
 5875TIP3   OH239115   0.552   4.260  13.433 -0.0832  0.0780  0.3468
 5875TIP3    H139116   0.523   4.179  13.392  0.0817 -0.2513  0.8716
 5875TIP3    H239117   0.627   4.235  13.486  0.5424  0.7381 -0.1966
 5876TIP3   OH239118   3.722   5.870   4.495  0.5558 -0.3923  0.3129
 5876TIP3    H139119   3.651   5.840   4.552  0.1415 -0.6902 -0.3425
 5876TIP3    H239120   3.802   5.850   4.543  0.2076  2.0693  2.1343
 5877TIP3   OH239121   1.840   1.603  11.197 -0.1902 -0.1396 -0.3737
 5877TIP3    H139122   1.885   1.682  11.227  0.9473 -1.4250  1.5396
 5877TIP3    H239123   1.747   1.625  11.201  0.0537  0.7285  1.3478
 5878TIP3   OH239124   5.009   3.332   0.330 -0.0605  0.3496 -0.5999
 5878TIP3    H139125   5.073   3.384   0.379  1.1037 -0.5275 -1.1282
 5878TIP3    H239126   5.059   3.257   0.298 -1.1570  0.0983 -1.8088
 5879TIP3   OH239127   4.200   0.087  10.411 -0.5322 -0.6381 -0.7715
 5879TIP3    H139128   4.142   0.013  10.427 -1.2894 -0.2180 -1.4950
 5879TIP3    H239129   4.143   0.164  10.416 -0.3303 -0.2918 -2.7480
 5880TIP3   OH239130   2.171   5.037  16.136 -0.4565  0.4732  0.1668
 5880TIP3    H139131   2.205   4.948  16.123 -1.9341  0.0618 -1.2950
 5880TIP3    H239132   2.248   5.091  16.149  0.6928 -0.5681 -1.9157
 5881TIP3   OH239133   4.597   0.103  15.673  0.2144  0.3917  0.0275
 5881TIP3    H139134   4.648   0.170  15.627 -0.3687 -1.4655 -3.7385
 5881TIP3    H239135   4.541   0.064  15.605  0.0860 -3.4980  2.0449
 5882TIP3   OH239136   1.595   1.108   4.531 -0.3504 -0.0372 -0.2508
 5882TIP3    H139137   1.671   1.151   4.569 -1.2036  0.9808  0.3454
 5882TIP3    H239138   1.631   1.053   4.461  0.9826 -0.0416  0.4046
 5883TIP3   OH239139   3.430   3.978  15.943 -0.2088  0.1298 -0.0357
 5883TIP3    H139140   3.520   4.011  15.944  0.7751 -2.3210 -0.3369
 5883TIP3    H239141   3.380   4.045  15.897  1.1704  2.1721  1.2996
 5884TIP3   OH239142   5.165   5.216   5.772  0.7671 -0.1144  0.3306
 5884TIP3    H139143   5.231   5.237   5.837  0.6410 -0.7595  0.6704
 5884TIP3    H239144   5.174   5.122   5.757 -0.1658 -0.2432  0.5025
 5885TIP3   OH239145   6.204   2.759   2.240 -0.7985 -0.5110  0.3858
 5885TIP3    H139146   6.215   2.853   2.228  1.0217 -0.4312  2.0955
 5885TIP3    H239147   6.216   2.722   2.152  1.0731  0.6969  0.0732
 5886TIP3   OH239148   2.679   2.286   0.561 -0.3641  0.6283  0.7378
 5886TIP3    H139149   2.767   2.318   0.545 -0.4205  0.2176 -0.4951
 5886TIP3    H239150   2.665   2.299   0.655  0.5947  1.6993  0.7492
 5887TIP3   OH239151   3.336   3.594  14.612  0.1446  0.0972  0.2029
 5887TIP3    H139152   3.299   3.535  14.546 -0.5143  2.1943 -1.4062
 5887TIP3    H239153   3.262   3.648  14.639  1.2273  1.9338 -0.3530
 5888TIP3   OH239154   3.901   6.724   6.578 -0.4799  0.3545 -0.1396
 5888TIP3    H139155   3.958   6.750   6.650 -0.2430 -0.7923  0.1086
 5888TIP3    H239156   3.831   6.790   6.578  0.2244  1.1228  0.2752
 5889TIP3   OH239157   3.585   4.938  14.191 -0.2188 -0.7457 -0.2853
 5889TIP3    H139158   3.614   5.029  14.203  3.1176 -1.8738  1.4539
 5889TIP3    H239159   3.593   4.922  14.097  1.0298  0.2271 -0.3618
 5890TIP3   OH239160   1.374   1.197  13.725  0.2539 -0.0839  0.1383
 5890TIP3    H139161   1.404   1.216  13.814  2.2609 -1.5269 -0.1644
 5890TIP3    H239162   1.354   1.104  13.726 -1.9425  0.3094 -0.3933
 5891TIP3   OH239163   2.744   1.363  13.346 -0.6370 -0.0399 -0.8261
 5891TIP3    H139164   2.795   1.444  13.351 -1.5301  0.6587 -2.2918
 5891TIP3    H239165   2.766   1.327  13.260 -2.3253  0.1147 -1.3651
 5892TIP3   OH239166   3.201   6.210   2.999 -0.4425 -0.5336  0.2768
 5892TIP3    H139167   3.272   6.204   3.063 -0.8945 -0.9192  0.7483
 5892TIP3    H239168   3.215   6.134   2.941  0.2205  0.0581 -0.3560
 5893TIP3   OH239169   6.152   6.106   3.332  0.2120 -0.4468 -0.6919
 5893TIP3    H139170   6.248   6.103   3.338  0.3351  2.4949  1.4979
 5893TIP3    H239171   6.122   6.064   3.413 -0.4143 -1.4106 -1.3944
 5894TIP3   OH239172   6.709   6.097   1.571  0.6734  0.0691  0.4465
 5894TIP3    H139173   6.802   6.111   1.552  0.2052 -0.5365 -3.0053
 5894TIP3    H239174   6.664   6.159   1.514 -1.0697 -0.7371  0.8894
 5895TIP3   OH239175   1.923   1.924   3.284 -0.4932  0.3172 -0.0593
 5895TIP3    H139176   1.919   1.833   3.313 -0.0916  0.2713 -0.1427
 5895TIP3    H239177   2.016   1.946   3.286 -0.6067  0.7968  0.1771
 5896TIP3   OH239178   4.087   4.303   5.024  0.1661 -0.0354  0.0125
 5896TIP3    H139179   4.084   4.251   4.944  0.7574  0.3522 -0.2644
 5896TIP3    H239180   4.058   4.243   5.092 -0.0120 -0.4692 -0.4386
 5897TIP3   OH239181   4.026   0.922   1.010  0.4239  0.4982 -0.0392
 5897TIP3    H139182   4.107   0.973   1.022  1.3904 -0.5409 -1.8044
 5897TIP3    H239183   3.994   0.948   0.924 -0.6740  0.2629  0.2898
 5898TIP3   OH239184   2.240   3.850   5.216 -0.2024 -0.2055 -0.1618
 5898TIP3    H139185   2.334   3.844   5.236 -0.1170 -1.5106 -0.8417
 5898TIP3    H239186   2.232   3.814   5.127 -1.3734 -0.3128 -0.0257
 5899TIP3   OH239187   0.223   0.602  16.887 -0.5748 -0.0279  0.3274
 5899TIP3    H139188   0.234   0.592  16.792 -3.3238  0.9411 -0.1937
 5899TIP3    H239189   0.251   0.517  16.923  1.2883 -0.1429 -1.2149
 5900TIP3   OH239190   3.736   0.209   1.095  0.0269 -0.0693 -0.1179
 5900TIP3    H139191   3.830   0.214   1.079  0.0449 -0.0206  0.0063
 5900TIP3    H239192   3.697   0.205   1.007  0.1565 -0.3042 -0.1647
 5901TIP3   OH239193   2.897   5.029   5.668 -0.1384 -0.5824  0.1500
 5901TIP3    H139194   2.871   5.030   5.760 -0.1933  0.0682  0.1322
 5901TIP3    H239195   2.975   4.974   5.665 -0.8907 -1.7179  0.3711
 5902TIP3   OH239196   6.211   0.051   5.675  0.2418  0.2489 -0.1008
 5902TIP3    H139197   6.232   0.069   5.584  0.9807  1.3512  0.2701
 5902TIP3    H239198   6.252   0.122   5.724 -0.6285 -0.0063  1.0494
 5903TIP3   OH239199   4.981   5.845   1.773 -0.6120 -0.5683 -0.2390
 5903TIP3    H139200   4.912   5.911   1.766  1.4091  1.7179 -0.1656
 5903TIP3    H239201   4.990   5.830   1.867 -2.3860 -2.5634 -0.3089
 5904TIP3   OH239202   5.067   2.003   0.191  0.7327  0.4450 -0.0894
 5904TIP3    H139203   5.041   1.945   0.262  1.1836  1.4770  0.9472
 5904TIP3    H239204   5.067   2.090   0.230 -0.7040  1.2738 -1.8102
 5905TIP3   OH239205   3.162   0.622   3.852  0.0828 -0.5268  0.2798
 5905TIP3    H139206   3.226   0.552   3.837 -1.4319 -1.8674 -0.2326
 5905TIP3    H239207   3.115   0.595   3.930 -0.8637 -0.3651 -0.2203
 5906TIP3   OH239208   0.394   6.025   2.236  0.0394  0.3621  0.0828
 5906TIP3    H139209   0.375   5.947   2.288  0.5636 -0.0466 -0.3291
 5906TIP3    H239210   0.321   6.084   2.254 -0.6981 -0.4759 -0.1010
 5907TIP3   OH239211   4.737   5.641   2.395 -0.3182  0.4591 -0.1455
 5907TIP3    H139212   4.785   5.623   2.476 -0.4770  1.5277  0.2027
 5907TIP3    H239213   4.709   5.732   2.404 -0.0707  0.6888 -1.5468
 5908TIP3   OH239214   4.055   1.710   5.197 -0.5866 -0.1963  0.3309
 5908TIP3    H139215   4.035   1.648   5.127  0.7948  0.2943 -0.5424
 5908TIP3    H239216   4.129   1.672   5.243 -1.0969 -0.2133  1.1609
 5909TIP3   OH239217   1.833   1.773  13.823  0.0416  0.5252  0.5051
 5909TIP3    H139218   1.800   1.798  13.910 -1.1389  0.3930  0.1058
 5909TIP3    H239219   1.888   1.848  13.797  1.0299  0.2477  1.6634
 5910TIP3   OH239220   5.850   1.594  13.994  0.4321  0.2380  0.1374
 5910TIP3    H139221   5.895   1.630  13.918  0.0635  2.5815  0.9471
 5910TIP3    H239222   5.786   1.532  13.958  1.8531 -0.4939 -1.2404
 5911TIP3   OH239223   2.932   4.517  12.847  0.1166 -0.0043  0.1736
 5911TIP3    H139224   2.974   4.473  12.921  2.0464 -1.7901 -1.8483
 5911TIP3    H239225   2.974   4.603  12.844  0.5753 -0.2001  0.7068
 5912TIP3   OH239226   1.250   1.617  11.983  0.4926 -0.7790  0.0310
 5912TIP3    H139227   1.208   1.687  12.034  0.5748 -0.4881 -0.2961
 5912TIP3    H239228   1.310   1.663  11.925  2.1523 -1.2548  1.2875
 5913TIP3   OH239229   3.478   1.697  13.070  0.0176  0.4897 -0.6426
 5913TIP3    H139230   3.536   1.745  13.011  0.9715  0.5530  0.3020
 5913TIP3    H239231   3.535   1.670  13.143 -1.2716  1.1902  0.6839
 5914TIP3   OH239232   3.060   6.829   6.345 -0.2516 -0.0339  0.4133
 5914TIP3    H139233   2.972   6.866   6.340  0.5850  2.1186  0.6190
 5914TIP3    H239234   3.088   6.844   6.435  0.4142 -0.4731  0.2866
 5915TIP3   OH239235   4.265   0.276   0.217  0.3953 -0.4754  0.0419
 5915TIP3    H139236   4.292   0.194   0.175 -0.9190 -1.3525  0.8505
 5915TIP3    H239237   4.247   0.335   0.143  1.4750 -0.8567 -0.5465
 5916TIP3   OH239238   4.054   6.638  12.803 -0.0179 -0.2112 -0.0584
 5916TIP3    H139239   4.103   6.682  12.872 -0.8476 -0.7116  0.8700
 5916TIP3    H239240   4.040   6.549  12.836 -1.1514 -0.2107 -0.5050
 5917TIP3   OH239241   1.341   6.338  13.879  0.3353 -0.3470  0.0686
 5917TIP3    H139242   1.376   6.426  13.864  0.4067 -0.4899 -0.6799
 5917TIP3    H239243   1.246   6.348  13.869  0.2380 -0.1576  1.0661
 5918TIP3   OH239244   5.330   3.674   4.826  0.0362  0.2428 -0.2499
 5918TIP3    H139245   5.340   3.588   4.869  1.8647  0.4977 -0.0794
 5918TIP3    H239246   5.326   3.653   4.733 -2.3209 -0.1924 -0.1126
 5919TIP3   OH239247   1.518   0.817   4.391 -0.1969 -0.0880  0.1882
 5919TIP3    H139248   1.613   0.813   4.377 -0.4279  0.3704 -1.7616
 5919TIP3    H239249   1.503   0.761   4.467  1.7919  0.9672  1.4396
 5920TIP3   OH239250   0.214   0.226   1.740 -0.2786  0.1459  0.0458
 5920TIP3    H139251   0.276   0.273   1.795 -1.3782  1.3057  0.3399
 5920TIP3    H239252   0.221   0.135   1.768 -0.7699  0.6968  2.0849
 5921TIP3   OH239253   1.697   2.472  15.106  0.0426  0.0217  0.0540
 5921TIP3    H139254   1.682   2.385  15.069  1.6602  0.2178 -1.1564
 5921TIP3    H239255   1.767   2.509  15.053 -0.4021  1.9612  0.7431
 5922TIP3   OH239256   4.126   3.272  15.285  0.2910  0.2635  0.2455
 5922TIP3    H139257   4.152   3.298  15.196  0.9040 -0.7198  0.1184
 5922TIP3    H239258   4.047   3.219  15.271  0.5246 -0.0939  0.2512
 5923TIP3   OH239259   3.198   0.587  11.972 -0.4010 -0.1082  0.1493
 5923TIP3    H139260   3.110   0.584  11.936 -0.1195  1.5161 -0.7771
 5923TIP3    H239261   3.255   0.592  11.896  0.4451 -0.2186  0.7544
 5924TIP3   OH239262   4.202   4.131   3.049  0.0448 -0.6881 -0.0892
 5924TIP3    H139263   4.286   4.111   3.090 -0.9069 -1.5720  1.5128
 5924TIP3    H239264   4.182   4.053   2.997  0.0458 -0.6235 -0.1868
 5925TIP3   OH239265   3.685   4.641  14.995 -0.0085  0.6611 -0.3311
 5925TIP3    H139266   3.721   4.690  14.921 -0.3274  1.1458 -0.1719
 5925TIP3    H239267   3.759   4.593  15.031 -0.2853 -1.6545 -2.5401
 5926TIP3   OH239268   3.504   1.696   2.213 -0.2433  0.1945 -0.3817
 5926TIP3    H139269   3.566   1.700   2.140  0.7832  2.3286  0.5321
 5926TIP3    H239270   3.538   1.758   2.277 -2.2372 -0.0900  1.0468
 5927TIP3   OH239271   4.469   4.920  15.059 -0.5550 -0.4294  0.4815
 5927TIP3    H139272   4.377   4.915  15.031 -0.1928 -1.7554 -0.5700
 5927TIP3    H239273   4.489   4.832  15.090  0.5098 -0.2896  0.2169
 5928TIP3   OH239274   1.423   5.310   4.474 -0.0254  0.9477  0.0041
 5928TIP3    H139275   1.432   5.277   4.385  0.1000  0.1434  0.3051
 5928TIP3    H239276   1.359   5.381   4.467  0.3249  1.1915 -0.7915
 5929TIP3   OH239277   0.512   1.574   5.287 -0.0518  0.3735  0.2418
 5929TIP3    H139278   0.550   1.569   5.200  0.4423 -2.0017  0.5265
 5929TIP3    H239279   0.584   1.604   5.343  0.3725 -0.5417  0.2010
 5930TIP3   OH239280   2.736   4.662  14.337  0.5976  0.1686  0.4550
 5930TIP3    H139281   2.754   4.610  14.415 -1.3860 -0.7915  0.3590
 5930TIP3    H239282   2.711   4.748  14.370 -3.1704 -1.0307  1.2502
 5931TIP3   OH239283   0.589   4.333  13.872  0.2718 -0.0113  0.0735
 5931TIP3    H139284   0.629   4.404  13.822  1.0879 -1.7748 -1.9381
 5931TIP3    H239285   0.638   4.331  13.954 -0.5721  2.4487  0.7435
 5932TIP3   OH239286   1.280   5.206   0.628  0.0402 -0.3168  0.2708
 5932TIP3    H139287   1.294   5.199   0.722  3.7169 -1.1909 -0.1858
 5932TIP3    H239288   1.315   5.292   0.605 -2.5050  0.6997 -0.1773
 5933TIP3   OH239289   1.326   5.193  13.175  0.4106  0.0382 -0.1462
 5933TIP3    H139290   1.338   5.264  13.112 -0.2354  0.3716  0.0938
 5933TIP3    H239291   1.414   5.163  13.194  0.7560  1.2631  0.3018
 5934TIP3   OH239292   2.489   2.753  14.971 -0.2310  0.3105 -0.1561
 5934TIP3    H139293   2.462   2.679  15.026 -2.3522  0.5593 -0.7915
 5934TIP3    H239294   2.509   2.713  14.886 -2.1686  0.5085 -0.7429
 5935TIP3   OH239295   6.729   6.579   2.803 -0.6378  0.1052  0.1866
 5935TIP3    H139296   6.690   6.658   2.839  1.4125  0.9195  0.7201
 5935TIP3    H239297   6.754   6.602   2.714  0.7883  0.3809  0.6379
 5936TIP3   OH239298   6.442   1.096  15.752  0.4975  0.4792 -0.5062
 5936TIP3    H139299   6.474   1.006  15.737 -0.4572 -0.0514  0.4665
 5936TIP3    H239300   6.477   1.118  15.839  1.0236  1.2023 -0.8943
 5937TIP3   OH239301   3.991   4.180   0.822  0.3597  0.2200 -0.3053
 5937TIP3    H139302   4.004   4.139   0.736  0.2209  2.0858 -1.2637
 5937TIP3    H239303   3.903   4.154   0.848  0.2412 -0.0152 -0.9198
 5938TIP3   OH239304   6.272   0.822   1.519 -1.0947 -0.2443 -0.3968
 5938TIP3    H139305   6.354   0.860   1.551 -0.6587 -1.5876  0.1299
 5938TIP3    H239306   6.236   0.890   1.461  0.2648  0.4601 -0.4695
 5939TIP3   OH239307   6.735   0.191   2.397 -0.3216  0.2847 -0.1348
 5939TIP3    H139308   6.828   0.206   2.417 -0.6785  2.4924  0.1603
 5939TIP3    H239309   6.695   0.171   2.482 -0.4317  1.4583  0.1180
 5940TIP3   OH239310   1.274   6.124  12.370 -0.4270 -0.2194  0.0549
 5940TIP3    H139311   1.179   6.134  12.374 -0.5036 -0.2185 -1.2390
 5940TIP3    H239312   1.301   6.179  12.296  0.3483 -1.5604 -0.7148
 5941TIP3   OH239313   5.615   5.578  12.520  0.2814  0.2749  0.4524
 5941TIP3    H139314   5.700   5.624  12.522  0.6046 -0.2177 -1.0848
 5941TIP3    H239315   5.637   5.487  12.504 -0.4901 -0.0737  1.2954
 5942TIP3   OH239316   5.757   0.824   4.417  0.0576  0.4225  0.1105
 5942TIP3    H139317   5.685   0.771   4.453 -0.2370 -0.6322 -1.9336
 5942TIP3    H239318   5.801   0.766   4.355  1.6256  1.6346  0.0359
 5943TIP3   OH239319   3.107   1.539  12.721  0.5327  0.5589  0.7819
 5943TIP3    H139320   3.029   1.540  12.778 -0.4299  0.3627 -0.4849
 5943TIP3    H239321   3.118   1.630  12.695 -0.0563  0.3935 -0.0600
 5944TIP3   OH239322   5.044   5.445  13.181  0.7913  0.5331 -0.0024
 5944TIP3    H139323   5.129   5.435  13.137 -0.2073  1.3348 -2.2500
 5944TIP3    H239324   5.065   5.490  13.263  2.4080  2.1196 -1.2164
 5945TIP3   OH239325   5.019   1.592  12.862  0.0054  0.0940  0.2149
 5945TIP3    H139326   5.083   1.620  12.797  0.8259 -2.7633 -0.3771
 5945TIP3    H239327   4.939   1.576  12.811 -0.0553  0.0671  0.3173
 5946TIP3   OH239328   4.938   2.800  14.999 -0.0073  0.4368  0.8358
 5946TIP3    H139329   4.846   2.812  15.023  0.4422  0.7206  2.5777
 5946TIP3    H239330   4.937   2.787  14.904 -1.9779 -1.0118  0.9869
 5947TIP3   OH239331   6.654   0.907   3.673  0.7711 -0.2892  0.0541
 5947TIP3    H139332   6.659   0.890   3.579 -1.3505 -1.0522  0.0196
 5947TIP3    H239333   6.607   0.990   3.680  2.3383  0.6114  0.4555
 5948TIP3   OH239334   2.147   1.410   6.435  1.0997  0.7240  0.6891
 5948TIP3    H139335   2.135   1.374   6.523 -2.2509 -0.0405  0.0616
 5948TIP3    H239336   2.168   1.335   6.381 -1.5450  0.2797  0.1334
 5949TIP3   OH239337   3.825   2.640   6.315  0.3523 -0.1763  0.1714
 5949TIP3    H139338   3.810   2.730   6.284  0.0621 -0.1545  0.3772
 5949TIP3    H239339   3.782   2.636   6.400 -0.2025 -0.7034 -0.1215
 5950TIP3   OH239340   5.501   2.011  13.060  0.1586 -0.1525  0.0043
 5950TIP3    H139341   5.506   1.916  13.067  0.5173 -0.1269  0.1307
 5950TIP3    H239342   5.577   2.043  13.109  0.4890  0.1712 -0.6971
 5951TIP3   OH239343   4.091   1.277   1.107 -0.2673  0.0307 -0.4205
 5951TIP3    H139344   4.016   1.248   1.159  1.3727 -0.2239  1.9647
 5951TIP3    H239345   4.122   1.355   1.152  2.5521 -1.4387  0.4620
 5952TIP3   OH239346   2.664   3.778  13.409  0.0224  0.0004  0.4997
 5952TIP3    H139347   2.691   3.784  13.317 -0.1958  1.1578  0.4893
 5952TIP3    H239348   2.586   3.835  13.414  0.7782  0.9793  1.6635
 5953TIP3   OH239349   2.555   3.403   2.597 -0.2350  0.1537  0.2971
 5953TIP3    H139350   2.461   3.389   2.603 -0.5564  1.1688 -1.5843
 5953TIP3    H239351   2.586   3.333   2.540  0.0560  0.1035  0.5180
 5954TIP3   OH239352   1.021   6.649  11.306  0.7245  0.2856  0.4735
 5954TIP3    H139353   1.112   6.624  11.290  0.7437  0.6601 -0.0126
 5954TIP3    H239354   0.986   6.670  11.219 -0.7354 -2.8274  0.1809
 5955TIP3   OH239355   1.120   4.705   2.305 -0.5107 -0.0004 -0.2862
 5955TIP3    H139356   1.110   4.761   2.228  0.9458  0.9379  0.1719
 5955TIP3    H239357   1.039   4.655   2.309 -1.9139  2.1223 -0.6779
 5956TIP3   OH239358   5.583   2.402  14.755  0.3201 -0.1518 -0.5268
 5956TIP3    H139359   5.552   2.312  14.762 -0.6889  0.3017  1.6452
 5956TIP3    H239360   5.679   2.394  14.749  0.2210 -1.3675 -0.8218
 5957TIP3   OH239361   1.896   5.550   1.728  0.1385  0.9439 -0.4166
 5957TIP3    H139362   1.808   5.569   1.760  1.2834  1.2237  2.8790
 5957TIP3    H239363   1.889   5.462   1.691 -1.2017  0.2735  1.2867
 5958TIP3   OH239364   2.895   6.812  11.506  0.3619 -0.3604  0.4517
 5958TIP3    H139365   2.812   6.828  11.552  0.3898  0.3484  0.2686
 5958TIP3    H239366   2.898   6.879  11.438  0.9184 -0.6100  0.2264
 5959TIP3   OH239367   5.305   6.093  10.991 -0.1150 -0.1444  0.4704
 5959TIP3    H139368   5.254   6.019  10.959 -1.6805  1.1539 -0.1683
 5959TIP3    H239369   5.306   6.155  10.918  0.8916  0.6177  1.0989
 5960TIP3   OH239370   6.540   1.610  16.517 -0.1382 -0.3017 -0.3678
 5960TIP3    H139371   6.504   1.534  16.564  0.7219 -1.5121 -1.5867
 5960TIP3    H239372   6.463   1.658  16.486 -0.7072 -0.1180  1.2235
 5961TIP3   OH239373   4.439   1.810  17.037  0.3571 -0.0328 -0.1801
 5961TIP3    H139374   4.369   1.799  17.101 -0.7484 -2.9115 -1.6821
 5961TIP3    H239375   4.399   1.858  16.964  0.0369 -1.2136 -0.8119
 5962TIP3   OH239376   2.364   5.943  15.845 -0.0157  0.6370  0.0481
 5962TIP3    H139377   2.441   5.993  15.817 -1.7163  3.4706  0.0980
 5962TIP3    H239378   2.358   5.872  15.781  1.9464  1.0226 -0.6485
 5963TIP3   OH239379   0.845   6.824   0.522 -0.2379  0.3000  0.2328
 5963TIP3    H139380   0.760   6.801   0.484  0.3418 -1.6253 -0.0472
 5963TIP3    H239381   0.907   6.763   0.481  1.1906  1.2765  0.8387
 5964TIP3   OH239382   2.482   4.658   5.376  0.1800 -0.5365 -0.2273
 5964TIP3    H139383   2.524   4.638   5.460  0.9306 -2.7448 -1.0576
 5964TIP3    H239384   2.389   4.665   5.398  0.3696 -1.0111  0.8227
 5965TIP3   OH239385   0.499   4.888  13.947 -0.0947 -0.0035 -0.4531
 5965TIP3    H139386   0.432   4.920  14.008 -0.3373 -0.2970 -0.5653
 5965TIP3    H239387   0.552   4.828  14.000  2.2313  2.7743  0.6370
 5966TIP3   OH239388   1.877   5.262   4.271  0.0894  0.2244  0.4116
 5966TIP3    H139389   1.933   5.315   4.328 -0.9259  1.2318  0.5086
 5966TIP3    H239390   1.828   5.326   4.220 -0.7200 -0.6343  0.0823
 5967TIP3   OH239391   3.524   6.083   5.893  0.4690  0.7070 -0.0329
 5967TIP3    H139392   3.600   6.031   5.867 -0.0757  1.0552 -2.6592
 5967TIP3    H239393   3.526   6.159   5.835 -3.3731 -0.6718 -2.3996
 5968TIP3   OH239394   5.916   6.234  16.901  0.2309  0.1517 -0.3891
 5968TIP3    H139395   5.847   6.242  16.968  0.5017 -0.7369  0.0097
 5968TIP3    H239396   5.990   6.281  16.937  0.9283 -1.6779  0.7261
 5969TIP3   OH239397   6.506   2.772  16.899  0.2553 -0.4221 -0.9137
 5969TIP3    H139398   6.572   2.714  16.862  0.8623 -0.1055 -0.3454
 5969TIP3    H239399   6.431   2.763  16.840  0.6748 -1.0517 -1.3714
 5970TIP3   OH239400   2.626   4.528   4.788 -0.8858  0.1282 -0.1833
 5970TIP3    H139401   2.668   4.474   4.721 -2.0984 -1.5732  0.3715
 5970TIP3    H239402   2.699   4.568   4.835  0.0598 -1.0489 -0.5872
 5971TIP3   OH239403   1.324   1.401  11.053  0.2765  0.0507  0.3087
 5971TIP3    H139404   1.404   1.447  11.029  0.0427  1.0185  1.3014
 5971TIP3    H239405   1.336   1.378  11.145 -1.4850  2.2940  1.1931
 5972TIP3   OH239406   1.215   5.051  13.842 -0.0563 -0.2524  0.1308
 5972TIP3    H139407   1.204   5.060  13.747  1.4593 -1.0194 -0.1488
 5972TIP3    H239408   1.131   5.020  13.873 -0.3016 -0.8922 -1.1057
 5973TIP3   OH239409   1.688   2.850  14.529  0.6954 -0.3178 -0.6661
 5973TIP3    H139410   1.730   2.910  14.468 -3.6821  1.2886 -2.5390
 5973TIP3    H239411   1.661   2.776  14.474 -1.2313  0.0255 -0.2506
 5974TIP3   OH239412   2.457   1.817   0.472  0.0238 -0.2069 -0.2105
 5974TIP3    H139413   2.403   1.859   0.539  2.2462  0.6797  1.1558
 5974TIP3    H239414   2.471   1.884   0.406 -1.5262 -0.8402 -1.2383
 5975TIP3   OH239415   0.773   2.483  15.983 -0.6199 -0.2329  0.2957
 5975TIP3    H139416   0.812   2.395  15.986 -2.4105 -1.1469 -0.9501
 5975TIP3    H239417   0.788   2.513  15.893  1.2640  1.4305  1.0960
 5976TIP3   OH239418   2.520   1.104  16.057  0.3649  0.1927  0.3435
 5976TIP3    H139419   2.595   1.043  16.060  0.1976 -0.0176  0.2805
 5976TIP3    H239420   2.538   1.160  15.982  0.7124  0.4717  0.6320
 5977TIP3   OH239421   0.023   4.417  14.071 -0.2515  0.3161  0.0560
 5977TIP3    H139422  -0.025   4.374  14.000  0.4264 -2.6043  1.1940
 5977TIP3    H239423  -0.044   4.437  14.137 -0.7735  2.3674 -1.0414
 5978TIP3   OH239424   1.337   3.326   6.290  0.2519 -0.0586 -0.0232
 5978TIP3    H139425   1.348   3.419   6.310  2.5923 -0.6935  2.1873
 5978TIP3    H239426   1.426   3.291   6.290 -0.6673 -2.6190  0.8672
 5979TIP3   OH239427   5.989   0.695  14.501  0.1321  0.0483 -0.7466
 5979TIP3    H139428   6.010   0.603  14.482  1.8510  0.3721 -0.5693
 5979TIP3    H239429   5.909   0.691  14.553  0.9858 -1.4665  0.5362
 5980TIP3   OH239430   5.794   4.825   1.376 -0.5617  0.3130  0.5222
 5980TIP3    H139431   5.732   4.769   1.424 -0.1267  0.5317  1.3535
 5980TIP3    H239432   5.858   4.852   1.442  0.9246 -0.6012 -0.4975
 5981TIP3   OH239433   2.173   5.169   0.178  0.1492 -0.0666  0.2444
 5981TIP3    H139434   2.237   5.238   0.162  1.1009 -0.9381  0.1980
 5981TIP3    H239435   2.089   5.207   0.152  0.5158  1.3952  1.1355
 5982TIP3   OH239436   4.961   3.865   0.678 -0.1591  0.4146  0.1333
 5982TIP3    H139437   4.963   3.773   0.651 -2.2336  0.7319 -1.3657
 5982TIP3    H239438   4.872   3.894   0.656  0.0950  2.4941  1.6072
 5983TIP3   OH239439   4.470   1.405   3.688 -0.5227 -0.0877  0.0917
 5983TIP3    H139440   4.556   1.366   3.672 -0.5805 -0.5145  0.7772
 5983TIP3    H239441   4.408   1.339   3.656 -0.6069 -0.2825  0.6346
 5984TIP3   OH239442   6.604   3.119  12.685 -0.1767  0.7641  0.1911
 5984TIP3    H139443   6.521   3.145  12.644  0.6841 -0.3590 -2.5516
 5984TIP3    H239444   6.586   3.032  12.722 -0.3672  0.7270  0.0140
 5985TIP3   OH239445   2.674   3.688  12.269 -0.2723  0.2512  0.4608
 5985TIP3    H139446   2.614   3.685  12.194  2.7896  0.0534 -2.2565
 5985TIP3    H239447   2.715   3.775  12.263  0.2475  0.1078  1.7377
 5986TIP3   OH239448   1.677   0.885   1.281  0.1042 -0.1365 -0.5329
 5986TIP3    H139449   1.594   0.841   1.298  0.5959 -1.5438 -1.5603
 5986TIP3    H239450   1.733   0.858   1.355 -0.1269  0.2197 -0.2248
 5987TIP3   OH239451   3.342   4.521   3.447 -0.6343  0.0027 -0.2439
 5987TIP3    H139452   3.376   4.533   3.536 -1.0951 -1.1527  0.1044
 5987TIP3    H239453   3.286   4.597   3.433 -0.5571  0.1976  0.4596
 5988TIP3   OH239454   3.253   3.519   4.706 -0.3974  0.2106  0.0458
 5988TIP3    H139455   3.206   3.585   4.757  0.4156  1.1166 -0.3510
 5988TIP3    H239456   3.297   3.465   4.771  0.1667  1.0063  0.3456
 5989TIP3   OH239457   5.186   4.191   3.853  0.1881 -0.0794  0.2697
 5989TIP3    H139458   5.215   4.140   3.777  0.0159  0.2348 -0.0110
 5989TIP3    H239459   5.219   4.142   3.928  1.5587  0.3070 -0.0313
 5990TIP3   OH239460   3.562   3.910  15.566 -0.2210  0.3152 -0.0343
 5990TIP3    H139461   3.647   3.936  15.601  0.7815 -2.8072  0.1766
 5990TIP3    H239462   3.580   3.888  15.474 -1.1347  0.9852 -0.3839
 5991TIP3   OH239463   5.709   1.408   0.937 -0.0968 -0.0135  0.2074
 5991TIP3    H139464   5.714   1.340   1.004  1.2334  1.6852  1.9516
 5991TIP3    H239465   5.616   1.430   0.933 -0.2279 -0.2467  1.4136
 5992TIP3   OH239466   3.510   1.746  14.693 -0.1966  0.0825  0.2916
 5992TIP3    H139467   3.584   1.693  14.722  1.2514  0.8868 -1.7468
 5992TIP3    H239468   3.495   1.719  14.602 -1.2455  1.1875  0.1138
 5993TIP3   OH239469   6.430   1.239  14.909  0.0628 -0.3261  0.3650
 5993TIP3    H139470   6.520   1.240  14.876  0.2587 -2.0095  0.7639
 5993TIP3    H239471   6.432   1.296  14.985  0.9203 -0.6964  0.6342
 5994TIP3   OH239472   5.140   6.268  11.899  0.1142 -0.5107  0.1349
 5994TIP3    H139473   5.141   6.358  11.931  0.1329 -0.8207  1.0507
 5994TIP3    H239474   5.185   6.218  11.967  0.1535 -1.2019 -0.3887
 5995TIP3   OH239475   0.221   0.961   5.300 -0.2895 -0.5677 -0.1657
 5995TIP3    H139476   0.210   0.974   5.394 -0.8783 -0.2221 -0.2736
 5995TIP3    H239477   0.237   0.867   5.291  0.1674 -0.5397  0.3109
 5996TIP3   OH239478   2.218   4.101  13.158 -0.3087 -0.4275  0.6053
 5996TIP3    H139479   2.283   4.142  13.215 -0.9423 -0.6077  1.4633
 5996TIP3    H239480   2.182   4.174  13.107 -0.2311 -0.1709  0.9187
 5997TIP3   OH239481   6.680   2.110  11.752  0.0936 -0.2638 -0.0099
 5997TIP3    H139482   6.695   2.203  11.736  0.9770 -0.2042  1.1012
 5997TIP3    H239483   6.668   2.073  11.664 -1.2642  1.0385 -0.4121
 5998TIP3   OH239484   3.272   0.984   0.333  0.1650 -0.1567 -0.1336
 5998TIP3    H139485   3.296   0.913   0.272 -0.3134 -1.7134  1.3961
 5998TIP3    H239486   3.177   0.978   0.339  0.1876  0.1865  0.5165
 5999TIP3   OH239487   4.986   0.584   5.312  0.4813 -0.5065 -0.4799
 5999TIP3    H139488   5.031   0.530   5.247  1.4167 -0.7610  0.3457
 5999TIP3    H239489   5.006   0.674   5.287 -2.2158 -0.3814 -2.6773
 6000TIP3   OH239490   4.341   4.225  14.518  0.1352  0.2740 -0.0837
 6000TIP3    H139491   4.266   4.205  14.574  0.5800  0.7013  0.6892
 6000TIP3    H239492   4.314   4.197  14.431 -0.5679 -0.4278  0.3433
 6001TIP3   OH239493   1.594   6.624  14.812  0.6082 -0.4155  0.2132
 6001TIP3    H139494   1.685   6.616  14.785  0.0413 -2.8007 -1.2488
 6001TIP3    H239495   1.591   6.589  14.901  1.0205 -0.9004  0.0374
 6002TIP3   OH239496   1.356   6.743  12.039  0.1419 -0.2524  0.2632
 6002TIP3    H139497   1.381   6.726  11.948  1.7118  1.0159  0.4223
 6002TIP3    H239498   1.298   6.819  12.035 -0.4216 -0.6701  0.2774
 6003TIP3   OH239499   6.285   2.584   0.913  0.3509  0.7280  0.6400
 6003TIP3    H139500   6.227   2.616   0.981 -1.5530 -1.6582  0.2757
 6003TIP3    H239501   6.373   2.600   0.947 -0.5214  1.8597  2.5054
 6004TIP3   OH239502   1.860   6.074  12.913  0.0576  0.2606 -0.3081
 6004TIP3    H139503   1.942   6.025  12.902  0.8153  1.7540 -1.6074
 6004TIP3    H239504   1.850   6.082  13.008 -1.0635 -3.8611  0.1391
 6005TIP3   OH239505   3.363   4.547   5.765  0.4265 -0.4308  0.3239
 6005TIP3    H139506   3.384   4.504   5.848  1.2196 -0.4494  0.1193
 6005TIP3    H239507   3.430   4.515   5.704 -1.5539 -2.3510 -0.9921
 6006TIP3   OH239508   1.008   2.341   4.506  0.7797  0.4918 -0.1216
 6006TIP3    H139509   1.102   2.350   4.521  1.0346 -2.2488  0.4395
 6006TIP3    H239510   0.971   2.334   4.594  0.0501  1.4079 -0.3452
 6007TIP3   OH239511   4.673   3.488   2.966 -0.1991  0.3424  0.1036
 6007TIP3    H139512   4.707   3.510   3.053 -0.9149 -1.7963  1.0187
 6007TIP3    H239513   4.728   3.414   2.938  0.1663  1.1562 -1.3897
 6008TIP3   OH239514   5.878   0.365   1.213 -0.0676  0.1188 -0.1829
 6008TIP3    H139515   5.839   0.411   1.287  0.4878 -2.0023  1.4918
 6008TIP3    H239516   5.833   0.281   1.210  2.8538 -1.5769  0.5313
 6009TIP3   OH239517   6.761   0.931  14.461  0.0216 -0.0894  0.1635
 6009TIP3    H139518   6.736   1.010  14.414  0.4415 -0.1748 -0.2107
 6009TIP3    H239519   6.680   0.900  14.502 -1.1371 -1.7437 -3.0390
 6010TIP3   OH239520   1.622   1.936   4.652  0.2097  0.1886  0.1292
 6010TIP3    H139521   1.636   1.963   4.742 -2.2554  0.0665  0.6293
 6010TIP3    H239522   1.658   1.847   4.647  1.3227  0.5973  0.6628
 6011TIP3   OH239523   5.663   0.166  15.174  0.2911  0.4019 -0.0035
 6011TIP3    H139524   5.729   0.200  15.235  1.6396 -0.3078 -1.0158
 6011TIP3    H239525   5.697   0.081  15.148 -0.8614  0.1829 -0.8380
 6012TIP3   OH239526   3.853   2.483   4.907  0.0010  0.1345  0.4421
 6012TIP3    H139527   3.878   2.530   4.987 -0.4692 -2.1688  2.0698
 6012TIP3    H239528   3.798   2.411   4.939  1.3239 -1.9844 -1.7421
 6013TIP3   OH239529   3.514   4.442   2.241 -0.3123  0.5614 -0.6104
 6013TIP3    H139530   3.567   4.454   2.320  1.2836  0.8161 -1.6731
 6013TIP3    H239531   3.490   4.349   2.243  0.1648  0.4373 -0.0923
 6014TIP3   OH239532   3.090   5.228   3.802  0.1396  0.1459  0.2928
 6014TIP3    H139533   3.060   5.304   3.751 -0.7834 -0.8338 -0.6634
 6014TIP3    H239534   3.014   5.203   3.854  0.3546 -0.3012  0.3928
 6015TIP3   OH239535   2.109   4.849   2.579  0.3175 -0.3720  0.1444
 6015TIP3    H139536   2.021   4.831   2.612 -0.6264  0.7291 -1.6346
 6015TIP3    H239537   2.102   4.934   2.536  2.2489 -0.2896 -0.0965
 6016TIP3   OH239538   0.234   4.024  12.639 -0.1357  0.8769 -0.1099
 6016TIP3    H139539   0.221   4.118  12.648 -1.7087  0.7216 -0.4386
 6016TIP3    H239540   0.163   3.985  12.691 -0.4805 -0.0905 -1.2515
 6017TIP3   OH239541   5.039   6.346  12.718 -0.1666 -0.0671  0.4081
 6017TIP3    H139542   5.072   6.308  12.637  1.6649  1.7757  0.1972
 6017TIP3    H239543   5.022   6.271  12.775 -0.6458 -1.3491 -1.3610
 6018TIP3   OH239544   0.478   1.312   1.314 -0.5324  0.9135 -0.5191
 6018TIP3    H139545   0.423   1.375   1.360 -0.2035  0.9847 -0.2102
 6018TIP3    H239546   0.503   1.356   1.233  0.4765  1.5764  0.1260
 6019TIP3   OH239547   3.231   4.448   2.455  0.1581 -0.5706 -0.2215
 6019TIP3    H139548   3.183   4.469   2.534 -0.6129 -0.8771 -0.6037
 6019TIP3    H239549   3.319   4.482   2.471 -0.2256  0.1530  0.4082
 6020TIP3   OH239550   0.596   4.700  13.621  0.3521 -0.2258 -0.2580
 6020TIP3    H139551   0.622   4.787  13.590  0.4860 -0.2070 -0.0926
 6020TIP3    H239552   0.513   4.715  13.667 -0.0780 -0.3215 -0.9833
 6021TIP3   OH239553   3.264   5.484  14.600  0.1490 -0.0869  0.9679
 6021TIP3    H139554   3.296   5.394  14.594  1.2982  0.3132  0.8084
 6021TIP3    H239555   3.225   5.501  14.515 -1.8671 -1.0585  1.6443
 6022TIP3   OH239556   5.402   3.221  13.999 -0.2236 -0.0473  0.3066
 6022TIP3    H139557   5.484   3.185  13.964 -0.5315 -0.1209 -0.3531
 6022TIP3    H239558   5.397   3.187  14.088  0.2245 -0.4390  0.1863
 6023TIP3   OH239559   1.939   2.141   5.082 -0.5900  0.1704 -0.3246
 6023TIP3    H139560   1.956   2.107   5.170 -2.5510  1.0268  0.4383
 6023TIP3    H239561   1.970   2.072   5.023  0.0099 -0.7752  1.0380
 6024TIP3   OH239562   6.781   1.255   0.322 -0.6077  0.4584 -0.3074
 6024TIP3    H139563   6.787   1.306   0.403  2.3383  1.7015 -1.1694
 6024TIP3    H239564   6.843   1.183   0.334 -0.6649  0.2551 -1.1772
 6025TIP3   OH239565   3.809   0.747  12.253 -0.1825  0.4170  0.2671
 6025TIP3    H139566   3.850   0.823  12.212  1.2974 -0.1366  0.6561
 6025TIP3    H239567   3.757   0.783  12.325  0.5262  1.0690  0.4632
 6026TIP3   OH239568   1.783   1.096  16.825 -0.0965  0.0260 -0.2114
 6026TIP3    H139569   1.842   1.164  16.857  1.5049 -0.8882 -1.0956
 6026TIP3    H239570   1.733   1.138  16.756 -1.3338  1.1178  1.2748
 6027TIP3   OH239571   6.491   5.820  14.654 -0.1575 -0.5171  0.1644
 6027TIP3    H139572   6.465   5.762  14.725 -1.3953  0.2441  0.3717
 6027TIP3    H239573   6.478   5.908  14.689 -0.5137 -0.1278 -0.8957
 6028TIP3   OH239574   1.943   3.085  16.265  0.1559  0.0400  0.0081
 6028TIP3    H139575   1.970   3.021  16.199 -0.5853  0.6480 -0.9104
 6028TIP3    H239576   1.858   3.053  16.295  0.4253 -0.1566  0.5750
 6029TIP3   OH239577   1.361   5.776  11.201 -0.6038  0.1734  0.1006
 6029TIP3    H139578   1.387   5.761  11.292 -1.9917  1.2254  0.7015
 6029TIP3    H239579   1.431   5.735  11.150 -0.6416 -1.9301  1.6059
 6030TIP3   OH239580   4.434   5.778  14.843 -0.2466  0.4565  0.2363
 6030TIP3    H139581   4.476   5.694  14.864 -0.6170 -0.4714 -2.3460
 6030TIP3    H239582   4.503   5.829  14.800 -0.2225  1.2186  1.1565
 6031TIP3   OH239583   1.280   5.974   3.705  0.1855  0.5402  0.3233
 6031TIP3    H139584   1.198   6.000   3.664  0.0450  0.9724  0.8655
 6031TIP3    H239585   1.329   5.930   3.636 -0.0412  1.2663 -0.3072
 6032TIP3   OH239586   5.794   0.046  16.929  0.0778  0.6909 -0.0345
 6032TIP3    H139587   5.812  -0.031  16.876 -1.1938  0.4260 -0.1261
 6032TIP3    H239588   5.737   0.101  16.875  1.3256  1.9427 -0.1497
 6033TIP3   OH239589   6.315   4.380  13.114 -0.2964 -0.2027  0.8222
 6033TIP3    H139590   6.353   4.447  13.057 -0.9960  1.3667  2.1015
 6033TIP3    H239591   6.376   4.307  13.109  1.3237  1.0944  0.5251
 6034TIP3   OH239592   2.904   5.612   4.195  0.4274  0.0832  0.4935
 6034TIP3    H139593   2.864   5.535   4.235 -0.7923  0.0538 -0.7016
 6034TIP3    H239594   2.834   5.677   4.191  0.6664  0.3018 -0.9618
 6035TIP3   OH239595   2.081   1.784  14.772 -0.1398 -0.3198 -0.3350
 6035TIP3    H139596   2.113   1.716  14.712 -0.0260 -0.9932  0.4834
 6035TIP3    H239597   2.137   1.860  14.754 -1.1112  0.0176 -2.1923
 6036TIP3   OH239598   1.263   6.816   2.200  0.0065 -0.5176 -0.2241
 6036TIP3    H139599   1.196   6.839   2.264 -1.1325 -1.1931 -1.1481
 6036TIP3    H239600   1.316   6.895   2.191 -1.4035  0.4300 -0.3796
 6037TIP3   OH239601   0.189   5.954   5.376  0.2934 -0.1511  0.2205
 6037TIP3    H139602   0.160   5.877   5.425  1.2037 -0.3270  0.5004
 6037TIP3    H239603   0.229   6.011   5.443 -0.6541  0.7151  0.0712
 6038TIP3   OH239604   5.633   2.737   2.773  0.0155 -0.2580 -0.0028
 6038TIP3    H139605   5.624   2.644   2.755  1.4655 -0.4263  0.0604
 6038TIP3    H239606   5.711   2.764   2.724  0.0395  0.7661  0.5681
 6039TIP3   OH239607   5.633   0.734  15.439 -0.5707 -0.2555 -0.1642
 6039TIP3    H139608   5.638   0.639  15.434  1.0044 -0.1451 -1.9500
 6039TIP3    H239609   5.540   0.753  15.448 -0.8078 -1.9612  1.8392
 6040TIP3   OH239610   1.893   0.801   4.599 -0.5697  0.3681  0.2863
 6040TIP3    H139611   1.850   0.725   4.639  1.5397 -0.8475  0.3714
 6040TIP3    H239612   1.925   0.852   4.673 -1.6145  1.1551  0.2178
 6041TIP3   OH239613   3.284   5.380  13.185  0.2010 -0.0394  0.5984
 6041TIP3    H139614   3.190   5.364  13.181  0.1050  0.2557  1.4573
 6041TIP3    H239615   3.321   5.327  13.114 -0.7897  1.2761 -0.9829
 6042TIP3   OH239616   1.157   5.887  12.317  0.0035  0.2305 -0.0252
 6042TIP3    H139617   1.121   5.857  12.401 -0.2010  0.4260 -0.0412
 6042TIP3    H239618   1.214   5.961  12.341 -0.5004  0.6552 -0.1117
 6043TIP3   OH239619   6.528   4.287  11.259  0.2722 -0.3200  0.1500
 6043TIP3    H139620   6.536   4.222  11.189 -1.4198 -1.8477  1.2651
 6043TIP3    H239621   6.489   4.238  11.332  0.7508  1.5195  1.7145
 6044TIP3   OH239622   3.031   3.816   4.292 -0.1179  0.3039  0.0005
 6044TIP3    H139623   3.009   3.893   4.239  0.4456  0.2481 -0.3284
 6044TIP3    H239624   2.947   3.773   4.309 -0.2076 -0.5803 -2.2557
 6045TIP3   OH239625   4.272   0.216   4.948 -0.1626  0.0458 -0.0050
 6045TIP3    H139626   4.333   0.212   5.021  1.0223 -0.4823 -0.9789
 6045TIP3    H239627   4.288   0.302   4.908  0.6734 -0.4675 -0.8292
 6046TIP3   OH239628   0.639   4.221   2.294  0.4388  0.0508  0.0090
 6046TIP3    H139629   0.649   4.126   2.307  1.4897  0.3276  1.4338
 6046TIP3    H239630   0.728   4.252   2.277  0.4569  1.0718  1.7929
 6047TIP3   OH239631   6.159   4.204  12.701 -0.0909  0.5704 -0.4676
 6047TIP3    H139632   6.086   4.185  12.760 -0.0288  1.1690 -0.1920
 6047TIP3    H239633   6.233   4.154  12.737 -0.4808 -0.4187 -1.0241
 6048TIP3   OH239634   1.101   1.687  16.224 -0.5511 -0.4585 -0.1248
 6048TIP3    H139635   1.015   1.718  16.196 -0.9094 -0.1520  1.2454
 6048TIP3    H239636   1.086   1.598  16.255 -0.7728  0.2321  1.8668
 6049TIP3   OH239637   4.308   4.570   3.993  0.1117 -0.3951  0.0485
 6049TIP3    H139638   4.323   4.481   3.961  1.0420 -0.5617  0.8844
 6049TIP3    H239639   4.217   4.589   3.971 -0.1407 -1.6085 -0.0177
 6050TIP3   OH239640   3.040   3.963  15.932 -0.5590 -0.1352 -0.2746
 6050TIP3    H139641   3.097   3.916  15.872 -1.3843 -0.7618 -0.5927
 6050TIP3    H239642   3.097   3.992  16.003  0.3935  0.4382 -1.2428
 6051TIP3   OH239643   4.426   3.184   1.958  0.1517  0.2265  0.2730
 6051TIP3    H139644   4.445   3.116   1.893  0.7722 -0.4262  1.1114
 6051TIP3    H239645   4.509   3.229   1.970 -0.5311  1.9680 -1.1675
 6052TIP3   OH239646   0.193   3.285  14.030  0.2671  0.3542 -0.1916
 6052TIP3    H139647   0.209   3.361  14.086  0.9756  0.4750 -0.5480
 6052TIP3    H239648   0.268   3.282  13.971 -0.0239 -0.3047 -0.5432
 6053TIP3   OH239649   2.289   1.351  12.680  0.0555  0.5060  0.0868
 6053TIP3    H139650   2.360   1.416  12.678  1.8757 -1.2487  2.3160
 6053TIP3    H239651   2.225   1.388  12.740  1.0074  0.3525  1.2228
 6054TIP3   OH239652   0.891   1.359   0.669  0.2016  0.2283  0.2359
 6054TIP3    H139653   0.910   1.433   0.611  0.2786  1.3091  1.5814
 6054TIP3    H239654   0.974   1.311   0.675  0.9244  1.5164  1.3411
 6055TIP3   OH239655   5.525   4.863   4.583 -0.1814  0.4049  0.3555
 6055TIP3    H139656   5.617   4.842   4.570 -0.4861 -0.6864 -0.1849
 6055TIP3    H239657   5.525   4.941   4.638  1.0355 -0.7881  2.1548
 6056TIP3   OH239658   6.167   3.319  12.080 -0.7103 -0.7550  0.0220
 6056TIP3    H139659   6.216   3.239  12.097  1.8338  0.3732 -1.3955
 6056TIP3    H239660   6.171   3.369  12.161 -0.4528 -1.1579  0.2555
 6057TIP3   OH239661   1.704   6.464   2.999 -0.2029  0.0374 -0.1658
 6057TIP3    H139662   1.733   6.408   2.926 -1.0055  1.7007 -1.8575
 6057TIP3    H239663   1.614   6.487   2.977 -0.0032  1.7229  0.6212
 6058TIP3   OH239664   0.500   2.076   0.404 -0.2811  0.4857 -0.1064
 6058TIP3    H139665   0.488   2.010   0.336 -1.1773  0.6869 -0.1546
 6058TIP3    H239666   0.496   2.160   0.357  0.9446  0.5865 -0.0605
 6059TIP3   OH239667   4.617   4.066  10.884  0.4896 -0.0157  0.8910
 6059TIP3    H139668   4.673   4.134  10.924  0.3505 -1.0622  3.0117
 6059TIP3    H239669   4.676   4.016  10.829  1.5065 -0.5131  2.3572
 6060TIP3   OH239670   1.966   2.105  11.215 -0.4393  0.0851  0.1128
 6060TIP3    H139671   1.909   2.065  11.149 -2.2855  1.0558  1.0392
 6060TIP3    H239672   1.938   2.065  11.298 -0.6382  1.4624  0.7409
 6061TIP3   OH239673   5.798   6.375  16.536 -0.0492 -0.0489 -0.1481
 6061TIP3    H139674   5.766   6.302  16.590  0.2550 -1.1642 -1.4194
 6061TIP3    H239675   5.738   6.447  16.556 -0.9287 -0.9128  0.4647
 6062TIP3   OH239676   4.684   4.982  12.047 -0.1218 -0.6804 -0.9052
 6062TIP3    H139677   4.618   5.021  12.105  0.1628 -0.1600 -0.9297
 6062TIP3    H239678   4.668   5.022  11.962  0.7846  0.1121 -0.7124
 6063TIP3   OH239679   5.752   4.855  11.179 -0.2724 -0.0489 -0.1439
 6063TIP3    H139680   5.711   4.860  11.266 -0.3163 -0.1481 -0.1586
 6063TIP3    H239681   5.699   4.912  11.124 -0.0633  0.2485 -0.0358
 6064TIP3   OH239682   3.409   4.903  11.971  0.3576  0.0038 -0.2192
 6064TIP3    H139683   3.399   4.973  12.035  2.0780 -1.3073  1.6124
 6064TIP3    H239684   3.499   4.909  11.941  0.4778 -1.2908 -0.1699
 6065TIP3   OH239685   4.621   1.662  16.251  0.0171 -0.5529 -0.5125
 6065TIP3    H139686   4.705   1.705  16.260  0.4963 -0.9795 -2.3576
 6065TIP3    H239687   4.601   1.668  16.157 -1.6666 -1.0793 -0.2275
 6066TIP3   OH239688   6.384   5.201   6.193  0.7312 -0.5308 -0.2071
 6066TIP3    H139689   6.445   5.219   6.264 -1.1913 -1.0293  1.6509
 6066TIP3    H239690   6.349   5.286   6.169  0.5609 -0.4841  0.2095
 6067TIP3   OH239691   3.886   0.781   6.105 -0.5425 -0.1098  0.0606
 6067TIP3    H139692   3.957   0.729   6.068 -1.2798  0.0296 -1.6569
 6067TIP3    H239693   3.877   0.749   6.195 -0.0780 -2.0135 -0.5200
 6068TIP3   OH239694   1.258   4.736   3.650 -0.0972  0.2400 -0.2818
 6068TIP3    H139695   1.227   4.814   3.603  2.1973  0.6127 -1.3060
 6068TIP3    H239696   1.254   4.666   3.586  0.3875  0.1174 -0.1815
 6069TIP3   OH239697   1.547   0.443  13.993  0.3613  0.8557  0.1018
 6069TIP3    H139698   1.627   0.395  13.971  0.3406  0.8263  0.0910
 6069TIP3    H239699   1.565   0.533  13.964  1.0827  1.2811  1.7315
 6070TIP3   OH239700   6.019   5.046  12.390  0.0081 -0.6158  0.3104
 6070TIP3    H139701   6.035   5.044  12.296 -0.3724  2.1042  0.0972
 6070TIP3    H239702   5.924   5.041  12.399 -0.4131  3.5157  0.1092
 6071TIP3   OH239703   2.253   0.117  15.791 -0.0420 -0.1081  0.0786
 6071TIP3    H139704   2.344   0.135  15.765 -0.6340  1.5756 -0.9756
 6071TIP3    H239705   2.209   0.202  15.784 -1.6777 -0.8678  0.7250
 6072TIP3   OH239706   5.160   1.218   4.835  0.0147  0.3641 -0.0365
 6072TIP3    H139707   5.149   1.149   4.900  0.2254  0.6487  0.3064
 6072TIP3    H239708   5.074   1.260   4.830 -0.4396 -0.6519 -1.0965
 6073TIP3   OH239709   6.481   5.554  15.282 -0.6419  0.9462  0.0757
 6073TIP3    H139710   6.546   5.623  15.269  0.6674 -0.3636 -0.5766
 6073TIP3    H239711   6.524   5.491  15.339 -1.4156  0.1421 -0.2041
 6074TIP3   OH239712   1.886   4.110  12.963 -0.3681  0.3296 -0.0218
 6074TIP3    H139713   1.819   4.100  12.896  0.8567  0.7698 -1.3583
 6074TIP3    H239714   1.966   4.129  12.914  0.5749  0.6121  1.5704
 6075TIP3   OH239715   1.396   0.679  15.913  0.2884  0.8799 -0.4657
 6075TIP3    H139716   1.343   0.612  15.870  0.9384  0.4648 -0.6228
 6075TIP3    H239717   1.347   0.760  15.900 -1.8077  0.1206  1.8935
 6076TIP3   OH239718   3.479   5.323  12.227  0.3414  0.0025 -0.5639
 6076TIP3    H139719   3.504   5.341  12.136  0.5890 -0.0153 -0.4992
 6076TIP3    H239720   3.562   5.303  12.271  0.6793  3.1032  0.3974
 6077TIP3   OH239721   3.411   3.669  16.934  0.0792  0.5228 -0.2259
 6077TIP3    H139722   3.388   3.646  17.024 -0.1471  1.5642 -0.0003
 6077TIP3    H239723   3.340   3.725  16.904  0.7523  1.1942 -0.6170
 6078TIP3   OH239724   2.178   4.663   0.082  0.7470  0.3508  0.0232
 6078TIP3    H139725   2.260   4.616   0.066  1.6187  1.3322  1.3901
 6078TIP3    H239726   2.194   4.752   0.051 -0.0576  0.3571 -0.3797
 6079TIP3   OH239727   3.662   3.187   2.762  1.0566  0.2494  0.1568
 6079TIP3    H139728   3.656   3.270   2.714  4.5586  0.2264 -0.6265
 6079TIP3    H239729   3.679   3.122   2.693  1.4832 -0.5758  1.0269
 6080TIP3   OH239730   3.191   4.222  11.661  0.5584  0.5913  0.0857
 6080TIP3    H139731   3.228   4.288  11.720 -1.2710  1.5498  0.2371
 6080TIP3    H239732   3.142   4.272  11.596 -0.6102 -0.5818  0.0106
 6081TIP3   OH239733   3.666   5.782  11.743  0.1828 -0.3427  0.5379
 6081TIP3    H139734   3.676   5.728  11.822 -0.8636  0.6524  1.3814
 6081TIP3    H239735   3.718   5.860  11.761 -1.6925  0.8146  1.1481
 6082TIP3   OH239736   6.181   0.622   0.652  0.0028  0.1172 -0.4843
 6082TIP3    H139737   6.199   0.529   0.662  0.7553  0.3404  0.4353
 6082TIP3    H239738   6.184   0.637   0.557  0.4182 -0.6887 -0.6063
 6083TIP3   OH239739   1.220   6.804  16.111  0.2601  0.2961 -0.6097
 6083TIP3    H139740   1.254   6.856  16.038  0.1603 -0.0281 -0.8885
 6083TIP3    H239741   1.290   6.744  16.133 -0.4945 -1.1359 -1.9154
 6084TIP3   OH239742   1.868   3.481   6.475  0.2507  0.1748 -0.2630
 6084TIP3    H139743   1.922   3.459   6.551 -0.5108  1.0266  0.5451
 6084TIP3    H239744   1.894   3.570   6.453  0.5552 -0.1105 -1.1002
 6085TIP3   OH239745   6.204   0.703   3.379 -0.0798 -0.0381  0.1103
 6085TIP3    H139746   6.145   0.768   3.341 -1.2624 -0.5549  0.9627
 6085TIP3    H239747   6.245   0.661   3.304  0.2039  1.2364 -0.4652
 6086TIP3   OH239748   4.878   1.541  14.466 -0.5786 -0.2639 -0.4441
 6086TIP3    H139749   4.940   1.601  14.507 -0.5378 -0.9079  0.4677
 6086TIP3    H239750   4.801   1.594  14.447  0.5345  0.7685 -2.4220
 6087TIP3   OH239751   2.308   2.122   2.722 -0.4417 -0.5315  0.1603
 6087TIP3    H139752   2.328   2.039   2.764 -0.2101 -0.4732  0.1698
 6087TIP3    H239753   2.349   2.188   2.778 -0.0548 -0.4605 -0.1998
 6088TIP3   OH239754   0.883   3.610  13.030  0.0911  0.5543 -0.0116
 6088TIP3    H139755   0.903   3.692  13.076 -1.3716  0.6388  0.5251
 6088TIP3    H239756   0.965   3.561  13.031  1.0538  2.0842 -0.5012
 6089TIP3   OH239757   1.601   5.024   2.361 -0.5631 -0.1285  0.4402
 6089TIP3    H139758   1.606   5.060   2.273 -1.9946 -0.6375  0.1267
 6089TIP3    H239759   1.682   4.973   2.370  0.5715  1.5508  0.1995
 6090TIP3   OH239760   3.213   6.482  12.217 -0.1050  0.0318 -0.3963
 6090TIP3    H139761   3.303   6.482  12.250 -0.4911  1.1989  0.7553
 6090TIP3    H239762   3.204   6.398  12.173  0.5303 -1.6191  2.3683
 6091TIP3   OH239763   4.552   6.376   2.339 -0.0584  0.0982  0.1150
 6091TIP3    H139764   4.586   6.333   2.261 -2.2913  0.0207 -0.8798
 6091TIP3    H239765   4.616   6.445   2.357 -0.6468  1.7973 -3.3491
 6092TIP3   OH239766   3.436   4.975   5.362  0.0955  0.3963 -0.1299
 6092TIP3    H139767   3.432   4.913   5.435  0.2639  2.0554  1.3574
 6092TIP3    H239768   3.345   4.990   5.338 -0.0128  0.5506  0.3744
 6093TIP3   OH239769   1.813   0.645  14.644  0.0233  0.2346  0.1338
 6093TIP3    H139770   1.738   0.665  14.701 -0.3594  0.7115 -0.5190
 6093TIP3    H239771   1.867   0.585  14.695 -0.1795  0.8538  1.0994
 6094TIP3   OH239772   1.190   4.592   0.257  0.5829 -0.3730 -0.0390
 6094TIP3    H139773   1.152   4.531   0.321  2.3216 -1.2851  0.1863
 6094TIP3    H239774   1.284   4.573   0.259  0.9114  0.9308 -1.4685
 6095TIP3   OH239775   2.667   0.279   1.432 -0.4022 -0.4720 -0.5599
 6095TIP3    H139776   2.674   0.325   1.515  1.0505  1.7165 -1.7935
 6095TIP3    H239777   2.605   0.331   1.381  1.9075  0.7879 -2.2935
 6096TIP3   OH239778   2.366   1.382   5.178 -0.3561 -0.2218 -0.5058
 6096TIP3    H139779   2.390   1.441   5.250 -0.4370  0.1567 -0.7873
 6096TIP3    H239780   2.271   1.395   5.168 -0.5258 -1.0239 -0.0120
 6097TIP3   OH239781   5.411   0.455   3.663  0.9260 -0.5248 -0.2325
 6097TIP3    H139782   5.474   0.418   3.725  0.8694  0.9994  0.7935
 6097TIP3    H239783   5.368   0.379   3.624  1.1682 -1.5497  1.3957
 6098TIP3   OH239784   3.233   1.524   5.627 -0.4550 -0.0914  0.3856
 6098TIP3    H139785   3.318   1.539   5.586  0.0622 -0.8871  1.1218
 6098TIP3    H239786   3.208   1.436   5.597 -0.8716  0.0190  0.4123
 6099TIP3   OH239787   5.868   3.683   2.790  0.3491  0.3841  0.2262
 6099TIP3    H139788   5.875   3.777   2.774  1.4916  0.2409 -0.2037
 6099TIP3    H239789   5.957   3.655   2.810  0.2753 -0.8259 -0.9680
 6100TIP3   OH239790   6.155   3.866   0.851 -0.3347  0.5160 -0.3900
 6100TIP3    H139791   6.208   3.788   0.837 -0.1173  0.5346  0.2862
 6100TIP3    H239792   6.095   3.868   0.777  0.0055 -0.0043 -0.6854
 6101TIP3   OH239793   3.285   5.204   0.022  0.0638 -0.0080 -0.0748
 6101TIP3    H139794   3.227   5.247   0.085  0.3303  1.9202 -1.0785
 6101TIP3    H239795   3.301   5.117   0.060  0.1148  1.0267  2.4653
 6102TIP3   OH239796   1.250   1.094  11.578  0.1976  0.8647 -0.1236
 6102TIP3    H139797   1.259   1.115  11.671 -0.9837 -1.3502  0.5622
 6102TIP3    H239798   1.338   1.107  11.542  0.8775  0.9830  1.4895
 6103TIP3   OH239799   3.357   0.520   3.154 -0.1040  0.1740  0.3135
 6103TIP3    H139800   3.262   0.528   3.146 -0.1292 -0.6651 -0.3219
 6103TIP3    H239801   3.384   0.603   3.195 -1.0161  0.7488 -0.2064
 6104TIP3   OH239802   2.346   4.122   2.351 -0.4067  0.0136  0.5506
 6104TIP3    H139803   2.283   4.059   2.315  0.9133 -1.0486  0.0040
 6104TIP3    H239804   2.303   4.207   2.343 -0.6047 -0.2934 -2.6280
 6105TIP3   OH239805   4.514   4.866  12.670 -0.2523  0.3152 -0.4027
 6105TIP3    H139806   4.523   4.942  12.727 -1.4138 -0.4950  0.9295
 6105TIP3    H239807   4.421   4.844  12.675 -0.1737 -0.4001 -1.8125
 6106TIP3   OH239808   3.939   2.347  16.178  0.1893 -0.3085 -0.2941
 6106TIP3    H139809   3.980   2.307  16.101  1.0200  0.8881 -0.4948
 6106TIP3    H239810   3.887   2.276  16.217  1.5410 -1.5650 -0.6726
 6107TIP3   OH239811   6.337   4.888  13.938  0.3345 -0.1428  0.2415
 6107TIP3    H139812   6.400   4.956  13.914  1.4833 -1.1933  0.1283
 6107TIP3    H239813   6.372   4.851  14.019 -1.4831  0.8696  1.5424
 6108TIP3   OH239814   5.193   4.234  12.950  0.2012  0.2813  0.2460
 6108TIP3    H139815   5.276   4.241  12.902  0.5009 -0.2931  0.6632
 6108TIP3    H239816   5.207   4.161  13.011 -0.9525 -0.4772 -0.3642
 6109TIP3   OH239817   6.608   0.929  14.016 -0.3243 -0.3787  0.7301
 6109TIP3    H139818   6.703   0.937  14.030 -0.2993  2.9605 -0.3715
 6109TIP3    H239819   6.574   0.906  14.102  1.4151 -0.6273  1.4038
 6110TIP3   OH239820   6.523   3.551  15.752 -0.3758  0.7172  0.5297
 6110TIP3    H139821   6.533   3.458  15.731 -0.5484  1.1881 -2.0142
 6110TIP3    H239822   6.433   3.572  15.724  0.8470  2.3942 -2.6471
 6111TIP3   OH239823   6.271   3.369   5.751 -0.3276  0.3012  0.3714
 6111TIP3    H139824   6.199   3.357   5.689 -0.5833 -0.6715  0.8260
 6111TIP3    H239825   6.230   3.405   5.829 -0.4131 -0.6510  0.7822
 6112TIP3   OH239826   3.765   5.957   3.012  0.2745 -0.5086 -0.1553
 6112TIP3    H139827   3.754   5.890   2.944 -0.8667 -0.6442  0.1431
 6112TIP3    H239828   3.775   5.906   3.093 -3.6725 -0.4491  0.5783
 6113TIP3   OH239829   0.995   3.140  13.971 -0.5527 -0.7181  0.1666
 6113TIP3    H139830   1.056   3.104  14.036 -1.4395  0.5215  1.7306
 6113TIP3    H239831   0.928   3.072  13.962  0.7002 -1.8500 -1.1527
 6114TIP3   OH239832   3.447   6.000  16.506  0.7389 -0.0426  0.0096
 6114TIP3    H139833   3.508   5.962  16.444  1.2635 -0.8856  1.0091
 6114TIP3    H239834   3.418   5.926  16.559  0.1095  0.6153  0.6044
 6115TIP3   OH239835   5.939   0.945  14.413  0.1985  0.1746 -0.1246
 6115TIP3    H139836   5.968   0.855  14.431  1.2492  0.2207 -1.4268
 6115TIP3    H239837   5.923   0.983  14.500  1.8751 -0.5813  0.5572
 6116TIP3   OH239838   4.293   0.541  13.696  0.7735  0.3301 -0.0425
 6116TIP3    H139839   4.258   0.452  13.690  1.1775  0.2541 -2.6025
 6116TIP3    H239840   4.362   0.543  13.630  1.1472  2.4073  0.3543
 6117TIP3   OH239841   3.685   3.168   5.716 -0.1465 -0.2015  0.0065
 6117TIP3    H139842   3.748   3.102   5.744 -0.5255 -0.1939  0.8814
 6117TIP3    H239843   3.633   3.188   5.794  0.0093  1.1872 -0.2145
 6118TIP3   OH239844   2.991   5.098   1.071 -0.1606  0.8373 -0.2552
 6118TIP3    H139845   2.972   5.180   1.117 -0.7796  0.8137 -0.4614
 6118TIP3    H239846   2.906   5.070   1.037  0.3076  0.8997 -1.5002
 6119TIP3   OH239847   1.717   4.235   0.128  0.4213  0.3458  0.1722
 6119TIP3    H139848   1.689   4.143   0.126 -1.9974  1.0105  0.7332
 6119TIP3    H239849   1.753   4.251   0.041  1.2457 -1.2009  0.1882
 6120TIP3   OH239850   0.348   5.003  13.722  0.1768 -0.1235 -0.5577
 6120TIP3    H139851   0.389   4.993  13.808 -1.1769  2.0371  0.4296
 6120TIP3    H239852   0.330   4.914  13.694 -0.6383 -0.8922  2.0773
 6121TIP3   OH239853   1.577   2.000  16.462 -0.1940  0.0526 -0.6526
 6121TIP3    H139854   1.620   2.064  16.406  1.1913 -0.0118  0.2959
 6121TIP3    H239855   1.614   1.916  16.436 -0.2387 -0.0879 -0.2692
 6122TIP3   OH239856   4.985   6.659   1.588 -0.0348  0.7436  0.4570
 6122TIP3    H139857   5.077   6.654   1.613  0.1925 -0.3582 -0.5214
 6122TIP3    H239858   4.948   6.726   1.645  1.3144  1.0205  1.0338
 6123TIP3   OH239859   2.599   0.915   3.237 -0.2182 -0.3528  0.5782
 6123TIP3    H139860   2.575   1.005   3.261  0.0342 -0.0397 -0.2932
 6123TIP3    H239861   2.673   0.894   3.294 -0.1660  0.0633  0.6719
 6124TIP3   OH239862   0.198   4.375   5.497 -0.5363 -0.1820 -0.1742
 6124TIP3    H139863   0.208   4.394   5.590 -0.2734 -1.4852  0.0830
 6124TIP3    H239864   0.110   4.404   5.476 -1.3048 -1.5769  0.9449
 6125TIP3   OH239865   2.963   1.402   4.501 -0.4878 -0.3363 -0.6297
 6125TIP3    H139866   3.011   1.410   4.584 -1.8169  0.0338  0.1356
 6125TIP3    H239867   2.998   1.473   4.447 -0.8161  0.5394  0.2662
 6126TIP3   OH239868   5.903   6.554  13.782  0.4056 -0.8386 -0.6132
 6126TIP3    H139869   5.820   6.508  13.772 -1.0488  1.1876  1.2159
 6126TIP3    H239870   5.895   6.631  13.725  0.3521  0.1518  0.6801
 6127TIP3   OH239871   6.080   3.874  11.896 -0.3232 -0.1219 -0.2831
 6127TIP3    H139872   6.154   3.814  11.892  0.3867  0.5150  2.0293
 6127TIP3    H239873   6.086   3.924  11.815  0.4016 -1.6105 -1.1958
 6128TIP3   OH239874   2.868   1.924   2.705  0.4978 -0.6122 -0.1530
 6128TIP3    H139875   2.800   1.888   2.648  1.0520 -0.5837 -0.8480
 6128TIP3    H239876   2.937   1.858   2.704  1.1012  0.0134 -0.6497
 6129TIP3   OH239877   0.027   3.868   4.178 -0.1473 -0.3230  0.0396
 6129TIP3    H139878   0.111   3.898   4.212 -0.8497  0.9830  0.7060
 6129TIP3    H239879  -0.035   3.937   4.202 -1.6112 -1.7067  0.4610
 6130TIP3   OH239880   6.398   1.895  14.811  0.6671  0.3197 -0.0955
 6130TIP3    H139881   6.340   1.825  14.779  0.7326  0.5488 -0.7175
 6130TIP3    H239882   6.486   1.860  14.799  0.6656 -0.0162  0.8234
 6131TIP3   OH239883   3.026   4.433   6.108 -0.0251  0.1618 -0.0651
 6131TIP3    H139884   3.066   4.514   6.140  1.6759 -0.3449 -0.7709
 6131TIP3    H239885   2.951   4.463   6.056  1.0260  1.3685 -0.9734
 6132TIP3   OH239886   0.419   0.096  16.120 -0.3196 -0.1720 -0.0600
 6132TIP3    H139887   0.492   0.121  16.064  1.1250  0.8654  2.1430
 6132TIP3    H239888   0.366   0.037  16.066  0.6542  1.1588 -2.6602
 6133TIP3   OH239889   5.717   5.386   6.005 -0.5902 -0.1814  0.0995
 6133TIP3    H139890   5.645   5.360   5.948 -0.6651  0.5700 -0.1459
 6133TIP3    H239891   5.675   5.408   6.088 -0.8518  1.8897 -0.5408
 6134TIP3   OH239892   5.714   3.075  14.995  0.4914  0.2165 -0.1218
 6134TIP3    H139893   5.645   3.137  15.015 -0.2138 -0.7655  0.5680
 6134TIP3    H239894   5.783   3.128  14.954 -0.9274  1.1091 -1.4623
 6135TIP3   OH239895   4.105   2.439  13.998 -0.9076 -0.0705  0.1485
 6135TIP3    H139896   4.159   2.490  13.938  0.3696 -0.2806  1.0774
 6135TIP3    H239897   4.083   2.360  13.949 -2.2368  0.9701 -1.0163
 6136TIP3   OH239898   4.573   4.672  11.125  0.9124  0.3401 -0.9069
 6136TIP3    H139899   4.620   4.744  11.167 -1.7159  0.8680  1.4345
 6136TIP3    H239900   4.482   4.700  11.123  0.0687 -2.1437 -1.7174
 6137TIP3   OH239901   0.288   0.166  10.896 -0.0379  0.4634 -0.2588
 6137TIP3    H139902   0.315   0.105  10.827  0.4077  1.2128 -0.7589
 6137TIP3    H239903   0.370   0.200  10.930 -0.2828  2.2018 -1.2809
 6138TIP3   OH239904   6.712   5.977   2.143  0.5003 -0.5287  0.8081
 6138TIP3    H139905   6.786   6.038   2.148  0.1198 -0.1269  2.2963
 6138TIP3    H239906   6.634   6.033   2.145  0.1478 -1.0079  0.7541
 6139TIP3   OH239907   3.630   4.063   4.277  0.0833 -0.3006 -0.7525
 6139TIP3    H139908   3.601   4.084   4.366  0.5570  0.3311 -0.7382
 6139TIP3    H239909   3.681   3.983   4.286 -0.1292 -0.4108 -0.5049
 6140TIP3   OH239910   5.077   3.866   2.397 -0.4525  0.2569  0.1522
 6140TIP3    H139911   5.035   3.824   2.472 -0.9957 -0.1932 -0.3980
 6140TIP3    H239912   5.089   3.796   2.334  0.7679  0.4599  0.1350
 6141TIP3   OH239913   3.693   0.067  14.248  0.1175 -0.1480 -0.4463
 6141TIP3    H139914   3.766   0.077  14.310 -1.5129  1.3777  1.3799
 6141TIP3    H239915   3.667   0.156  14.226 -0.8339 -0.6571 -1.5038
 6142TIP3   OH239916   2.080   1.991  15.217 -0.1502  0.1312  0.0088
 6142TIP3    H139917   2.153   1.938  15.184 -0.6441 -1.1203  0.8558
 6142TIP3    H239918   2.050   1.945  15.295 -2.4584  0.0956 -0.8200
 6143TIP3   OH239919   3.248   2.882  14.281  0.5035  0.2021 -0.2094
 6143TIP3    H139920   3.278   2.811  14.338  1.3250  0.8480  0.1897
 6143TIP3    H239921   3.238   2.842  14.195 -0.7698 -0.7976  0.3674
 6144TIP3   OH239922   4.614   6.314   1.192  0.4834  0.1957 -0.4583
 6144TIP3    H139923   4.608   6.332   1.098  1.1981 -1.0677 -0.7576
 6144TIP3    H239924   4.595   6.221   1.200 -0.7216  0.5227  0.7902
 6145TIP3   OH239925   3.957   6.747  13.317  0.0312 -0.4006  0.2431
 6145TIP3    H139926   3.878   6.782  13.277  0.9664  2.0523  0.3663
 6145TIP3    H239927   4.009   6.824  13.340  2.2030 -1.8935  0.7109
 6146TIP3   OH239928   5.618   0.842   0.908  0.2409 -0.0202 -0.1283
 6146TIP3    H139929   5.524   0.860   0.903 -0.4533 -2.9498  0.1246
 6146TIP3    H239930   5.635   0.828   1.001  0.3036 -1.9429 -0.3812
 6147TIP3   OH239931   5.473   5.302   5.847 -0.5838  0.0034  0.7163
 6147TIP3    H139932   5.419   5.254   5.910  1.3951 -0.3268  2.2504
 6147TIP3    H239933   5.511   5.233   5.792 -0.9805  0.1663  0.2296
 6148TIP3   OH239934   0.417   4.034   0.693  0.2698  0.0346  0.7694
 6148TIP3    H139935   0.410   4.074   0.606 -1.3053 -0.8595  0.4472
 6148TIP3    H239936   0.345   4.072   0.743  0.5572 -0.2116  1.3840
 6149TIP3   OH239937   0.132   6.227   0.024 -0.1924  0.2661 -0.0964
 6149TIP3    H139938   0.188   6.155   0.052  0.3439  0.7096 -0.0229
 6149TIP3    H239939   0.089   6.194  -0.056  0.1144 -0.0969 -0.1137
 6150TIP3   OH239940   3.657   0.106  11.358 -0.5739 -0.6523  0.1418
 6150TIP3    H139941   3.709   0.051  11.300 -0.4679 -0.9061  0.4742
 6150TIP3    H239942   3.633   0.182  11.305 -2.5093 -1.9874 -0.9869
 6151TIP3   OH239943   5.889   4.540   1.618  0.1189  0.4447  0.2729
 6151TIP3    H139944   5.878   4.553   1.712 -0.9166 -0.0697  0.2460
 6151TIP3    H239945   5.904   4.446   1.608  2.0754  0.7438  0.0525
 6152TIP3   OH239946   2.187   3.418  11.934 -0.5953  0.6721 -0.2809
 6152TIP3    H139947   2.104   3.377  11.907  1.3142 -2.7077 -1.5691
 6152TIP3    H239948   2.199   3.489  11.870 -1.3822 -0.3097 -1.5882
 6153TIP3   OH239949   0.041   3.046  13.988 -0.1140 -0.4293 -0.4394
 6153TIP3    H139950   0.039   3.036  14.083 -1.6134 -1.8044 -0.5692
 6153TIP3    H239951   0.075   3.134  13.974 -2.0279  0.7281  1.4632
 6154TIP3   OH239952   3.690   4.884  14.432  0.4445  0.5951 -0.3098
 6154TIP3    H139953   3.647   4.881  14.347  1.2194  0.2968 -0.7027
 6154TIP3    H239954   3.766   4.941  14.419 -0.0832  1.5103  0.5032
 6155TIP3   OH239955   1.075   4.161   2.077 -1.4433 -0.1128  0.3616
 6155TIP3    H139956   1.137   4.091   2.095 -1.4122 -0.2040 -0.0919
 6155TIP3    H239957   1.027   4.132   1.999 -1.5995  0.2565  0.3163
 6156TIP3   OH239958   1.003   3.536   4.353 -0.4138  0.1146 -0.6176
 6156TIP3    H139959   1.091   3.552   4.388 -0.3895  0.3377 -0.7836
 6156TIP3    H239960   0.954   3.615   4.372 -0.6143 -0.0549 -0.4233
 6157TIP3   OH239961   6.721   0.543  11.455 -0.2253  0.0143  0.3458
 6157TIP3    H139962   6.704   0.479  11.524 -2.0022  1.2942  1.1527
 6157TIP3    H239963   6.637   0.585  11.439  0.4202  0.6866 -1.6983
 6158TIP3   OH239964   5.621   1.901   1.843 -0.4367 -0.9750  0.4813
 6158TIP3    H139965   5.558   1.851   1.792  0.2188 -1.2424 -0.0821
 6158TIP3    H239966   5.701   1.902   1.789 -1.3775  3.7049 -1.3370
 6159TIP3   OH239967   0.362   6.807   2.679 -0.5896  0.4113 -0.3698
 6159TIP3    H139968   0.377   6.754   2.600 -0.6887  0.5488 -0.4803
 6159TIP3    H239969   0.284   6.769   2.718  0.3998 -0.7465  0.5759
 6160TIP3   OH239970   3.955   1.887  14.315  0.4239  0.8698 -0.3212
 6160TIP3    H139971   3.892   1.892  14.243  1.4547  0.7171 -1.2686
 6160TIP3    H239972   4.002   1.805  14.300 -0.2296  0.1619  1.3104
 6161TIP3   OH239973   0.066   5.143   5.242 -0.9450 -0.1178  0.0461
 6161TIP3    H139974   0.119   5.089   5.300  1.7230  2.4845  0.2450
 6161TIP3    H239975   0.126   5.169   5.172 -2.3477  1.7993 -0.5169
 6162TIP3   OH239976   0.890   3.387   5.091 -0.3625 -0.4938  0.4897
 6162TIP3    H139977   0.952   3.460   5.088  0.0019 -0.8200 -0.2436
 6162TIP3    H239978   0.855   3.388   5.180  1.8493 -1.2483  1.4340
 6163TIP3   OH239979   1.517   6.249   3.522  0.5615 -0.1743 -0.5974
 6163TIP3    H139980   1.586   6.192   3.488  1.3444  0.0605  0.5334
 6163TIP3    H239981   1.481   6.201   3.597 -0.5324 -0.3041 -1.1908
 6164TIP3   OH239982   3.910   0.474  16.740  0.3266 -0.1140 -0.4314
 6164TIP3    H139983   3.838   0.535  16.725  0.6021  0.3706  0.1782
 6164TIP3    H239984   3.913   0.421  16.661 -1.8471 -1.3542  0.2528
 6165TIP3   OH239985   3.312   4.889  12.294  0.3404 -0.7638 -0.6528
 6165TIP3    H139986   3.379   4.823  12.273  2.1005  0.1330  1.7104
 6165TIP3    H239987   3.338   4.966  12.243 -0.1105 -1.0074 -1.2726
 6166TIP3   OH239988   5.527   5.941   6.042  0.3852 -0.4612  0.3181
 6166TIP3    H139989   5.601   5.986   6.083 -1.9997  3.4956  0.8100
 6166TIP3    H239990   5.554   5.849   6.039  4.7387  0.5287  1.5527
 6167TIP3   OH239991   3.933   3.151  11.243 -0.3092 -0.2847 -0.0609
 6167TIP3    H139992   3.974   3.088  11.303  0.4444 -2.1806 -2.4181
 6167TIP3    H239993   3.909   3.099  11.166  0.7272  2.3765 -2.3516
 6168TIP3   OH239994   1.537   4.276  16.958 -0.5385 -0.2689 -0.5819
 6168TIP3    H139995   1.476   4.344  16.988 -1.1122 -0.3510 -1.5092
 6168TIP3    H239996   1.492   4.194  16.975  0.0942 -0.4229  0.3994
 6169TIP3   OH239997   1.014   5.358  16.315 -0.0636 -0.0822  0.2424
 6169TIP3    H139998   0.924   5.376  16.344 -0.2358  1.5392 -1.1741
 6169TIP3    H239999   1.006   5.341  16.221  1.1132  0.1295  0.0933
 6170TIP3   OH240000   4.437   3.714   2.999 -0.0420  0.4457  0.0518
 6170TIP3    H140001   4.384   3.789   3.025 -0.4757  0.2518 -0.2620
 6170TIP3    H240002   4.525   3.749   2.989 -0.3554  1.0384 -0.6756
 6171TIP3   OH240003   2.224   5.313  13.919 -0.4975 -0.2661  0.1314
 6171TIP3    H140004   2.187   5.262  13.847  0.5989  1.6453 -1.8822
 6171TIP3    H240005   2.207   5.404  13.895  2.2845  0.5517  0.8935
 6172TIP3   OH240006   4.799   4.532  12.489  0.2937  0.0028 -0.5478
 6172TIP3    H140007   4.739   4.491  12.551 -0.5935  0.5066 -1.0455
 6172TIP3    H240008   4.883   4.532  12.533 -0.3617  0.5520  0.7566
 6173TIP3   OH240009   6.107   1.111   5.018 -0.0075 -0.9490 -0.2045
 6173TIP3    H140010   6.200   1.110   5.037  0.1413  1.6163 -0.4967
 6173TIP3    H240011   6.101   1.090   4.925  0.2819 -1.0643 -0.1954
 6174TIP3   OH240012   3.149   5.650   5.245  0.5019 -0.5494  0.2243
 6174TIP3    H140013   3.172   5.643   5.152 -2.8174 -1.2173 -0.6691
 6174TIP3    H240014   3.207   5.587   5.289  0.7617 -1.7240 -1.6776
 6175TIP3   OH240015   1.860   5.484   3.746  0.1777  0.1249  0.1923
 6175TIP3    H140016   1.776   5.526   3.730 -0.1269 -0.1670  1.0333
 6175TIP3    H240017   1.924   5.554   3.732 -0.1371  0.1793 -1.1497
 6176TIP3   OH240018   4.881   3.662   4.554  0.0406  0.0560 -0.2827
 6176TIP3    H140019   4.888   3.719   4.631 -0.3509 -2.3756  1.6905
 6176TIP3    H240020   4.810   3.700   4.503 -0.1755  1.3686  0.9135
 6177TIP3   OH240021   0.187   5.648  11.590 -0.2667  0.0207  0.1612
 6177TIP3    H140022   0.178   5.738  11.621  0.5503  0.1112  0.1712
 6177TIP3    H240023   0.108   5.604  11.620  0.5036  0.0692  2.4847
 6178TIP3   OH240024   4.087   1.275  14.445 -0.3953 -0.3250  0.1231
 6178TIP3    H140025   4.140   1.300  14.520 -1.3009  1.1940  0.2874
 6178TIP3    H240026   4.112   1.184  14.428 -0.2907 -0.7712  2.3489
 6179TIP3   OH240027   4.719   1.270  16.271 -0.2844  0.3552  0.2252
 6179TIP3    H140028   4.734   1.257  16.364 -0.3194  1.0515  0.3330
 6179TIP3    H240029   4.693   1.184  16.238  3.7496 -1.0318  0.0250
 6180TIP3   OH240030   1.224   3.069   4.332 -0.2052  0.0389  0.2851
 6180TIP3    H140031   1.184   3.147   4.370 -0.4919  0.3012 -0.5316
 6180TIP3    H240032   1.304   3.056   4.382  1.0622  2.2213 -1.0513
 6181TIP3   OH240033   2.607   0.745   3.039 -0.2345 -0.1512  0.0878
 6181TIP3    H140034   2.594   0.773   3.130  1.3302 -1.1480  0.6690
 6181TIP3    H240035   2.525   0.767   2.995 -0.7043  1.1927  1.5167
 6182TIP3   OH240036   0.076   0.813   0.556  0.3305  0.6860  0.1803
 6182TIP3    H140037   0.025   0.733   0.545 -0.9934  1.1870  2.1859
 6182TIP3    H240038   0.166   0.787   0.534 -0.2218 -1.0817 -0.1562
 6183TIP3   OH240039   6.629   4.245  11.862  0.1222 -0.2825 -0.6444
 6183TIP3    H140040   6.636   4.156  11.827 -0.8244 -0.7005  0.1705
 6183TIP3    H240041   6.698   4.249  11.928 -0.6002 -0.8575  0.1789
 6184TIP3   OH240042   5.738   3.753   4.539  0.1360  0.2902 -0.2964
 6184TIP3    H140043   5.724   3.673   4.489 -0.5477 -0.2129  0.6650
 6184TIP3    H240044   5.660   3.806   4.522 -1.1825 -0.8052  1.8865
 6185TIP3   OH240045   1.459   2.894   4.423  0.3424  0.9470  0.7058
 6185TIP3    H140046   1.540   2.843   4.431 -0.5880 -0.3907  2.1938
 6185TIP3    H240047   1.421   2.892   4.511 -1.6856  0.9024 -0.1299
 6186TIP3   OH240048   6.479   1.174   5.066  0.8188  0.3298 -0.4720
 6186TIP3    H140049   6.413   1.243   5.059  0.5232 -0.0211 -1.2064
 6186TIP3    H240050   6.443   1.112   5.129 -0.4938 -0.8629 -2.2951
 6187TIP3   OH240051   3.400   1.044   1.777 -0.3364 -0.3900 -0.3962
 6187TIP3    H140052   3.413   1.023   1.684  0.1798 -0.1750 -0.3757
 6187TIP3    H240053   3.424   1.137   1.784  0.0415 -0.5139  0.0288
 6188TIP3   OH240054   4.091   3.032  12.905  0.2713 -0.0084  0.6897
 6188TIP3    H140055   4.023   3.004  12.843  1.2179 -0.1250 -0.3235
 6188TIP3    H240056   4.053   3.109  12.948 -0.3123  0.2320 -0.2184
 6189TIP3   OH240057   3.342   3.470   6.837 -0.2591 -0.4193 -0.7826
 6189TIP3    H140058   3.328   3.500   6.747  0.8066 -1.2056 -1.2325
 6189TIP3    H240059   3.271   3.407   6.852 -1.5976  1.1292 -0.3623
 6190TIP3   OH240060   2.828   4.257   3.856  0.2263 -0.2890  0.0598
 6190TIP3    H140061   2.900   4.313   3.827  0.7108 -1.1608 -0.4939
 6190TIP3    H240062   2.787   4.305   3.927 -0.2034  1.3557 -1.2329
 6191TIP3   OH240063   4.270   6.342  11.649  0.8707  0.6631  0.3040
 6191TIP3    H140064   4.206   6.413  11.650  0.4198  0.3571 -1.8346
 6191TIP3    H240065   4.221   6.265  11.680 -0.3343  0.0992 -2.6926
 6192TIP3   OH240066   2.689   4.929  15.375 -0.1637 -0.4289 -0.2714
 6192TIP3    H140067   2.672   4.964  15.462  0.6535  1.5559 -0.8723
 6192TIP3    H240068   2.624   4.971  15.319  1.4748  0.9917 -1.1850
 6193TIP3   OH240069   3.235   5.434   4.707 -0.0015  0.1379  0.6070
 6193TIP3    H140070   3.269   5.358   4.659  0.4222  0.4859  0.3457
 6193TIP3    H240071   3.182   5.396   4.777  0.2859 -0.4016  0.5407
 6194TIP3   OH240072   2.322   6.846   5.675  0.7000 -0.4157  0.1675
 6194TIP3    H140073   2.245   6.902   5.688  0.3213 -0.8631 -0.0946
 6194TIP3    H240074   2.339   6.850   5.581 -0.3471 -2.0209 -0.1242
 6195TIP3   OH240075   0.399   5.658  10.310  0.1447  0.3960 -0.6751
 6195TIP3    H140076   0.413   5.564  10.299  0.2341  0.0638  1.6124
 6195TIP3    H240077   0.479   5.699  10.277  0.9176 -0.5039  0.0052
 6196TIP3   OH240078   5.012   1.298   5.825 -0.0938  0.2269 -0.5407
 6196TIP3    H140079   4.957   1.376   5.826 -1.3324 -0.5535  2.1070
 6196TIP3    H240080   5.027   1.278   5.918  1.5074 -1.7918 -1.1474
 6197TIP3   OH240081   6.673   4.007  16.728  0.0882 -0.1107  0.3660
 6197TIP3    H140082   6.697   3.939  16.664  2.1461  0.1425  0.8194
 6197TIP3    H240083   6.699   3.971  16.812 -2.7423 -0.5016  1.1794
 6198TIP3   OH240084   2.506   2.356  10.725 -0.1192  0.4680  0.4771
 6198TIP3    H140085   2.497   2.408  10.645 -1.8347  0.0890  0.3856
 6198TIP3    H240086   2.529   2.269  10.694 -0.8388  0.3075  0.3751
 6199TIP3   OH240087   0.470   3.564  16.046 -0.0360  0.0918  0.1251
 6199TIP3    H140088   0.432   3.510  15.976  1.1553 -1.1614  0.4070
 6199TIP3    H240089   0.498   3.644  16.003  0.3833 -0.5319 -0.7794
 6200TIP3   OH240090   0.939   1.900  11.050 -0.5477  0.2253  0.0151
 6200TIP3    H140091   0.971   1.943  10.971  0.9302 -0.5142  0.1756
 6200TIP3    H240092   1.018   1.871  11.096 -1.2885  1.8863  2.5192
 6201TIP3   OH240093   5.531   2.480   6.090 -0.0653 -0.1277 -0.2469
 6201TIP3    H140094   5.556   2.566   6.122  0.5358 -0.3855  0.0022
 6201TIP3    H240095   5.444   2.492   6.051 -0.9855  0.1244  1.7957
 6202TIP3   OH240096   0.502   1.590  13.978 -0.4208  0.0231  0.7677
 6202TIP3    H140097   0.576   1.617  14.033  0.0373 -3.3031  2.0374
 6202TIP3    H240098   0.542   1.541  13.907 -1.2970 -0.6543  0.7192
 6203TIP3   OH240099   0.808   2.638  15.712  0.3407 -0.0777  0.1064
 6203TIP3    H140100   0.843   2.549  15.711  0.9331  0.1601 -0.6923
 6203TIP3    H240101   0.720   2.630  15.676  0.1942 -0.4092  0.5216
 6204TIP3   OH240102   5.835   5.402   1.312 -0.0703  0.0458  0.2493
 6204TIP3    H140103   5.909   5.345   1.333 -0.5933 -0.2315  1.4489
 6204TIP3    H240104   5.860   5.487   1.347  0.5548  0.4936 -1.2180
 6205TIP3   OH240105   0.148   5.260  13.949  0.2766 -0.0655 -0.2974
 6205TIP3    H140106   0.083   5.208  13.902 -1.0616  2.1736 -1.1044
 6205TIP3    H240107   0.138   5.234  14.040  0.1124 -1.6237 -0.7205
 6206TIP3   OH240108   0.679   3.269  11.257  0.1174 -0.1777  0.1041
 6206TIP3    H140109   0.655   3.305  11.172  1.0343 -1.9298 -0.9352
 6206TIP3    H240110   0.755   3.213  11.239  0.0649 -0.9242  2.0047
 6207TIP3   OH240111   4.846   3.084  15.510  0.1282  0.3201  0.0349
 6207TIP3    H140112   4.892   3.014  15.463  0.0377 -0.9993  1.7979
 6207TIP3    H240113   4.910   3.154  15.517  0.7990 -0.2411 -0.3016
 6208TIP3   OH240114   2.542   4.087   3.593 -0.5490  0.3343 -0.3161
 6208TIP3    H140115   2.568   4.094   3.501 -0.2711  2.4743 -0.1217
 6208TIP3    H240116   2.621   4.056   3.638 -0.5236 -0.1954 -0.7166
 6209TIP3   OH240117   6.022   0.745  11.779  0.0557 -0.1209  0.3316
 6209TIP3    H140118   6.048   0.837  11.779  0.3845 -0.2084 -0.2242
 6209TIP3    H240119   6.014   0.723  11.686  1.0980 -0.9726  0.4319
 6210TIP3   OH240120   5.599   1.918  12.734 -0.0765 -0.0503 -0.3805
 6210TIP3    H140121   5.639   1.840  12.772 -0.1217 -1.1109 -2.3757
 6210TIP3    H240122   5.628   1.918  12.643  0.4008  2.6287 -0.3006
 6211TIP3   OH240123   6.738   1.980   3.707 -0.2300 -0.4670 -0.1177
 6211TIP3    H140124   6.652   1.998   3.746 -0.2014  1.2076 -0.7367
 6211TIP3    H240125   6.792   1.950   3.780 -0.1485  2.6698  1.2640
 6212TIP3   OH240126   3.771   2.338   3.956  0.1702  0.6219  0.1692
 6212TIP3    H140127   3.763   2.248   3.988 -1.9183  0.6617 -0.1560
 6212TIP3    H240128   3.802   2.387   4.033  1.4368 -0.3548  0.3187
 6213TIP3   OH240129   1.127   2.913   4.110  0.8957 -0.7721  0.2110
 6213TIP3    H140130   1.130   2.985   4.173 -1.1739 -0.0541 -0.4366
 6213TIP3    H240131   1.122   2.834   4.164 -1.8662 -0.1198  1.0758
 6214TIP3   OH240132   6.116   1.720  15.617  0.5765  0.0777 -0.3764
 6214TIP3    H140133   6.119   1.802  15.567  2.1176  0.0263 -0.4009
 6214TIP3    H240134   6.165   1.658  15.564 -1.8662 -1.3533 -1.1277
 6215TIP3   OH240135   1.744   6.047   2.686 -0.2513 -0.1225  0.5131
 6215TIP3    H140136   1.762   5.967   2.636 -3.0817 -0.0632 -0.7599
 6215TIP3    H240137   1.804   6.042   2.761  0.7375 -2.6446 -0.3366
 6216TIP3   OH240138   1.778   2.731   0.701  0.2087 -0.1183  0.3494
 6216TIP3    H140139   1.739   2.720   0.788  1.3616  0.2717  0.9425
 6216TIP3    H240140   1.872   2.737   0.718  0.3637  1.1629 -0.8094
 6217TIP3   OH240141   6.309   2.294  11.985  0.5990  0.4377  0.6447
 6217TIP3    H140142   6.304   2.327  11.895 -2.6378  0.7250  0.8351
 6217TIP3    H240143   6.379   2.228  11.981  1.2610  1.1508 -1.8069
 6218TIP3   OH240144   3.691   5.141  11.556 -0.3289  0.2262  0.2999
 6218TIP3    H140145   3.778   5.167  11.587  0.2118 -0.6775 -0.3816
 6218TIP3    H240146   3.709   5.092  11.475 -1.5858  1.3057 -0.6734
 6219TIP3   OH240147   1.165   1.249   0.615 -0.7898 -0.2312  0.2891
 6219TIP3    H140148   1.181   1.164   0.576  0.1608 -1.0381  2.2982
 6219TIP3    H240149   1.252   1.289   0.621 -0.9527  0.0023  1.2234
 6220TIP3   OH240150   0.319   4.434   0.320  0.3211  0.6322 -0.5315
 6220TIP3    H140151   0.360   4.508   0.276  1.2626 -0.2856 -1.2746
 6220TIP3    H240152   0.388   4.367   0.322  0.0868  0.4007  1.7742
 6221TIP3   OH240153   0.290   1.709   5.775 -0.5306 -0.1068 -0.2986
 6221TIP3    H140154   0.215   1.768   5.770 -2.7622 -2.8008 -1.1232
 6221TIP3    H240155   0.329   1.727   5.860 -2.5636  0.9155  0.4928
 6222TIP3   OH240156   4.709   6.027  12.238 -0.2866 -0.1634 -0.4194
 6222TIP3    H140157   4.713   5.959  12.171  0.1389  0.1445 -0.7119
 6222TIP3    H240158   4.694   5.979  12.320  0.1950 -0.6230 -0.5967
 6223TIP3   OH240159   2.509   1.514  11.032 -0.2202  0.1397 -0.6181
 6223TIP3    H140160   2.420   1.515  11.067  0.2228  1.0054  0.5571
 6223TIP3    H240161   2.539   1.424  11.046  0.1823  0.5867  2.0050
 6224TIP3   OH240162   5.717   1.091  13.480  0.1774  0.5038 -0.2770
 6224TIP3    H140163   5.671   1.120  13.401  0.0870  2.2491  0.3836
 6224TIP3    H240164   5.804   1.129  13.473  0.2358  0.5041  0.3556
 6225TIP3   OH240165   3.432   0.238   3.315  1.0455  0.0369 -0.0088
 6225TIP3    H140166   3.515   0.203   3.344  1.7256 -0.2119 -2.0879
 6225TIP3    H240167   3.450   0.277   3.229 -0.3209  2.7484  0.7797
 6226TIP3   OH240168   0.027   6.462  14.023 -0.7690 -0.5668  0.4088
 6226TIP3    H140169   0.071   6.483  13.940 -1.0133  0.8038  0.5940
 6226TIP3    H240170  -0.063   6.491  14.009 -1.0583 -1.2697  0.8091
 6227TIP3   OH240171   4.485   3.625  14.999  0.3535 -0.1151 -0.0167
 6227TIP3    H140172   4.506   3.547  15.050 -0.1815 -0.8041 -0.8344
 6227TIP3    H240173   4.475   3.694  15.064  0.3388 -0.8322  0.7572
 6228TIP3   OH240174   3.685   5.639   1.594 -0.1958 -0.2745  0.1796
 6228TIP3    H140175   3.665   5.578   1.666 -0.1102  2.2008  2.4691
 6228TIP3    H240176   3.602   5.650   1.549 -0.1021 -2.3984 -0.6149
 6229TIP3   OH240177   2.817   1.319  11.183 -0.2666  0.0892 -0.3511
 6229TIP3    H140178   2.813   1.367  11.100  1.2808  2.2303  0.7124
 6229TIP3    H240179   2.909   1.292  11.190 -0.1298  0.8363  1.0980
 6230TIP3   OH240180   5.995   5.451   4.740 -0.7437  0.7203  0.1707
 6230TIP3    H140181   5.993   5.480   4.831  0.0942  1.0236  0.1021
 6230TIP3    H240182   5.906   5.468   4.708 -0.4544  2.7529  0.2817
 6231TIP3   OH240183   6.285   5.900   4.426  0.4226  0.3568 -0.2253
 6231TIP3    H140184   6.346   5.883   4.498  1.0556 -3.8825 -1.4515
 6231TIP3    H240185   6.337   5.886   4.347 -1.8335 -3.2418 -1.3273
 6232TIP3   OH240186   3.299   4.719  13.673 -0.0172  0.2250  0.5075
 6232TIP3    H140187   3.384   4.677  13.682  0.4964  0.5110 -2.2867
 6232TIP3    H240188   3.242   4.652  13.635 -0.7594  0.3919  1.2795
 6233TIP3   OH240189   0.184   5.409   4.106 -0.7535 -0.3587 -0.2189
 6233TIP3    H140190   0.204   5.329   4.057 -0.7278 -0.3913 -0.1553
 6233TIP3    H240191   0.266   5.432   4.150 -0.1869  0.8106 -1.8114
 6234TIP3   OH240192   6.801   5.813  14.309  0.1205  0.3948  0.6017
 6234TIP3    H140193   6.784   5.794  14.216  0.2843 -0.2236  0.6958
 6234TIP3    H240194   6.737   5.881  14.331 -0.2655  0.1779  0.1729
 6235TIP3   OH240195   2.604   1.916   4.923  0.0399 -0.2084 -0.9830
 6235TIP3    H140196   2.513   1.941   4.908  0.6753  2.7729 -0.3875
 6235TIP3    H240197   2.598   1.830   4.966 -2.6422  0.9154  1.1684
 6236TIP3   OH240198   2.634   0.197   0.681  0.0896 -0.5002 -0.1782
 6236TIP3    H140199   2.695   0.133   0.718 -1.1573 -1.8207 -0.3288
 6236TIP3    H240200   2.582   0.226   0.756  1.3546  1.2545  0.1113
 6237TIP3   OH240201   4.782   0.728   5.776  0.1980 -0.0871 -0.3066
 6237TIP3    H140202   4.838   0.803   5.796  0.9627 -0.3118 -1.4663
 6237TIP3    H240203   4.699   0.747   5.820  0.2489  1.6302 -0.8700
 6238TIP3   OH240204   5.622   6.623  11.157 -0.0251  0.1489 -0.1434
 6238TIP3    H140205   5.716   6.605  11.160  0.2960  1.6802  2.1392
 6238TIP3    H240206   5.613   6.689  11.088  0.9590  1.5480  1.0019
 6239TIP3   OH240207   4.051   2.428   5.215 -0.1415  0.3197 -0.0403
 6239TIP3    H140208   4.131   2.472   5.187 -0.7007 -0.5990 -3.5790
 6239TIP3    H240209   4.082   2.352   5.264  0.9767  1.5483  1.2624
 6240TIP3   OH240210   2.660   5.506   2.065  0.2233  0.4000  0.2562
 6240TIP3    H140211   2.712   5.568   2.115 -1.3843  2.1301 -0.1158
 6240TIP3    H240212   2.624   5.446   2.131  1.4573  0.0829  0.6664
 6241TIP3   OH240213   5.359   5.846  14.189  0.0251  0.0970  0.2592
 6241TIP3    H140214   5.280   5.892  14.158 -0.1621 -0.8735 -0.7253
 6241TIP3    H240215   5.369   5.772  14.130  1.8455  0.3468  0.2140
 6242TIP3   OH240216   0.111   0.487   6.225  0.9155  0.1311  0.5055
 6242TIP3    H140217   0.091   0.471   6.318  0.7396  0.5009  0.5296
 6242TIP3    H240218   0.206   0.476   6.219  1.5624  3.8038  1.5014
 6243TIP3   OH240219   5.360   2.894   6.436 -0.0738  0.6014  0.4165
 6243TIP3    H140220   5.312   2.976   6.430  0.4991  1.0467  1.4888
 6243TIP3    H240221   5.452   2.920   6.433  0.2005  0.3444  3.3621
 6244TIP3   OH240222   0.991   6.790  13.465 -0.0543  0.0499  0.0627
 6244TIP3    H140223   1.068   6.839  13.435 -0.2896  0.9428  0.8741
 6244TIP3    H240224   1.003   6.703  13.428  1.3412  0.1726  0.1589
 6245TIP3   OH240225   0.433   1.701  11.154 -0.0469 -0.3251  0.0208
 6245TIP3    H140226   0.454   1.609  11.140 -0.4894 -0.2252 -1.5198
 6245TIP3    H240227   0.483   1.726  11.232  0.8108 -1.6117 -0.0911
 6246TIP3   OH240228   0.261   1.762   0.419  0.2484  0.6053 -0.5770
 6246TIP3    H140229   0.199   1.814   0.470  0.6733  1.5747 -1.0136
 6246TIP3    H240230   0.209   1.726   0.347 -0.4067 -0.9667  0.6309
 6247TIP3   OH240231   5.021   3.190   0.944 -0.2637  0.1566 -0.1712
 6247TIP3    H140232   5.034   3.255   0.874 -1.6234 -0.2386 -0.8168
 6247TIP3    H240233   5.107   3.184   0.987  1.2004 -0.9628 -2.9884
 6248TIP3   OH240234   5.909   2.977  14.505  0.7838 -0.2235 -0.1326
 6248TIP3    H140235   5.981   2.932  14.548  1.0509  0.2914 -0.0340
 6248TIP3    H240236   5.940   3.067  14.492 -1.2077  1.2183  3.5625
 6249TIP3   OH240237   0.497   5.681   3.516 -0.5655 -0.4554 -0.2078
 6249TIP3    H140238   0.435   5.734   3.565 -0.0133 -0.7108  0.7756
 6249TIP3    H240239   0.576   5.679   3.569  0.3370 -0.0697 -1.4870
 6250TIP3   OH240240   6.769   0.248  16.301  0.4292 -0.2083 -0.0568
 6250TIP3    H140241   6.674   0.243  16.287  0.5905  0.2450 -1.4451
 6250TIP3    H240242   6.807   0.233  16.214  1.5676  1.4984  0.1090
 6251TIP3   OH240243   3.194   1.877   3.848 -0.0913 -0.0774 -0.1064
 6251TIP3    H140244   3.192   1.809   3.780 -1.1902 -0.2632  0.0956
 6251TIP3    H240245   3.277   1.863   3.894 -0.0074 -0.8718 -0.4897
 6252TIP3   OH240246   0.799   4.083  14.423  0.6711  0.5883 -0.0248
 6252TIP3    H140247   0.869   4.034  14.380 -0.1969  1.7257 -2.9955
 6252TIP3    H240248   0.771   4.148  14.358 -1.2423  2.0613  2.0786
 6253TIP3   OH240249   3.192   0.994   1.571 -0.2368  0.3655 -0.0776
 6253TIP3    H140250   3.140   1.068   1.602 -0.3164  0.7187 -1.0086
 6253TIP3    H240251   3.259   1.034   1.516  1.5293 -0.0153  1.6900
 6254TIP3   OH240252   6.307   3.026  14.439  0.5760 -0.3615 -0.6188
 6254TIP3    H140253   6.340   2.963  14.376  0.0823 -0.0637 -1.1870
 6254TIP3    H240254   6.264   2.974  14.507  0.0880 -0.6371 -1.1329
 6255TIP3   OH240255   5.623   5.519  15.685 -0.1884 -1.1119  0.5948
 6255TIP3    H140256   5.531   5.510  15.710  0.1604 -0.7512  2.0531
 6255TIP3    H240257   5.670   5.456  15.740  0.6438 -0.0570  1.1166
 6256TIP3   OH240258   5.389   5.451  14.745 -0.0977 -0.4228  0.0838
 6256TIP3    H140259   5.478   5.474  14.771 -0.7096  0.4928  1.4718
 6256TIP3    H240260   5.333   5.494  14.809 -1.4974 -2.1045  0.0710
 6257TIP3   OH240261   2.081   1.522   4.734 -0.3109 -0.0986 -0.2100
 6257TIP3    H140262   2.131   1.480   4.665 -0.2766  0.5403 -0.5794
 6257TIP3    H240263   2.029   1.451   4.773 -0.1939 -0.4940 -0.7639
 6258TIP3   OH240264   4.227   5.951   2.671  0.6527  0.2078 -0.3527
 6258TIP3    H140265   4.264   5.869   2.637  0.2549  0.4398 -1.3879
 6258TIP3    H240266   4.261   6.019   2.612  0.1086  0.6554 -0.1617
 6259TIP3   OH240267   4.284   0.813  16.716 -0.1087  0.4998  0.1059
 6259TIP3    H140268   4.189   0.826  16.715 -0.0942  0.6985 -1.0215
 6259TIP3    H240269   4.320   0.896  16.686  0.4438  0.5317  0.8374
 6260TIP3   OH240270   6.602   3.387  16.892 -0.3819  0.7466  0.0649
 6260TIP3    H140271   6.510   3.414  16.884 -0.9320 -0.5068  1.5613
 6260TIP3    H240272   6.598   3.291  16.891  0.7464  0.6617  1.5627
 6261TIP3   OH240273   1.655   1.210   4.164  0.2501 -1.0394  0.2681
 6261TIP3    H140274   1.560   1.201   4.164  0.1525 -0.3338  1.3700
 6261TIP3    H240275   1.686   1.147   4.099 -0.8987 -2.0530  0.6633
 6262TIP3   OH240276   6.031   3.902  12.607 -0.2104  0.0979  0.0832
 6262TIP3    H140277   6.051   3.993  12.630  2.2684 -0.5154  0.6677
 6262TIP3    H240278   6.080   3.887  12.526 -2.7186 -0.0165 -1.5057
 6263TIP3   OH240279   1.119   0.109   2.844 -0.3222 -0.2439 -0.6201
 6263TIP3    H140280   1.054   0.124   2.774 -2.1145  0.8067  1.1500
 6263TIP3    H240281   1.191   0.168   2.822 -0.3587 -0.7290 -2.1420
 6264TIP3   OH240282   3.789   3.424   3.010  0.1848 -0.1025  0.1850
 6264TIP3    H140283   3.740   3.381   3.080  0.4359 -0.7887 -0.0512
 6264TIP3    H240284   3.875   3.381   3.010  0.6628  0.8212  0.3452
 6265TIP3   OH240285   4.249   6.839   0.006 -0.3296  0.3867 -0.1884
 6265TIP3    H140286   4.280   6.772   0.066 -0.6875 -1.1614 -1.6248
 6265TIP3    H240287   4.316   6.843  -0.063 -1.3026 -0.0648 -1.2049
 6266TIP3   OH240288   1.572   0.040   2.004 -0.4107  0.3147 -0.3298
 6266TIP3    H140289   1.653  -0.009   1.996 -0.0908  0.9041 -0.7764
 6266TIP3    H240290   1.503  -0.024   1.990  0.0213  0.2530 -2.4217
 6267TIP3   OH240291   6.307   1.406   5.016  0.2121  0.4699  0.4679
 6267TIP3    H140292   6.296   1.432   4.925  1.8621 -2.1248 -0.5908
 6267TIP3    H240293   6.314   1.489   5.064 -3.0545  1.9810 -1.3186
 6268TIP3   OH240294   1.514   5.923   0.367 -0.8216  0.3446 -0.3049
 6268TIP3    H140295   1.506   6.003   0.315  0.4519  0.5397 -0.2316
 6268TIP3    H240296   1.549   5.954   0.451 -1.9216 -0.0882  0.3315
 6269TIP3   OH240297   3.652   0.861  11.008  0.1658  0.9459 -0.2250
 6269TIP3    H140298   3.716   0.793  10.987 -1.2843 -0.2973 -0.8071
 6269TIP3    H240299   3.702   0.943  11.003  2.0184 -0.0576  0.7324
 6270TIP3   OH240300   3.777   1.703   6.010 -0.9990  0.5144  0.1247
 6270TIP3    H140301   3.687   1.734   6.019 -1.0045  0.5302  0.0127
 6270TIP3    H240302   3.776   1.614   6.044 -1.1748  0.3180 -0.3975
 6271TIP3   OH240303   4.015   5.553  16.905 -0.6321  0.1931  0.2275
 6271TIP3    H140304   3.922   5.563  16.928 -0.8601 -0.1868 -0.4640
 6271TIP3    H240305   4.034   5.461  16.923 -0.3631  0.3007  0.4738
 6272TIP3   OH240306   5.108   4.106  14.420 -0.0748  0.2433  0.0576
 6272TIP3    H140307   5.148   4.155  14.492 -1.2845  0.7112  0.4258
 6272TIP3    H240308   5.020   4.142  14.412 -0.2623 -0.4153 -1.0822
 6273TIP3   OH240309   5.849   5.144   1.683 -0.7798 -0.1226 -0.9140
 6273TIP3    H140310   5.934   5.187   1.694 -1.4596  1.0303  0.1415
 6273TIP3    H240311   5.842   5.087   1.760 -3.0880  3.6713  2.0724
 6274TIP3   OH240312   6.135   2.551  13.409 -0.3039 -0.2448  0.5370
 6274TIP3    H140313   6.182   2.632  13.391  0.9564 -1.2140 -0.7905
 6274TIP3    H240314   6.203   2.489  13.438 -1.1563 -0.9629  1.0597
 6275TIP3   OH240315   3.470   1.131   1.523  0.2234 -0.1108  0.3976
 6275TIP3    H140316   3.503   1.187   1.594  2.8922  2.1560 -2.3351
 6275TIP3    H240317   3.421   1.191   1.467  0.3031 -1.2546 -0.9374
 6276TIP3   OH240318   0.221   0.263  16.004 -0.1353 -0.2205 -0.3476
 6276TIP3    H140319   0.233   0.358  16.002 -1.0388 -0.1070 -0.9554
 6276TIP3    H240320   0.293   0.231  16.058 -0.6555  0.9532  1.1265
 6277TIP3   OH240321   4.652   3.907   0.171 -0.3065 -0.2802  0.4579
 6277TIP3    H140322   4.573   3.930   0.222 -0.1613 -0.9145  0.9818
 6277TIP3    H240323   4.621   3.903   0.081 -0.9884 -1.0081  0.7148
 6278TIP3   OH240324   5.884   2.518   1.160 -0.2291 -0.1803 -0.0510
 6278TIP3    H140325   5.872   2.600   1.208 -1.2804 -0.0525 -0.5024
 6278TIP3    H240326   5.810   2.464   1.184  1.2082 -1.6216  1.3811
 6279TIP3   OH240327   1.110   0.340   3.307  0.2884 -0.1317  0.1412
 6279TIP3    H140328   1.128   0.364   3.398 -1.1221 -0.4955  0.5446
 6279TIP3    H240329   1.062   0.257   3.314  1.1362 -0.7408 -0.9997
 6280TIP3   OH240330   5.214   6.574   3.224  0.4867 -0.0899 -0.0256
 6280TIP3    H140331   5.226   6.615   3.310  1.0535  0.8126 -0.5248
 6280TIP3    H240332   5.211   6.646   3.162  0.0766 -0.7332 -0.7798
 6281TIP3   OH240333   0.672   5.899   1.198  0.3215 -0.2888 -0.5924
 6281TIP3    H140334   0.630   5.979   1.229 -0.4746 -0.1524 -1.9244
 6281TIP3    H240335   0.718   5.865   1.274  0.1272  1.0795  0.1775
 6282TIP3   OH240336   0.342   3.428  11.176 -0.1934 -0.0680 -0.8797
 6282TIP3    H140337   0.265   3.441  11.232 -0.3288  1.0087 -1.2977
 6282TIP3    H240338   0.370   3.516  11.152  1.7620 -0.3782  0.0423
 6283TIP3   OH240339   2.548   1.163  17.052  0.7287 -0.4406  0.1159
 6283TIP3    H140340   2.520   1.073  17.063 -0.4287 -0.1069  0.0433
 6283TIP3    H240341   2.600   1.163  16.971  1.9309 -1.2783  0.8540
 6284TIP3   OH240342   1.492   1.551   3.672 -0.2216  0.1082  0.4290
 6284TIP3    H140343   1.456   1.638   3.687  0.7686  0.2561  2.3211
 6284TIP3    H240344   1.503   1.514   3.760  1.1530 -1.1708 -0.2247
 6285TIP3   OH240345   4.280   3.065   5.611  0.0641 -0.5561 -0.5475
 6285TIP3    H140346   4.253   2.977   5.586 -1.7619 -0.0753 -0.4595
 6285TIP3    H240347   4.213   3.122   5.572 -1.7136  0.4179  3.4114
 6286TIP3   OH240348   6.476   6.700  12.106 -0.2337  0.1909 -0.1833
 6286TIP3    H140349   6.419   6.724  12.179 -2.5514 -1.5254 -1.2856
 6286TIP3    H240350   6.429   6.731  12.028  0.1712 -1.5066 -1.1653
 6287TIP3   OH240351   0.615   2.872  14.481 -0.0968 -0.4005  0.8194
 6287TIP3    H140352   0.580   2.807  14.421 -0.1201  0.1418  0.2387
 6287TIP3    H240353   0.540   2.926  14.505  0.1063  0.0175  0.5220
 6288TIP3   OH240354   2.285   2.141   2.447 -0.3771 -0.2574 -0.3348
 6288TIP3    H140355   2.301   2.142   2.542  0.0224 -0.4255 -0.4005
 6288TIP3    H240356   2.353   2.085   2.412 -1.1116 -0.9918 -0.6173
 6289TIP3   OH240357   4.457   5.368   2.377  0.5289 -0.2015 -0.1600
 6289TIP3    H140358   4.396   5.416   2.320  2.3877  0.9578 -1.2609
 6289TIP3    H240359   4.544   5.390   2.344  1.6642 -0.4240  2.4315
 6290TIP3   OH240360   6.762   3.338  12.790  0.0304  0.0245  0.8577
 6290TIP3    H140361   6.720   3.262  12.751 -0.9574  0.6345  0.6796
 6290TIP3    H240362   6.689   3.388  12.829  0.7574  0.4252  1.7471
 6291TIP3   OH240363   0.783   0.849   4.856  0.1642  0.2414  0.1757
 6291TIP3    H140364   0.813   0.880   4.941  0.2361  0.4041  0.0908
 6291TIP3    H240365   0.713   0.910   4.832  0.7994  0.7853 -0.3270
 6292TIP3   OH240366   4.533   3.446  16.873  0.0527 -0.4559 -0.4760
 6292TIP3    H140367   4.444   3.414  16.890  0.4898 -0.2970  2.6085
 6292TIP3    H240368   4.590   3.373  16.898  0.8551  0.6272  1.0120
 6293TIP3   OH240369   6.040   2.721  11.122  0.2856 -0.7972  0.4730
 6293TIP3    H140370   5.985   2.797  11.104 -0.5094 -1.5059 -0.2389
 6293TIP3    H240371   6.129   2.752  11.110  0.1289  0.6151  2.5198
 6294TIP3   OH240372   5.750   3.767  16.013  0.1467 -0.1119  0.1453
 6294TIP3    H140373   5.720   3.686  15.973  0.9700 -0.1963 -0.3218
 6294TIP3    H240374   5.684   3.832  15.990 -0.4223 -0.6065  0.3709
 6295TIP3   OH240375   2.422   2.322  16.695  0.3933  0.2264 -0.2032
 6295TIP3    H140376   2.401   2.257  16.628  0.5873  1.1826 -1.2187
 6295TIP3    H240377   2.389   2.284  16.777  0.1651 -0.9673 -0.8270
 6296TIP3   OH240378   3.498   4.943   5.811 -0.0666 -0.1064 -0.4040
 6296TIP3    H140379   3.437   4.971   5.879 -0.5548 -1.9159 -0.0234
 6296TIP3    H240380   3.558   4.882   5.855 -0.8387 -1.8987 -1.6658
 6297TIP3   OH240381   2.728   0.747  16.243  0.2203  0.4634  0.6421
 6297TIP3    H140382   2.794   0.727  16.176  0.4283  2.0978  0.3157
 6297TIP3    H240383   2.645   0.747  16.196  0.0902 -0.6037  0.8543
 6298TIP3   OH240384   3.734   6.681   4.378 -0.6024  0.1201  0.4970
 6298TIP3    H140385   3.646   6.701   4.411  0.0320  2.9840  0.6694
 6298TIP3    H240386   3.786   6.758   4.400  1.8074 -1.2012 -0.2461
 6299TIP3   OH240387   4.198   2.286   0.680 -0.7393  0.0141 -0.0332
 6299TIP3    H140388   4.253   2.338   0.622 -0.3760  1.6468  1.6853
 6299TIP3    H240389   4.258   2.224   0.720 -0.8547 -0.6091 -0.7900
 6300TIP3   OH240390   6.701   3.125  11.191 -0.0204  0.0267 -0.4836
 6300TIP3    H140391   6.723   3.156  11.103  0.5060  0.1334 -0.3155
 6300TIP3    H240392   6.764   3.055  11.208  0.0972  0.2371 -0.0531
 6301TIP3   OH240393   1.575   4.890  12.011 -0.8043  0.4566 -0.3544
 6301TIP3    H140394   1.519   4.966  11.996 -0.7385  0.5878  0.0494
 6301TIP3    H240395   1.604   4.864  11.924  1.4651  2.6305 -0.3795
 6302TIP3   OH240396   2.348   4.627  12.620  0.0152 -0.5245 -0.0311
 6302TIP3    H140397   2.401   4.547  12.618  0.5150 -0.2291  0.7583
 6302TIP3    H240398   2.262   4.599  12.589  0.9505 -0.7436 -2.7042
 6303TIP3   OH240399   3.664   0.409   3.828  0.0449  0.1753 -0.0915
 6303TIP3    H140400   3.630   0.322   3.845  0.4822  0.0321  0.0701
 6303TIP3    H240401   3.728   0.397   3.758  0.7226  0.2270  0.5089
 6304TIP3   OH240402   1.833   3.430  12.154 -0.1131  0.0622  0.0582
 6304TIP3    H140403   1.760   3.392  12.204 -0.6683  1.5720  0.4260
 6304TIP3    H240404   1.911   3.392  12.196 -0.6356 -0.4642  0.5907
 6305TIP3   OH240405   5.225   2.814  15.706  0.3214  0.1962  0.2610
 6305TIP3    H140406   5.321   2.812  15.708  0.3545 -0.4188 -1.0564
 6305TIP3    H240407   5.202   2.770  15.625 -1.0450  1.7119 -0.2219
 6306TIP3   OH240408   0.812   5.012  13.695  0.0471  0.3932  0.0870
 6306TIP3    H140409   0.878   4.943  13.685  0.5988  1.1659 -2.4479
 6306TIP3    H240410   0.843   5.083  13.638 -1.6916  1.7994  0.8018
 6307TIP3   OH240411   0.605   2.935  12.747 -0.0857  0.4032  0.3092
 6307TIP3    H140412   0.557   3.018  12.753  1.0367  1.0505  0.5157
 6307TIP3    H240413   0.596   2.908  12.656 -1.0275  0.3913  0.3946
 6308TIP3   OH240414   2.699   4.946   2.663 -0.4997 -0.7688  0.0542
 6308TIP3    H140415   2.707   5.040   2.651 -0.0229 -0.7967  0.1047
 6308TIP3    H240416   2.650   4.916   2.586 -0.1545 -0.5468 -0.2605
 6309TIP3   OH240417   3.594   4.412   0.869  0.0516 -0.1931  0.0380
 6309TIP3    H140418   3.633   4.332   0.834  0.6032  0.2904 -0.4669
 6309TIP3    H240419   3.532   4.441   0.802  1.3469  0.9123 -0.7444
 6310TIP3   OH240420   6.677   1.049  15.145 -0.3527  0.0544  0.3310
 6310TIP3    H140421   6.707   0.966  15.181 -1.2295 -1.1551 -1.5615
 6310TIP3    H240422   6.673   1.034  15.050 -3.0310  1.3853  0.1325
 6311TIP3   OH240423   1.180   5.899  14.165  0.1004 -0.3671 -0.2716
 6311TIP3    H140424   1.275   5.898  14.154  0.1961 -1.5652  0.4740
 6311TIP3    H240425   1.152   5.810  14.142 -0.8784  0.0657 -0.8037
 6312TIP3   OH240426   2.900   0.522  16.091  0.9243  0.2714  0.3250
 6312TIP3    H140427   2.846   0.464  16.144  1.8988  0.1082  1.1817
 6312TIP3    H240428   2.857   0.525  16.006 -0.3065 -0.0060  0.9145
 6313TIP3   OH240429   2.723   4.136   2.524  0.0875  0.3301  0.4477
 6313TIP3    H140430   2.714   4.111   2.616 -0.7794 -0.5290  0.1486
 6313TIP3    H240431   2.809   4.178   2.518 -0.0551  0.8342  1.7388
 6314TIP3   OH240432   0.870   4.744  16.974 -0.5697  0.0797  0.7410
 6314TIP3    H140433   0.817   4.667  16.995  0.5429 -0.9712 -0.2031
 6314TIP3    H240434   0.839   4.771  16.888 -0.3527  0.1640  0.6901
 6315TIP3   OH240435   4.844   2.516  13.613 -0.3888  0.0404  0.2517
 6315TIP3    H140436   4.759   2.553  13.592 -0.6917  0.0210  1.3771
 6315TIP3    H240437   4.865   2.459  13.539 -1.5837 -0.3426  0.1871
 6316TIP3   OH240438   2.143   4.858  14.249 -0.0866  0.1000  0.0788
 6316TIP3    H140439   2.080   4.870  14.178 -0.4163  0.7488  0.4676
 6316TIP3    H240440   2.227   4.842  14.205 -0.5201 -0.8117 -0.4413
 6317TIP3   OH240441   5.742   6.054   5.782  0.2605  0.3115  0.1527
 6317TIP3    H140442   5.815   6.030   5.839 -0.4600  1.5811  1.6942
 6317TIP3    H240443   5.711   5.971   5.747  1.5680 -0.3775  0.5406
 6318TIP3   OH240444   1.561   1.682   1.303  0.0598 -0.1979 -0.1552
 6318TIP3    H140445   1.566   1.643   1.216  0.4114 -2.0907  0.6594
 6318TIP3    H240446   1.550   1.607   1.362 -0.4337  1.0587  1.4039
 6319TIP3   OH240447   5.090   1.718  11.329  0.4827 -0.1505  0.4689
 6319TIP3    H140448   5.106   1.658  11.402  2.3509 -1.4335 -0.8885
 6319TIP3    H240449   5.134   1.678  11.254 -1.8082  0.8102 -1.5630
 6320TIP3   OH240450   1.731   5.705   2.929 -0.3616  0.1807 -0.2022
 6320TIP3    H140451   1.643   5.711   2.891  0.2638 -1.4890 -2.0850
 6320TIP3    H240452   1.737   5.615   2.962  0.8338  0.1052 -0.6011
 6321TIP3   OH240453   1.333   2.072   0.278  0.7978  0.1877  0.1955
 6321TIP3    H140454   1.405   2.030   0.232  0.7784  0.0315  0.3055
 6321TIP3    H240455   1.320   2.019   0.357 -0.8644 -1.0813 -0.8729
 6322TIP3   OH240456   1.070   2.521   0.599  0.3511  0.4775 -0.5745
 6322TIP3    H140457   1.028   2.539   0.683 -0.3813  0.2923 -0.8922
 6322TIP3    H240458   1.015   2.455   0.558  1.2831 -0.2017 -0.7612
 6323TIP3   OH240459   1.211   4.352   0.947  0.1805 -0.3743  0.0832
 6323TIP3    H140460   1.229   4.266   0.909  0.2030  0.6791 -2.4346
 6323TIP3    H240461   1.297   4.392   0.959  0.0850 -0.0353 -0.3700
 6324TIP3   OH240462   1.063   1.534   3.440  0.5169  0.0050  0.3242
 6324TIP3    H140463   1.081   1.441   3.445  0.8047 -0.0041 -0.6097
 6324TIP3    H240464   1.050   1.562   3.531 -1.0486 -1.2212  0.5220
 6325TIP3   OH240465   6.039   4.429  15.601  0.2248 -0.0250  0.2893
 6325TIP3    H140466   6.104   4.483  15.555  0.4296  1.3357  2.0756
 6325TIP3    H240467   6.070   4.425  15.691 -1.2206 -0.9047  0.7826
 6326TIP3   OH240468   0.403   3.904  16.798 -0.3070 -0.1596 -0.6031
 6326TIP3    H140469   0.489   3.869  16.823  1.1138  1.0200 -3.4113
 6326TIP3    H240470   0.355   3.827  16.765  0.2169 -0.5921 -0.3754
 6327TIP3   OH240471   5.589   0.130   5.926 -0.3300  0.1067  1.0430
 6327TIP3    H140472   5.559   0.055   5.977 -1.4408  0.8827  1.5563
 6327TIP3    H240473   5.520   0.146   5.862  0.6215 -0.2679 -0.1239
 6328TIP3   OH240474   3.293   4.766  11.469 -0.4517  0.3018  0.1747
 6328TIP3    H140475   3.280   4.697  11.404  0.7277  0.5539 -0.3671
 6328TIP3    H240476   3.346   4.725  11.537 -0.3800  0.4660  0.2171
 6329TIP3   OH240477   1.427   3.155   5.037 -0.1078  0.6028  0.3241
 6329TIP3    H140478   1.426   3.243   5.001 -0.2864  0.3441 -0.3288
 6329TIP3    H240479   1.372   3.161   5.116  0.4411  1.2181  0.6651
 6330TIP3   OH240480   0.653   5.462  14.854 -0.4014 -0.0458  0.7844
 6330TIP3    H140481   0.737   5.461  14.807 -1.0167 -0.1781 -0.3368
 6330TIP3    H240482   0.634   5.370  14.871 -0.4866 -0.0384  0.7281
 6331TIP3   OH240483   4.414   0.396  13.962 -0.0307  0.2788  0.0077
 6331TIP3    H140484   4.332   0.397  14.011 -0.2377 -1.8228 -0.1857
 6331TIP3    H240485   4.463   0.321  13.999  0.7723  0.0461 -1.4428
 6332TIP3   OH240486   4.129   1.176   4.331 -0.4624  0.4836  0.1498
 6332TIP3    H140487   4.061   1.241   4.315 -0.3739  0.7245  0.7012
 6332TIP3    H240488   4.169   1.204   4.414  0.4397  0.4568 -0.2664
 6333TIP3   OH240489   0.453   2.444  11.612  0.2328  0.3950  0.3008
 6333TIP3    H140490   0.416   2.525  11.577 -0.2368  0.3317  0.6437
 6333TIP3    H240491   0.377   2.387  11.626  0.5912 -0.2557 -0.3126
 6334TIP3   OH240492   2.504   6.334  13.456 -0.0148 -0.3089 -0.0120
 6334TIP3    H140493   2.531   6.336  13.364  1.6831 -0.7457  0.4533
 6334TIP3    H240494   2.457   6.417  13.468  0.9596  0.4130 -0.9393
 6335TIP3   OH240495   4.050   6.333   2.312  0.2349 -0.3540  0.0305
 6335TIP3    H140496   4.128   6.388   2.321  0.2540 -0.4503  0.4887
 6335TIP3    H240497   4.032   6.333   2.219  0.8575 -0.4312 -0.0947
 6336TIP3   OH240498   5.761   2.429   5.514 -0.1853 -0.1965  0.2509
 6336TIP3    H140499   5.713   2.448   5.434  0.5559 -1.9853 -0.6629
 6336TIP3    H240500   5.746   2.506   5.569 -1.7368  0.5264 -1.0900
 6337TIP3   OH240501   4.559   6.582   1.559  0.5886 -0.2654 -0.7212
 6337TIP3    H140502   4.498   6.545   1.624 -0.2479  1.1339 -0.6609
 6337TIP3    H240503   4.520   6.558   1.475  1.0926 -1.1541 -0.7122
 6338TIP3   OH240504   2.998   3.603  11.332  0.0480 -0.3580  0.2134
 6338TIP3    H140505   2.905   3.605  11.308  0.1895 -1.6043 -0.5674
 6338TIP3    H240506   3.012   3.513  11.363  0.9290 -0.0915  0.6118
 6339TIP3   OH240507   3.378   6.410  11.697 -0.5882  0.7037 -0.7180
 6339TIP3    H140508   3.429   6.489  11.715 -0.1886  0.0198  1.4756
 6339TIP3    H240509   3.390   6.394  11.604  1.9916  1.4154 -0.5683
 6340TIP3   OH240510   5.941   2.318  14.238  0.0759 -0.0351  0.3185
 6340TIP3    H140511   5.885   2.385  14.198  1.5571  1.5516  0.7586
 6340TIP3    H240512   6.030   2.344  14.213  0.6959 -1.9842  0.3426
 6341TIP3   OH240513   1.357   2.798  11.818 -0.2085  0.2727 -0.2141
 6341TIP3    H140514   1.373   2.859  11.746 -1.3409 -1.5290 -2.0754
 6341TIP3    H240515   1.394   2.715  11.788 -0.3381 -0.4253  1.4717
 6342TIP3   OH240516   6.371   0.134   4.280 -0.6528  0.0198 -0.2385
 6342TIP3    H140517   6.295   0.114   4.334 -0.8174 -2.7380 -1.3634
 6342TIP3    H240518   6.444   0.135   4.342 -1.2865  0.6904  0.5433
 6343TIP3   OH240519   1.062   6.658   3.259  0.1603  0.4554 -0.8657
 6343TIP3    H140520   1.087   6.664   3.167 -1.0865 -0.9217 -1.3259
 6343TIP3    H240521   1.093   6.572   3.287  0.1776  0.6992 -0.1056
 6344TIP3   OH240522   4.292   5.794   2.125  0.3788 -0.1103  0.3855
 6344TIP3    H140523   4.197   5.786   2.118  0.4123 -1.8090  1.4013
 6344TIP3    H240524   4.305   5.863   2.191 -0.1442  0.0259  0.3514
 6345TIP3   OH240525   2.975   4.464  15.150 -0.8792  0.0917  0.1452
 6345TIP3    H140526   2.956   4.546  15.195 -0.1405  1.2831 -1.6216
 6345TIP3    H240527   2.961   4.483  15.058 -0.6656 -1.7768 -0.3176
 6346TIP3   OH240528   0.177   2.112  13.845  0.4184  0.3010 -0.4399
 6346TIP3    H140529   0.111   2.093  13.778 -0.3454  0.7117  0.1674
 6346TIP3    H240530   0.258   2.077  13.810 -0.0484  0.1399 -1.3933
 6347TIP3   OH240531   6.799   4.183  12.955 -0.6699  0.9970  0.1424
 6347TIP3    H140532   6.795   4.210  12.863 -0.9732  1.6625  0.3411
 6347TIP3    H240533   6.892   4.184  12.976 -0.3565 -1.4957 -0.8068
 6348TIP3   OH240534   0.045   2.386  13.574  0.0224 -0.0012 -0.0926
 6348TIP3    H140535   0.071   2.404  13.484 -2.1463 -0.4352 -0.8655
 6348TIP3    H240536  -0.016   2.457  13.596 -0.7567 -0.8080  0.4239
 6349TIP3   OH240537   1.870   2.831  11.991 -0.5283 -0.1964  0.0691
 6349TIP3    H140538   1.924   2.860  11.917  0.9407 -0.9364  0.7941
 6349TIP3    H240539   1.812   2.905  12.009  1.2977  1.2719  0.2091
 6350TIP3   OH240540   2.956   0.928   2.424 -0.6458 -0.0233 -0.4028
 6350TIP3    H140541   2.927   0.885   2.505 -0.9355 -0.2380 -0.6201
 6350TIP3    H240542   3.032   0.879   2.396  0.2284  0.8189  0.4184
 6351TIP3   OH240543   3.328   2.407   2.267  0.9306  0.1596 -0.0993
 6351TIP3    H140544   3.262   2.466   2.304  1.6334  1.0752 -0.2606
 6351TIP3    H240545   3.393   2.397   2.336  2.2429  1.8679 -1.0119
 6352TIP3   OH240546   5.095   2.919   5.792 -0.0354 -0.0985 -0.5845
 6352TIP3    H140547   5.189   2.940   5.787  0.1361 -0.1651  1.5357
 6352TIP3    H240548   5.058   2.990   5.845 -1.0517 -0.4606 -0.7988
 6353TIP3   OH240549   6.285   0.249   2.279 -0.7004  0.3988 -0.4587
 6353TIP3    H140550   6.294   0.330   2.329 -1.3040  0.5406 -0.5713
 6353TIP3    H240551   6.301   0.275   2.188  1.6591 -0.0868 -0.2448
 6354TIP3   OH240552   3.592   6.112   0.720  0.1689  1.1962  0.3417
 6354TIP3    H140553   3.641   6.142   0.644  0.6550  2.0172  0.9683
 6354TIP3    H240554   3.502   6.140   0.704 -0.4173 -1.3182 -1.3623
 6355TIP3   OH240555   3.484   4.648  12.214 -0.6837  0.3241 -0.4314
 6355TIP3    H140556   3.537   4.629  12.137 -0.9383  0.5818 -0.6749
 6355TIP3    H240557   3.499   4.574  12.273 -1.6915 -0.6663 -1.3676
 6356TIP3   OH240558   6.248   5.156   5.305 -0.3834  0.2357  0.1253
 6356TIP3    H140559   6.207   5.078   5.268  0.8441 -0.8550  0.9755
 6356TIP3    H240560   6.272   5.209   5.228  1.6803 -1.7443 -0.7170
 6357TIP3   OH240561   0.010   0.369  11.209 -0.5036 -0.4047 -0.5511
 6357TIP3    H140562  -0.028   0.446  11.251 -2.5616 -1.2935 -0.6692
 6357TIP3    H240563   0.068   0.331  11.275  1.3922  1.7831 -0.8565
 6358TIP3   OH240564   4.231   1.741   2.711  0.6471 -0.1138 -0.9390
 6358TIP3    H140565   4.243   1.795   2.789  1.0739 -3.0647  1.1862
 6358TIP3    H240566   4.144   1.766   2.678 -0.0030  0.4942  1.1001
 6359TIP3   OH240567   2.499   5.295  16.833  0.0245 -0.1125  0.1545
 6359TIP3    H140568   2.510   5.211  16.878 -0.8562  0.7088  1.9888
 6359TIP3    H240569   2.407   5.317  16.845  0.2180  1.0628 -0.3867
 6360TIP3   OH240570   2.259   2.125   1.789  0.2182 -0.2589  0.0592
 6360TIP3    H140571   2.313   2.203   1.780 -0.2631 -0.0665 -1.4094
 6360TIP3    H240572   2.260   2.106   1.883  1.7203  0.5146  0.2269
 6361TIP3   OH240573   5.278   1.379   1.409  0.3371 -0.3034 -0.2782
 6361TIP3    H140574   5.276   1.284   1.422  1.4679 -0.2841  0.1298
 6361TIP3    H240575   5.333   1.412   1.480 -0.7456  0.7659  0.1199
 6362TIP3   OH240576   5.297   6.535   5.378 -0.2767  0.4227 -0.4220
 6362TIP3    H140577   5.325   6.582   5.457 -0.1306  0.5937 -0.5754
 6362TIP3    H240578   5.257   6.603   5.323 -0.9627  0.1952 -0.2232
 6363TIP3   OH240579   2.947   5.852   2.469  0.6317  0.1211  0.1056
 6363TIP3    H140580   3.023   5.799   2.490  0.6588  0.0318 -0.2094
 6363TIP3    H240581   2.980   5.942   2.465  0.9013 -0.0094 -0.8775
 6364TIP3   OH240582   1.542   1.496  12.287 -0.5151  0.2519  0.0799
 6364TIP3    H140583   1.512   1.583  12.262 -1.1530 -0.0478 -0.2177
 6364TIP3    H240584   1.509   1.483  12.376 -1.3619 -0.1028 -0.2699
 6365TIP3   OH240585   6.512   3.399   4.455 -0.5031  0.2865  0.2812
 6365TIP3    H140586   6.439   3.353   4.414  0.7299 -0.0197 -1.7265
 6365TIP3    H240587   6.527   3.475   4.400  2.1608 -0.9275 -0.8800
 6366TIP3   OH240588   5.342   5.430   4.382 -0.2485 -0.4993 -0.4327
 6366TIP3    H140589   5.247   5.437   4.389 -0.4387 -0.8065 -2.2892
 6366TIP3    H240590   5.372   5.422   4.472 -1.8798  0.7694  0.2691
 6367TIP3   OH240591   5.227   1.154  16.976  0.7250 -0.0123  0.1499
 6367TIP3    H140592   5.294   1.219  16.957  0.6385 -0.2452 -1.0235
 6367TIP3    H240593   5.166   1.160  16.902  1.2230 -2.0612 -0.5014
 6368TIP3   OH240594   0.866   2.535  14.518  0.1529  0.0799 -0.0637
 6368TIP3    H140595   0.823   2.562  14.436 -1.0400 -1.7229 -0.1015
 6368TIP3    H240596   0.808   2.567  14.587  0.3521  0.2771  0.0117
 6369TIP3   OH240597   6.224   4.067   1.613 -0.5686 -0.3536  0.1768
 6369TIP3    H140598   6.203   3.974   1.602 -1.9159 -0.0049 -0.4072
 6369TIP3    H240599   6.290   4.084   1.545 -1.7867 -0.4430 -1.0736
 6370TIP3   OH240600   1.928   6.299   1.978  0.0473  0.1047 -0.7816
 6370TIP3    H140601   1.869   6.290   1.903  0.0631 -0.1468 -0.7663
 6370TIP3    H240602   1.915   6.219   2.028  0.9283 -0.2990 -1.1621
 6371TIP3   OH240603   1.573   0.042  10.528 -0.0744 -0.1811  0.0173
 6371TIP3    H140604   1.542   0.003  10.610 -0.2169  0.1271  0.1139
 6371TIP3    H240605   1.667   0.025  10.528  0.1623  0.9746  0.9020
 6372TIP3   OH240606   5.817   0.110   4.940  0.4403 -0.7071 -0.2051
 6372TIP3    H140607   5.832   0.199   4.907  2.0326 -1.3745 -1.4438
 6372TIP3    H240608   5.722   0.097   4.932  0.4947 -0.1080 -2.8198
 6373TIP3   OH240609   2.413   1.176   2.688  0.2886 -0.5575  0.1487
 6373TIP3    H140610   2.412   1.268   2.713 -0.6903 -0.5062 -0.0603
 6373TIP3    H240611   2.346   1.135   2.742  0.7396 -1.1579  0.2613
 6374TIP3   OH240612   3.185   2.608   4.192  0.1921  0.2041 -0.1388
 6374TIP3    H140613   3.091   2.619   4.187  0.1842  0.2509  0.0917
 6374TIP3    H240614   3.218   2.690   4.230  0.1859 -0.3133  1.0438
 6375TIP3   OH240615   3.318   0.029  12.556  0.3941 -0.0241  0.7487
 6375TIP3    H140616   3.299  -0.058  12.592 -0.6032 -0.1860 -0.0939
 6375TIP3    H240617   3.295   0.021  12.463  0.2367  1.1590  0.6771
 6376TIP3   OH240618   3.520   2.517  15.766  0.1976  0.1845  0.1508
 6376TIP3    H140619   3.484   2.482  15.685 -0.8809 -1.2803  1.2083
 6376TIP3    H240620   3.607   2.548  15.742  0.6973 -2.0447 -1.1754
 6377TIP3   OH240621   5.280   5.552  13.402 -0.1068 -0.0907 -0.2253
 6377TIP3    H140622   5.198   5.586  13.367  1.2783  1.7824 -1.9329
 6377TIP3    H240623   5.300   5.607  13.477 -0.0251  0.0247 -0.3296
 6378TIP3   OH240624   6.817   3.691   5.775 -0.7189 -0.9141  0.6217
 6378TIP3    H140625   6.821   3.596   5.779 -0.8081 -1.1627 -2.5862
 6378TIP3    H240626   6.890   3.716   5.718 -0.9425  0.9115  1.0627
 6379TIP3   OH240627   5.674   1.084   4.208  0.2163 -0.1340  0.0079
 6379TIP3    H140628   5.670   1.099   4.114  0.7939 -2.2191 -0.3887
 6379TIP3    H240629   5.623   1.005   4.223 -0.9191  0.8250  1.6610
 6380TIP3   OH240630   4.389   5.060   5.456  0.1389 -0.5168 -0.2252
 6380TIP3    H140631   4.360   5.146   5.427  1.2941  0.1650  0.5596
 6380TIP3    H240632   4.368   5.002   5.382  0.5887  0.6713 -1.3364
 6381TIP3   OH240633   6.371   4.715   4.249  0.2417 -0.5145 -0.2853
 6381TIP3    H140634   6.431   4.697   4.176  1.2261 -0.3284  0.4663
 6381TIP3    H240635   6.423   4.701   4.327 -0.1005  1.6582  0.3925
 6382TIP3   OH240636   3.291   1.824  11.763  0.0345  0.2928 -0.1330
 6382TIP3    H140637   3.237   1.866  11.695  0.0781  3.0092  1.4000
 6382TIP3    H240638   3.272   1.730  11.753 -1.4869  0.7638 -2.5659
 6383TIP3   OH240639   0.327   6.547  15.710  0.1707 -0.5293 -0.5609
 6383TIP3    H140640   0.346   6.454  15.723 -1.6241 -0.7593  0.7150
 6383TIP3    H240641   0.400   6.592  15.753 -0.6919 -1.3647  1.9837
 6384TIP3   OH240642   0.906   1.048   3.335 -0.1117  0.0941 -0.1749
 6384TIP3    H140643   0.855   1.107   3.280 -1.9607 -1.1263  0.1208
 6384TIP3    H240644   0.873   0.961   3.313  1.6533 -0.7308  0.3022
 6385TIP3   OH240645   1.712   5.797  14.501 -0.1996 -0.3362  0.2937
 6385TIP3    H140646   1.730   5.851  14.578 -0.9255  1.4827 -0.7625
 6385TIP3    H240647   1.798   5.763  14.475  0.2334  0.0852  1.1203
 6386TIP3   OH240648   3.355   4.054   1.980  0.9829  0.1427 -0.2241
 6386TIP3    H140649   3.260   4.051   1.992  0.7184  1.1319 -1.8499
 6386TIP3    H240650   3.368   4.050   1.886  2.4458  2.0256 -0.1722
 6387TIP3   OH240651   0.875   4.761  10.891 -0.1799 -0.6040  0.3185
 6387TIP3    H140652   0.969   4.745  10.892  0.1831  1.2011 -0.9465
 6387TIP3    H240653   0.845   4.723  10.809 -0.4091 -0.4555  0.3320
 6388TIP3   OH240654   0.076   2.768   0.337 -0.5303 -0.5040  0.3321
 6388TIP3    H140655   0.063   2.863   0.342  0.7412 -0.3528  1.1282
 6388TIP3    H240656   0.118   2.753   0.253 -1.1625 -0.4234 -0.0023
 6389TIP3   OH240657   3.908   6.815  15.325  0.4510 -0.2033  0.0451
 6389TIP3    H140658   3.885   6.900  15.287 -1.2701 -0.0710  1.2538
 6389TIP3    H240659   3.826   6.765  15.324  0.5805 -0.5899  2.4640
 6390TIP3   OH240660   2.802   3.570   5.474 -0.0336  0.5176 -0.4802
 6390TIP3    H140661   2.828   3.644   5.419 -1.4346  2.3121  1.1565
 6390TIP3    H240662   2.875   3.556   5.533  0.3038  0.4466 -0.9064
 6391TIP3   OH240663   1.192   1.023  16.543 -0.0521  0.1850  0.0542
 6391TIP3    H140664   1.115   1.002  16.597 -2.1017  2.5133 -1.7218
 6391TIP3    H240665   1.201   1.118  16.551  1.1852  0.2541 -1.6640
 6392TIP3   OH240666   6.062   6.206   1.556  0.6005 -0.2055 -0.5703
 6392TIP3    H140667   5.980   6.205   1.506  1.3491 -0.7895 -1.8059
 6392TIP3    H240668   6.120   6.146   1.510  1.9622  0.6945 -0.0881
 6393TIP3   OH240669   5.541   5.686   3.653  0.3679 -0.8352 -0.6206
 6393TIP3    H140670   5.483   5.623   3.696 -1.8662  1.1558 -0.5217
 6393TIP3    H240671   5.531   5.767   3.704 -0.8148  1.0458 -3.5691
 6394TIP3   OH240672   5.659   5.278  15.415  0.0366  0.1173 -0.1177
 6394TIP3    H140673   5.730   5.310  15.471 -0.7319  0.4142  0.7257
 6394TIP3    H240674   5.701   5.259  15.331  0.8239  1.8525 -0.1656
 6395TIP3   OH240675   1.988   3.302   6.099 -0.1710 -0.3082  0.4232
 6395TIP3    H140676   2.079   3.272   6.100 -0.7602 -2.3800 -0.8899
 6395TIP3    H240677   1.942   3.240   6.155 -0.8674  0.4901  0.7614
 6396TIP3   OH240678   3.726   0.670  16.661  0.1052 -0.4722  0.2868
 6396TIP3    H140679   3.758   0.754  16.695 -0.1219 -0.7801  1.3010
 6396TIP3    H240680   3.642   0.690  16.622  0.2422 -0.1513  0.1534
 6397TIP3   OH240681   5.511   3.634  12.036 -0.5575 -0.2797 -0.3186
 6397TIP3    H140682   5.492   3.642  12.130 -1.7466 -0.2495 -0.5413
 6397TIP3    H240683   5.545   3.545  12.026  1.9140  0.4950  0.4747
 6398TIP3   OH240684   6.358   3.052   3.687 -0.2999  0.0465 -0.5726
 6398TIP3    H140685   6.417   3.033   3.614  0.0858 -0.4727 -0.1366
 6398TIP3    H240686   6.324   2.966   3.713  0.2097  0.1190  0.3842
 6399TIP3   OH240687   1.530   1.715   5.120 -0.8055 -0.1713  0.0550
 6399TIP3    H140688   1.586   1.647   5.081  0.6237  0.6560  0.5919
 6399TIP3    H240689   1.474   1.743   5.048  0.0853 -0.4058 -0.7625
 6400TIP3   OH240690   5.636   1.819  17.012  0.2952  0.5484  0.3076
 6400TIP3    H140691   5.661   1.800  16.921  1.4585  2.2263  0.2229
 6400TIP3    H240692   5.719   1.837  17.056 -0.3549  0.9458  1.3979
 6401TIP3   OH240693   3.770   4.929  10.921  0.3422  0.3325  0.2209
 6401TIP3    H140694   3.810   4.997  10.867 -0.2139  0.7677  0.3420
 6401TIP3    H240695   3.728   4.977  10.993  0.2982 -0.1719  0.5349
 6402TIP3   OH240696   1.022   5.220  16.814  0.3523 -0.0349 -0.8029
 6402TIP3    H140697   0.948   5.246  16.758  1.8777  0.0251 -2.9263
 6402TIP3    H240698   1.003   5.129  16.837  0.1334 -0.4029 -2.3024
 6403TIP3   OH240699   4.761   4.150   2.779 -0.6952  0.1089 -0.0350
 6403TIP3    H140700   4.838   4.206   2.768 -0.9800  0.1254 -2.4127
 6403TIP3    H240701   4.771   4.081   2.714 -2.7225  0.1836 -0.4972
 6404TIP3   OH240702   3.284   6.836   4.417  0.3271 -0.1596  0.3170
 6404TIP3    H140703   3.228   6.844   4.339  1.6098  0.3192 -0.5904
 6404TIP3    H240704   3.297   6.927   4.447 -0.7234 -0.3818  1.5397
 6405TIP3   OH240705   5.375   2.444   4.487  0.7105  0.3801  0.6172
 6405TIP3    H140706   5.352   2.355   4.461  0.1758 -0.0478  2.4057
 6405TIP3    H240707   5.458   2.435   4.534  0.4021  0.7438  1.2431
 6406TIP3   OH240708   5.480   3.350  12.475 -0.1621 -0.1042 -0.3107
 6406TIP3    H140709   5.519   3.283  12.531  0.4019 -1.5421 -2.3158
 6406TIP3    H240710   5.419   3.303  12.419 -1.3528  1.4150 -0.3631
 6407TIP3   OH240711   4.386   6.239  15.711 -0.4566  0.0701 -0.1375
 6407TIP3    H140712   4.319   6.224  15.777  0.3194  1.3312  0.9825
 6407TIP3    H240713   4.396   6.154  15.667 -2.9507 -0.0858 -0.5456
 6408TIP3   OH240714   2.931   2.572   1.089  0.4639  0.1494 -0.5060
 6408TIP3    H140715   2.933   2.557   1.184 -0.4614 -0.6610 -0.5967
 6408TIP3    H240716   2.838   2.573   1.067  0.6063  2.0460 -1.1718
 6409TIP3   OH240717   6.286   0.718  10.546 -0.4526  0.2255 -0.2875
 6409TIP3    H140718   6.368   0.747  10.506  0.1471 -1.2894 -0.2145
 6409TIP3    H240719   6.222   0.720  10.475 -0.4324  1.6719 -0.2819
 6410TIP3   OH240720   0.351   0.859   5.575  0.5264  0.3990 -0.2727
 6410TIP3    H140721   0.378   0.937   5.623 -1.3520  0.6485  0.4476
 6410TIP3    H240722   0.287   0.816   5.631 -0.6473 -0.0965 -1.9061
 6411TIP3   OH240723   6.008   4.647  12.342  0.6378  0.4773  0.1573
 6411TIP3    H140724   5.973   4.641  12.431 -2.1992 -0.6525 -0.9342
 6411TIP3    H240725   5.998   4.559  12.306 -0.4834  1.4313 -2.0330
 6412TIP3   OH240726   5.046   0.942  17.075  0.2071 -0.0915 -0.3997
 6412TIP3    H140727   5.101   1.019  17.087  0.6013 -0.2528 -1.0995
 6412TIP3    H240728   5.039   0.903  17.162 -1.5187  1.7286  0.3596
 6413TIP3   OH240729   2.903   1.075   1.097 -0.0048 -0.1617  0.3861
 6413TIP3    H140730   2.874   1.057   1.008  1.0213  0.6672 -0.1370
 6413TIP3    H240731   2.828   1.052   1.152 -0.3414 -1.5199 -0.6029
 6414TIP3   OH240732   1.964   4.721  12.632  0.6187  0.5706  0.5833
 6414TIP3    H140733   1.963   4.672  12.549 -0.2094 -0.3388  1.1021
 6414TIP3    H240734   1.875   4.756  12.640 -0.5456 -2.4279  2.7887
 6415TIP3   OH240735   3.807   3.778  11.004 -0.4897  0.4750  0.3598
 6415TIP3    H140736   3.855   3.713  10.952 -3.5222 -1.6393 -0.0561
 6415TIP3    H240737   3.756   3.827  10.940 -2.1907 -0.3177  1.0582
 6416TIP3   OH240738   1.852   1.685  16.512 -0.3140  0.1739 -0.3509
 6416TIP3    H140739   1.857   1.675  16.417 -0.4683 -0.7711 -0.2725
 6416TIP3    H240740   1.843   1.596  16.545 -0.6665  0.5216  0.5311
 6417TIP3   OH240741   5.252   0.810   6.033  0.7430 -0.1724  0.2097
 6417TIP3    H140742   5.200   0.887   6.057  1.6565 -0.3313  3.0983
 6417TIP3    H240743   5.242   0.802   5.938 -2.3401  1.3252  0.3008
 6418TIP3   OH240744   1.288   2.243  16.759 -0.1774 -0.2581  0.2505
 6418TIP3    H140745   1.319   2.238  16.669  1.4069 -0.9873  0.8083
 6418TIP3    H240746   1.266   2.335  16.772 -0.6207 -0.1771 -0.9258
 6419TIP3   OH240747   0.615   5.059   4.259  0.4950 -0.0444 -0.6131
 6419TIP3    H140748   0.626   5.015   4.343  1.5810 -0.9866 -1.2112
 6419TIP3    H240749   0.554   5.002   4.211  0.4435  0.1041 -0.7230
 6420TIP3   OH240750   4.093   3.524  14.830 -0.4100  0.0657 -0.6511
 6420TIP3    H140751   4.120   3.458  14.766 -0.5703 -0.4242 -0.2239
 6420TIP3    H240752   4.025   3.574  14.786 -1.3672 -1.0276 -0.4576
 6421TIP3   OH240753   5.686   5.628   1.926  0.1952  0.2484 -0.1717
 6421TIP3    H140754   5.771   5.585   1.933 -0.8128 -1.7925  0.2906
 6421TIP3    H240755   5.649   5.596   1.844 -1.0494 -0.7556  0.7256
 6422TIP3   OH240756   1.202   1.408  16.316 -0.1737 -0.1412 -0.6223
 6422TIP3    H140757   1.225   1.341  16.380  1.0374  0.5982 -0.2443
 6422TIP3    H240758   1.206   1.490  16.365 -0.6864  0.3013 -1.3021
 6423TIP3   OH240759   6.087   5.378   4.079  0.3104  0.1283 -0.2770
 6423TIP3    H140760   6.075   5.408   3.989  0.0340 -1.1051 -0.6703
 6423TIP3    H240761   6.068   5.455   4.133 -0.3760  0.6555 -1.2410
 6424TIP3   OH240762   3.519   4.484  12.652  0.1534  0.4712 -0.1796
 6424TIP3    H140763   3.562   4.399  12.643 -0.7382  0.1063 -1.2275
 6424TIP3    H240764   3.570   4.542  12.596  1.6375  1.0111  1.6423
 6425TIP3   OH240765   0.877   6.717   5.134  0.0745 -0.3356 -0.5802
 6425TIP3    H140766   0.952   6.694   5.078  0.9981  0.6966  0.1954
 6425TIP3    H240767   0.912   6.716   5.223 -0.9543 -0.2903 -0.1655
 6426TIP3   OH240768   2.048   2.223  13.124  0.3018 -0.4431  0.6086
 6426TIP3    H140769   2.062   2.273  13.044  1.2539 -1.1218  0.3296
 6426TIP3    H240770   2.090   2.275  13.192  0.3336 -0.3235  0.4993
 6427TIP3   OH240771   0.985   0.789  15.044  0.4069  0.1859 -0.3717
 6427TIP3    H140772   1.015   0.784  14.953  2.0127 -1.2990  0.1785
 6427TIP3    H240773   1.041   0.728  15.091 -0.4963  0.7941  1.6125
 6428TIP3   OH240774   1.612   5.637   5.183 -0.1286 -0.6818 -0.6345
 6428TIP3    H140775   1.666   5.695   5.236 -0.5465 -0.5172 -0.3763
 6428TIP3    H240776   1.616   5.674   5.095 -1.5399  0.6151 -0.2059
 6429TIP3   OH240777   4.174   4.538   1.397  0.2233  0.2415  0.3045
 6429TIP3    H140778   4.215   4.459   1.433 -0.5153  0.2230  1.1464
 6429TIP3    H240779   4.142   4.585   1.475 -0.0396  0.9805 -0.2409
 6430TIP3   OH240780   2.496   1.965  15.053 -0.3248  0.0991 -0.5686
 6430TIP3    H140781   2.469   2.052  15.025 -1.4165  0.1075  0.3980
 6430TIP3    H240782   2.564   1.981  15.118  1.2293  0.1218 -2.1426
 6431TIP3   OH240783   3.625   3.342   1.565  0.1958 -0.1278  0.6114
 6431TIP3    H140784   3.561   3.271   1.567 -1.0394  0.9582  0.5825
 6431TIP3    H240785   3.584   3.410   1.512  0.7990  1.1262  1.7125
 6432TIP3   OH240786   0.593   3.097  10.889  0.4063 -0.1418  0.2413
 6432TIP3    H140787   0.621   3.057  10.806  0.5769  0.4042  0.0285
 6432TIP3    H240788   0.551   3.179  10.863 -0.6851 -0.5601  0.6171
 6433TIP3   OH240789   5.440   1.151   5.629  0.0364  0.3778 -0.0612
 6433TIP3    H140790   5.510   1.158   5.694  0.1850  0.4900 -0.2350
 6433TIP3    H240791   5.457   1.222   5.567 -0.1326  0.2982 -0.2000
 6434TIP3   OH240792   0.996   1.424   4.643 -0.5816 -0.5107  0.1641
 6434TIP3    H140793   1.057   1.406   4.572 -0.7313  0.8095 -0.3186
 6434TIP3    H240794   1.052   1.450   4.716 -0.4577 -1.4268  0.4141
 6435TIP3   OH240795   2.868   6.477   0.086  0.2991 -0.2255 -0.4025
 6435TIP3    H140796   2.934   6.468   0.017 -0.9337  0.6889 -1.7865
 6435TIP3    H240797   2.803   6.536   0.048 -1.8367 -1.8775  0.5053
 6436TIP3   OH240798   0.599   0.651  13.586 -0.0774  0.3446 -0.1424
 6436TIP3    H140799   0.568   0.658  13.496  0.0696 -0.4867 -0.2656
 6436TIP3    H240800   0.546   0.581  13.624 -0.0651  0.6189  0.3878
 6437TIP3   OH240801   6.652   1.473   5.571 -0.3055 -0.2444 -0.3875
 6437TIP3    H140802   6.612   1.517   5.495 -0.0415  0.2492 -0.2456
 6437TIP3    H240803   6.586   1.480   5.640 -2.0277 -3.6834 -1.4652
 6438TIP3   OH240804   5.454   3.848  13.038 -0.1532 -0.3115 -0.5559
 6438TIP3    H140805   5.504   3.928  13.018  1.2953 -1.2627 -0.8967
 6438TIP3    H240806   5.495   3.780  12.984 -1.0596 -1.3926  0.0759
 6439TIP3   OH240807   2.972   4.901   3.369  0.2220 -0.2044 -0.6540
 6439TIP3    H140808   2.934   4.923   3.454  0.7080  0.3977 -0.5876
 6439TIP3    H240809   3.059   4.867   3.390  0.5821  0.5275 -0.9487
 6440TIP3   OH240810   3.881   3.164  15.223 -0.2257 -0.3838 -0.5720
 6440TIP3    H140811   3.842   3.244  15.187  0.7657 -0.0128 -0.8458
 6440TIP3    H240812   3.807   3.115  15.260 -0.9711  0.1950 -1.2875
 6441TIP3   OH240813   0.549   1.626   6.254  0.0399 -0.6505 -0.0761
 6441TIP3    H140814   0.502   1.676   6.187 -1.2193  0.3331  1.4655
 6441TIP3    H240815   0.641   1.633   6.229 -0.4638 -2.1805 -2.8968
 6442TIP3   OH240816   6.580   0.085   0.163 -0.2903 -0.4786 -0.3422
 6442TIP3    H140817   6.641   0.040   0.104  0.5733 -0.3737  0.4444
 6442TIP3    H240818   6.563   0.021   0.232  1.2552  0.4812  0.9989
 6443TIP3   OH240819   5.341   3.703  13.802 -0.1695 -0.2374 -0.1817
 6443TIP3    H140820   5.320   3.611  13.784  0.8069 -0.1486 -1.9900
 6443TIP3    H240821   5.428   3.715  13.765  0.4182  1.0093  1.5344
 6444TIP3   OH240822   3.770   5.408  15.764  0.1803 -0.2491 -0.1031
 6444TIP3    H140823   3.719   5.332  15.793 -0.6945  0.0825 -0.7427
 6444TIP3    H240824   3.820   5.435  15.841 -0.5342 -0.6404  0.5042
 6445TIP3   OH240825   3.155   3.757   0.461  0.5024  0.1193 -0.3672
 6445TIP3    H140826   3.113   3.826   0.512 -0.9280 -1.3906  0.5865
 6445TIP3    H240827   3.155   3.790   0.371 -0.3271  1.2583  0.0350
 6446TIP3   OH240828   0.914   3.293  14.795 -0.0815  0.3856  0.1346
 6446TIP3    H140829   0.966   3.371  14.777 -1.1578  1.3714  1.1053
 6446TIP3    H240830   0.856   3.285  14.720 -0.5017  1.0016  0.3839
 6447TIP3   OH240831   3.948   1.808   2.885 -0.1651  0.2835 -0.8500
 6447TIP3    H140832   4.022   1.869   2.877  1.2649 -1.1194  0.9014
 6447TIP3    H240833   3.879   1.859   2.928  1.5403  0.3596  2.0030
 6448TIP3   OH240834   0.291   1.164   1.634  0.4823 -0.0205 -0.1959
 6448TIP3    H140835   0.198   1.153   1.614  0.7550 -2.4884 -0.4521
 6448TIP3    H240836   0.293   1.203   1.721 -0.7523  1.3447 -0.7473
 6449TIP3   OH240837   5.279   3.153   5.521 -0.2791  0.2208  0.3765
 6449TIP3    H140838   5.331   3.233   5.522 -0.8660  0.6344 -0.8894
 6449TIP3    H240839   5.215   3.166   5.451 -1.8801 -0.4105  1.6430
 6450TIP3   OH240840   0.922   5.708   5.501  0.1159  0.4246  1.0789
 6450TIP3    H140841   0.914   5.726   5.407 -0.9020  0.1950  1.1103
 6450TIP3    H240842   1.015   5.724   5.520  0.3979  0.2330 -0.0109
 6451TIP3   OH240843   6.112   1.654   2.814  0.2161  0.3224  0.1400
 6451TIP3    H140844   6.203   1.664   2.839 -0.0868  0.8015  1.0728
 6451TIP3    H240845   6.075   1.594   2.879 -0.5851  1.6182  0.9108
 6452TIP3   OH240846   4.264   2.398  10.327 -1.0858  0.0910 -0.5990
 6452TIP3    H140847   4.279   2.322  10.384 -1.7278 -0.1789 -0.7827
 6452TIP3    H240848   4.345   2.449  10.334  0.6467 -2.1104 -2.7914
 6453TIP3   OH240849   3.597   5.320   1.798  0.1323 -0.0352 -0.4791
 6453TIP3    H140850   3.686   5.301   1.826 -0.0360  0.3140  0.3323
 6453TIP3    H240851   3.604   5.340   1.705  1.1012  1.2489 -0.1494
 6454TIP3   OH240852   6.358   4.387  13.761  0.1594 -0.1683 -0.0266
 6454TIP3    H140853   6.344   4.481  13.769 -0.5168 -0.2666 -0.0310
 6454TIP3    H240854   6.281   4.354  13.715  1.6678 -0.3197 -2.7138
 6455TIP3   OH240855   4.851   6.845  10.589  0.1779  0.2500  0.5514
 6455TIP3    H140856   4.789   6.796  10.535  0.8567 -0.7588  0.6489
 6455TIP3    H240857   4.798   6.911  10.633 -1.2503 -1.8693  2.2070
 6456TIP3   OH240858   1.969   0.201  12.142 -0.5508  0.3174 -0.0315
 6456TIP3    H140859   1.901   0.156  12.191  0.0234  0.1760  0.6445
 6456TIP3    H240860   2.050   0.154  12.162 -0.3844 -0.1631 -1.6421
 6457TIP3   OH240861   6.656   5.666   2.449  0.8224 -0.3408 -0.2278
 6457TIP3    H140862   6.691   5.580   2.470  1.0741  0.0774  1.1522
 6457TIP3    H240863   6.590   5.682   2.516 -0.1976 -0.0160 -1.2686
 6458TIP3   OH240864   2.054   6.083   4.141 -0.3569 -0.1026 -0.2868
 6458TIP3    H140865   2.020   6.042   4.062 -0.5798  0.1744 -0.3346
 6458TIP3    H240866   2.128   6.136   4.111 -1.5231  1.4277 -0.5931
 6459TIP3   OH240867   2.159   1.447  12.314 -0.0769 -0.6382 -0.6038
 6459TIP3    H140868   2.106   1.452  12.235  0.7571 -2.4339 -1.3218
 6459TIP3    H240869   2.235   1.501  12.296 -0.3152 -0.3283 -0.6812
 6460TIP3   OH240870   5.833   0.827  11.211 -0.3723 -0.0530  0.1569
 6460TIP3    H140871   5.833   0.737  11.245  2.6148 -0.0195  0.5101
 6460TIP3    H240872   5.872   0.879  11.280 -1.5709  1.4739 -0.2617
 6461TIP3   OH240873   5.512   5.067   6.536 -0.0667  0.1284  0.4624
 6461TIP3    H140874   5.577   5.121   6.492  0.0021 -0.3456 -0.0290
 6461TIP3    H240875   5.563   4.997   6.577 -0.0734  0.8373  1.7382
 6462TIP3   OH240876   1.381   6.833   4.912  0.1170  0.5195 -0.4736
 6462TIP3    H140877   1.336   6.789   4.840  0.7163 -0.7758 -0.1013
 6462TIP3    H240878   1.474   6.818   4.894  0.2628 -1.1593  1.2989
 6463TIP3   OH240879   1.997   3.763   3.737  0.1683  0.1708  0.2398
 6463TIP3    H140880   1.925   3.752   3.675  3.0422  0.7552 -3.5821
 6463TIP3    H240881   1.958   3.745   3.823 -4.1532 -0.7181 -1.6471
 6464TIP3   OH240882   3.773   6.725  12.032 -0.3465 -0.0329  0.0204
 6464TIP3    H140883   3.791   6.634  12.006  0.2110 -0.2693  1.1599
 6464TIP3    H240884   3.697   6.750  11.980 -2.1612 -2.0591  1.4772
 6465TIP3   OH240885   1.351   1.262   1.895  0.7382  0.4759 -0.1316
 6465TIP3    H140886   1.436   1.276   1.855  0.9031 -1.2929 -0.4392
 6465TIP3    H240887   1.288   1.283   1.826  0.9639  0.0463 -0.4699
 6466TIP3   OH240888   4.911   4.742   2.621  0.1943  0.4460  0.1018
 6466TIP3    H140889   4.883   4.708   2.536 -0.1056 -2.7833  1.3774
 6466TIP3    H240890   4.998   4.706   2.635 -0.5996 -0.8906  2.0355
 6467TIP3   OH240891   5.169   6.625  12.222  0.6535  0.1073  0.2431
 6467TIP3    H140892   5.085   6.586  12.248  0.9297 -1.5310 -1.1964
 6467TIP3    H240893   5.169   6.622  12.126  0.9393  3.2360  0.0330
 6468TIP3   OH240894   5.172   4.485   6.489 -0.1537  0.3750  0.0092
 6468TIP3    H140895   5.215   4.445   6.413 -0.0555  0.6894 -0.0992
 6468TIP3    H240896   5.165   4.413   6.552  0.2739  0.2476 -0.0819
 6469TIP3   OH240897   1.529   0.036   2.936  0.6411 -0.8672  0.1601
 6469TIP3    H140898   1.614  -0.007   2.926  0.5173 -1.2748  0.7835
 6469TIP3    H240899   1.516   0.084   2.854  3.3108  2.5214  1.4692
 6470TIP3   OH240900   1.138   6.537  16.797  0.4141 -0.0074  0.4451
 6470TIP3    H140901   1.118   6.460  16.744  1.2558 -0.9939  1.5101
 6470TIP3    H240902   1.054   6.561  16.837 -0.0616  0.2725 -0.6860
 6471TIP3   OH240903   2.942   3.192   1.639  0.3134  0.1230 -0.0476
 6471TIP3    H140904   2.886   3.191   1.561  2.8209 -0.7512 -1.9716
 6471TIP3    H240905   2.893   3.141   1.704 -1.7368  0.6396 -1.0713
 6472TIP3   OH240906   4.919   6.729  11.209 -0.1166  0.1224 -0.4182
 6472TIP3    H140907   4.977   6.806  11.208 -1.7722  1.4179 -1.3868
 6472TIP3    H240908   4.876   6.733  11.294  0.2653 -0.1259 -0.2078
 6473TIP3   OH240909   0.569   5.749   2.241 -0.0327  0.2673  0.2504
 6473TIP3    H140910   0.639   5.690   2.212 -2.1671 -2.0904 -0.3931
 6473TIP3    H240911   0.508   5.692   2.287 -0.4875  2.6422  2.8541
 6474TIP3   OH240912   2.897   4.840  13.591  0.0387  0.2778  0.6610
 6474TIP3    H140913   2.961   4.911  13.585 -1.5322  1.9720  2.6802
 6474TIP3    H240914   2.946   4.767  13.629  1.0310  1.1890  1.1807
 6475TIP3   OH240915   3.078   0.277  12.186 -1.0166  0.0030 -0.2205
 6475TIP3    H140916   3.160   0.317  12.218 -1.5338  2.2087 -1.4267
 6475TIP3    H240917   3.030   0.255  12.266 -0.5500  1.6164  0.5588
 6476TIP3   OH240918   0.644   2.574   3.699  0.0652  0.9489 -0.3725
 6476TIP3    H140919   0.640   2.577   3.795  3.0727 -0.2798 -0.0752
 6476TIP3    H240920   0.619   2.485   3.677  1.0599  0.7023 -0.5431
 6477TIP3   OH240921   5.951   3.565   1.289  0.1417  0.8676  0.1238
 6477TIP3    H140922   5.967   3.612   1.207  0.3474 -0.5138 -0.6439
 6477TIP3    H240923   5.875   3.609   1.327 -1.2178  0.2873 -1.7926
 6478TIP3   OH240924   1.094   2.701   3.534 -0.5291 -0.3390 -0.3951
 6478TIP3    H140925   1.094   2.723   3.627  0.7910  0.4264 -0.5486
 6478TIP3    H240926   1.115   2.608   3.531  0.9002 -0.0429  0.0302
 6479TIP3   OH240927   3.877   1.305   3.575  0.3175 -0.0213 -0.1502
 6479TIP3    H140928   3.786   1.335   3.582 -0.6938 -2.5095 -1.2642
 6479TIP3    H240929   3.875   1.216   3.610  2.5102  0.0936  0.4121
 6480TIP3   OH240930   1.194   6.176   4.605 -0.7153 -0.3635  0.2078
 6480TIP3    H140931   1.241   6.250   4.643 -1.6494  1.3667 -1.7960
 6480TIP3    H240932   1.250   6.146   4.534 -2.1485  1.2144 -1.6934
 6481TIP3   OH240933   3.568   3.673   2.271  0.3022 -0.1186 -0.4370
 6481TIP3    H140934   3.612   3.600   2.314 -1.0851 -0.7198  0.0065
 6481TIP3    H240935   3.499   3.633   2.220  0.6016  0.7679 -1.5808
 6482TIP3   OH240936   2.821   5.889   0.270  0.4027 -0.1705 -0.0163
 6482TIP3    H140937   2.910   5.911   0.242 -0.1475  1.7974 -0.3936
 6482TIP3    H240938   2.767   5.904   0.193 -0.1392 -2.7464 -0.2267
 6483TIP3   OH240939   2.910   2.027   5.400  0.4595 -0.3394 -0.1533
 6483TIP3    H140940   2.949   1.981   5.325 -0.1592 -0.7243 -0.2422
 6483TIP3    H240941   2.822   2.050   5.371 -0.2017 -1.5041  0.8444
 6484TIP3   OH240942   4.420   6.587  12.897 -0.1254  0.2676 -0.1721
 6484TIP3    H140943   4.450   6.591  12.806 -2.3853 -0.8236 -1.0132
 6484TIP3    H240944   4.341   6.641  12.899  1.3529  2.6355  1.8771
 6485TIP3   OH240945   2.273   3.820  15.205  1.2016 -0.2022  0.3165
 6485TIP3    H140946   2.346   3.853  15.153  1.7347  0.2026  1.2999
 6485TIP3    H240947   2.311   3.799  15.290  0.6915 -2.4327  0.0696
 6486TIP3   OH240948   2.518   3.518   0.823 -0.0347 -0.0807 -0.0262
 6486TIP3    H140949   2.573   3.561   0.888  0.8778  0.0464 -0.8622
 6486TIP3    H240950   2.533   3.424   0.838 -0.3153 -0.0678  0.3513
 6487TIP3   OH240951   3.708   0.026  12.832 -0.4652 -0.1904  0.1873
 6487TIP3    H140952   3.771   0.081  12.878  0.8229 -1.3720 -0.0888
 6487TIP3    H240953   3.626   0.076  12.834  0.7914  2.0443 -0.6613
 6488TIP3   OH240954   1.027   0.876  10.998  0.6224 -0.0994 -0.2284
 6488TIP3    H140955   1.053   0.785  11.001  0.3096 -0.4385 -3.6326
 6488TIP3    H240956   1.093   0.919  10.943 -0.4048  1.2279 -0.5019
 6489TIP3   OH240957   1.628   0.589  11.667 -0.5986 -0.6732 -0.1711
 6489TIP3    H140958   1.684   0.517  11.699 -2.3518 -1.9125  0.2883
 6489TIP3    H240959   1.647   0.594  11.574  0.5256 -0.8258  0.0328
 6490TIP3   OH240960   4.207   5.763  12.786  0.1915 -0.1612 -0.0917
 6490TIP3    H140961   4.248   5.677  12.776 -1.4351 -0.8940 -0.8369
 6490TIP3    H240962   4.184   5.790  12.697 -0.2819  0.5472  0.2315
 6491TIP3   OH240963   0.006   6.455   1.332  0.2577 -0.3288  0.3726
 6491TIP3    H140964   0.074   6.483   1.393 -0.8903  1.9961  0.7099
 6491TIP3    H240965  -0.058   6.409   1.386  0.8528 -1.2344  0.3124
 6492TIP3   OH240966   5.793   3.397   6.705 -0.3309 -0.5199  0.0726
 6492TIP3    H140967   5.763   3.408   6.796  0.8090 -0.2618  0.4373
 6492TIP3    H240968   5.713   3.384   6.655 -1.1325  1.0713  0.8582
 6493TIP3   OH240969   6.462   2.984  11.371 -0.0898 -0.0518 -0.0429
 6493TIP3    H140970   6.469   3.059  11.312 -1.1362 -0.0521 -0.1810
 6493TIP3    H240971   6.504   2.912  11.324  2.4580  0.7974  0.7755
 6494TIP3   OH240972   3.978   1.451  11.903  0.2749  0.1923  0.0003
 6494TIP3    H140973   3.943   1.392  11.836 -0.5501  0.5071  0.1383
 6494TIP3    H240974   3.977   1.537  11.861  1.7043  0.0930 -0.2861
 6495TIP3   OH240975   4.058   0.293   3.111  0.5380  0.3233  0.2278
 6495TIP3    H140976   3.975   0.339   3.123 -0.8604 -1.8090 -0.6719
 6495TIP3    H240977   4.122   0.346   3.158 -1.3413  1.9752  1.0633
 6496TIP3   OH240978   3.011   0.193   5.996 -0.2749  0.3377  0.0771
 6496TIP3    H140979   3.021   0.109   6.040  2.5744  0.3846 -0.2776
 6496TIP3    H240980   2.977   0.252   6.063 -1.7678 -0.9376  0.4837
 6497TIP3   OH240981   6.801   5.641   1.257 -0.4164  0.1396  0.2499
 6497TIP3    H140982   6.862   5.620   1.328  0.2355 -1.3735 -0.7152
 6497TIP3    H240983   6.844   5.712   1.209 -1.0264  1.4231  1.5285
 6498TIP3   OH240984   2.425   4.234   5.740  0.0377 -0.0267  0.2989
 6498TIP3    H140985   2.430   4.153   5.790 -3.2641 -0.5534  0.0460
 6498TIP3    H240986   2.422   4.303   5.806 -0.2500 -0.3939  0.6813
 6499TIP3   OH240987   1.879   5.076   5.120 -0.4844 -0.4749 -0.4796
 6499TIP3    H140988   1.944   5.145   5.112 -1.1276  0.0506 -1.3916
 6499TIP3    H240989   1.844   5.086   5.209  0.6780 -0.7865  0.0270
 6500TIP3   OH240990   6.623   6.042  15.344  0.6212 -0.5278  0.9328
 6500TIP3    H140991   6.616   5.963  15.397  0.8174 -0.5153  0.9762
 6500TIP3    H240992   6.699   6.088  15.378  0.5707 -0.3722  0.8374
 6501TIP3   OH240993   5.383   3.500   3.662  0.1724 -0.1192 -0.3503
 6501TIP3    H140994   5.338   3.517   3.745 -0.1827 -1.2600 -0.3010
 6501TIP3    H240995   5.466   3.547   3.670  1.0286 -1.8438  1.4856
 6502TIP3   OH240996   3.560   5.152   2.192  0.3476  0.0078 -0.1613
 6502TIP3    H140997   3.564   5.057   2.194  0.8751 -0.0015 -0.9221
 6502TIP3    H240998   3.617   5.180   2.264  1.0061 -0.2553 -0.5679
 6503TIP3   OH240999   2.385   0.389   3.807  0.5011 -0.0225 -0.5407
 6503TIP3    H141000   2.312   0.447   3.826  0.7777  0.0648  0.3236
 6503TIP3    H241001   2.415   0.359   3.893  1.3178 -0.2523 -0.8901
 6504TIP3   OH241002   0.826   3.808   5.203 -0.0972  0.9091 -0.8449
 6504TIP3    H141003   0.856   3.869   5.136 -0.0869  0.3445 -1.3615
 6504TIP3    H241004   0.837   3.722   5.164  0.7604  0.5052  0.2178
 6505TIP3   OH241005   2.448   2.707   3.046  0.0688 -0.7691  0.0028
 6505TIP3    H141006   2.483   2.711   2.957 -0.0803 -2.3346 -0.1516
 6505TIP3    H241007   2.508   2.762   3.097  0.6924 -0.5859 -0.8848
 6506TIP3   OH241008   6.645   0.425   1.466 -0.3668  0.6048  0.3347
 6506TIP3    H141009   6.679   0.367   1.398  0.0421  0.0168  1.0271
 6506TIP3    H241010   6.720   0.442   1.523 -0.5780  1.5019  0.3686
 6507TIP3   OH241011   6.301   1.165  14.580  0.0816  0.0443 -0.3788
 6507TIP3    H141012   6.240   1.238  14.568 -0.5238 -0.5318 -0.9276
 6507TIP3    H241013   6.279   1.104  14.509 -0.5152 -1.4149  0.9933
 6508TIP3   OH241014   1.074   0.308  15.231  0.1299 -0.4209 -0.4789
 6508TIP3    H141015   1.044   0.229  15.187  2.7605 -1.2000 -0.9912
 6508TIP3    H241016   1.109   0.277  15.315  0.3201  0.3328 -0.2697
 6509TIP3   OH241017   0.433   1.455  10.895 -0.1119 -0.5760  0.2890
 6509TIP3    H141018   0.339   1.441  10.901 -0.3362  1.1070  1.1519
 6509TIP3    H241019   0.460   1.402  10.820 -2.0684  0.4315 -1.2285
 6510TIP3   OH241020   2.588   5.025  16.940 -0.5172 -0.5882 -0.1800
 6510TIP3    H141021   2.521   4.958  16.945  1.3878 -2.5429  0.5003
 6510TIP3    H241022   2.671   4.979  16.953  0.9415  1.8205 -0.1368
 6511TIP3   OH241023   5.675   2.228  13.116  0.3069  0.1589 -0.2882
 6511TIP3    H141024   5.677   2.296  13.182  0.8980  1.2081 -1.3525
 6511TIP3    H241025   5.591   2.240  13.071  0.7858  0.7796 -1.0498
 6512TIP3   OH241026   1.181   1.747  14.318 -0.1983 -0.6172  0.8782
 6512TIP3    H141027   1.244   1.807  14.359  0.1202  1.4219 -2.2465
 6512TIP3    H241028   1.101   1.799  14.309  0.4754  0.0583 -3.1127
 6513TIP3   OH241029   3.143   6.105  12.896 -0.1642  0.3957  0.1718
 6513TIP3    H141030   3.204   6.089  12.968 -0.3655  1.3122  0.5501
 6513TIP3    H241031   3.058   6.114  12.938 -0.3472  0.5198 -0.2247
 6514TIP3   OH241032   2.119   6.055   2.365  0.3840  0.3156  0.4641
 6514TIP3    H141033   2.122   5.959   2.369 -0.8988  0.2769  1.2911
 6514TIP3    H241034   2.026   6.075   2.354  0.6912  1.4699 -0.2248
 6515TIP3   OH241035   2.193   5.068  14.743 -0.7039 -0.2711  0.0573
 6515TIP3    H141036   2.175   4.984  14.786 -0.3866 -0.0556  0.6133
 6515TIP3    H241037   2.110   5.090  14.699 -0.2361 -1.8346 -1.7753
 6516TIP3   OH241038   0.285   3.217   0.172 -0.2687 -0.0928  0.3388
 6516TIP3    H141039   0.212   3.176   0.125 -0.2584  0.7219 -0.4076
 6516TIP3    H241040   0.292   3.304   0.134  0.7286  0.0429  0.8113
 6517TIP3   OH241041   1.154   6.163  16.047 -0.7207  0.6344  0.0332
 6517TIP3    H141042   1.161   6.259  16.045 -0.4011  0.6109 -0.3112
 6517TIP3    H241043   1.208   6.136  16.122 -2.3104  0.8225  1.2906
 6518TIP3   OH241044   3.296   2.441  15.099  0.3648  0.3649 -0.1580
 6518TIP3    H141045   3.213   2.432  15.145  1.0461  1.3203  1.3730
 6518TIP3    H241046   3.325   2.352  15.082 -0.1035 -0.0252  0.9821
 6519TIP3   OH241047   1.160   1.552   1.943  0.2363  0.1523 -0.0286
 6519TIP3    H141048   1.255   1.549   1.959  0.5245  0.0986 -1.6214
 6519TIP3    H241049   1.122   1.552   2.031  1.7823  4.7506  0.9273
 6520TIP3   OH241050   5.763   3.322  11.479  0.5151  0.3112  0.3723
 6520TIP3    H141051   5.834   3.283  11.530  0.4769  0.3636  0.4650
 6520TIP3    H241052   5.805   3.349  11.397  0.1752 -1.6496 -0.5066
 6521TIP3   OH241053   6.533   2.174  15.003 -0.3197  0.2517  0.9210
 6521TIP3    H141054   6.597   2.227  14.954  1.1334  0.3645  2.8103
 6521TIP3    H241055   6.480   2.133  14.935 -0.0812  2.3725 -0.6827
 6522TIP3   OH241056   3.663   5.529  10.764  0.0662  0.1255 -0.3126
 6522TIP3    H141057   3.695   5.595  10.703 -0.5142  0.5765 -0.1463
 6522TIP3    H241058   3.574   5.558  10.785  0.2554 -0.0082  0.7450
 6523TIP3   OH241059   3.423   4.092  14.415  0.2187  0.4159 -0.5676
 6523TIP3    H141060   3.430   4.184  14.393  2.0415  0.3900 -0.2463
 6523TIP3    H241061   3.347   4.061  14.366 -2.5583  2.7731  1.8562
 6524TIP3   OH241062   6.285   3.217  10.760 -0.3712  0.0104 -0.0799
 6524TIP3    H141063   6.209   3.242  10.707 -1.0181  1.0367  1.2705
 6524TIP3    H241064   6.255   3.226  10.851  0.9174 -1.0122  0.4859
 6525TIP3   OH241065   4.856   0.376   0.524  0.6949  0.0546  0.1161
 6525TIP3    H141066   4.777   0.402   0.571  1.2835  1.2106  0.5164
 6525TIP3    H241067   4.872   0.286   0.553  0.5051  0.4079  1.4226
 6526TIP3   OH241068   2.857   4.904   2.884 -0.2090 -0.1982  0.2274
 6526TIP3    H141069   2.917   4.977   2.871 -2.0515  1.2105 -0.8748
 6526TIP3    H241070   2.797   4.908   2.809 -0.7966 -2.4389  0.4929
 6527TIP3   OH241071   6.289   6.389   0.575 -0.4668 -0.0973  0.4532
 6527TIP3    H141072   6.253   6.304   0.602  0.0236 -0.0806  1.1887
 6527TIP3    H241073   6.356   6.408   0.640 -2.2454  2.0560  1.7924
 6528TIP3   OH241074   6.047   2.738   3.481 -0.1772  0.1009  0.1874
 6528TIP3    H141075   5.968   2.686   3.463 -0.8963  1.4008 -0.5326
 6528TIP3    H241076   6.025   2.789   3.559 -0.5404  1.3838 -0.7227
 6529TIP3   OH241077   6.372   6.400   1.947 -0.0542 -0.0501  0.2572
 6529TIP3    H141078   6.391   6.346   2.024 -0.9306 -1.6640 -0.6134
 6529TIP3    H241079   6.371   6.490   1.981 -0.2769 -0.6940  2.0979
 6530TIP3   OH241080   4.291   4.541   0.437  0.3366 -0.2651  0.3284
 6530TIP3    H141081   4.276   4.635   0.452 -0.0572 -0.4795  1.3378
 6530TIP3    H241082   4.387   4.533   0.434  0.3776  0.3805 -1.2959
 6531TIP3   OH241083   0.701   0.927  13.668 -0.1467  0.0138  0.6945
 6531TIP3    H141084   0.782   0.879  13.684 -0.0894 -0.5089 -0.9238
 6531TIP3    H241085   0.658   0.878  13.598 -1.3417  0.8954  0.7734
 6532TIP3   OH241086   2.522   5.354   2.917  0.6326  0.8598 -0.6356
 6532TIP3    H141087   2.582   5.293   2.961 -0.2712  1.2438  1.2671
 6532TIP3    H241088   2.470   5.299   2.859  0.7028  0.0098  0.0842
 6533TIP3   OH241089   6.461   5.318   0.943  0.1869  0.2751  0.3095
 6533TIP3    H141090   6.539   5.360   0.907  1.0868 -2.0878 -0.6842
 6533TIP3    H241091   6.494   5.245   0.996 -1.3235 -0.1135  0.7879
 6534TIP3   OH241092   3.802   1.066  14.235 -0.0670  0.2720  0.2411
 6534TIP3    H141093   3.728   1.085  14.176  1.3898 -0.9659 -2.1431
 6534TIP3    H241094   3.763   1.064  14.322 -2.5410  1.2421 -0.7329
 6535TIP3   OH241095   6.510   6.518   0.048 -0.1919  0.1061  0.3384
 6535TIP3    H141096   6.447   6.589   0.033 -0.3460 -0.5874 -3.0270
 6535TIP3    H241097   6.593   6.553   0.017 -0.0140 -0.7358 -0.1501
 6536TIP3   OH241098   4.419   6.724  16.517 -0.4377 -0.4587  0.1846
 6536TIP3    H141099   4.486   6.680  16.569 -0.1165 -1.4738 -1.0371
 6536TIP3    H241100   4.339   6.718  16.571  0.3672  0.6015  1.5683
 6537TIP3   OH241101   5.198   2.711   2.534 -0.1445  0.3854 -0.0059
 6537TIP3    H141102   5.272   2.771   2.544 -1.2709  1.8353 -0.0623
 6537TIP3    H241103   5.216   2.640   2.595  1.0036  1.0104  0.4095
 6538TIP3   OH241104   5.171   3.353  12.588  0.5103  1.0723  0.4903
 6538TIP3    H141105   5.219   3.321  12.512 -1.2878 -1.3630  0.2675
 6538TIP3    H241106   5.211   3.308  12.662 -1.0120 -0.6375  0.3479
 6539TIP3   OH241107   5.184   2.049  14.478 -0.0769  0.2494  0.1316
 6539TIP3    H141108   5.262   2.104  14.467  0.9196 -1.1509 -0.1142
 6539TIP3    H241109   5.149   2.074  14.563 -0.1464  1.8269 -0.3158
 6540TIP3   OH241110   2.327   6.393   3.034 -0.6035 -0.2741 -0.2164
 6540TIP3    H141111   2.371   6.363   3.113  0.9171 -0.5257 -1.1085
 6540TIP3    H241112   2.397   6.431   2.980 -1.9653  2.0465 -0.4720
 6541TIP3   OH241113   6.768   4.393   0.145 -0.2859 -0.2974  0.5667
 6541TIP3    H141114   6.675   4.410   0.157 -0.3231  0.1832 -0.3280
 6541TIP3    H241115   6.773   4.336   0.069  0.1790  0.2445  0.1752
 6542TIP3   OH241116   4.542   2.613   1.590  0.0284 -0.1358 -0.4338
 6542TIP3    H141117   4.520   2.606   1.497  0.9014  0.0829 -0.6662
 6542TIP3    H241118   4.536   2.706   1.609  0.3033 -0.1256 -0.3917
 6543TIP3   OH241119   6.476   6.502   3.888 -0.3875 -0.2593 -0.3440
 6543TIP3    H141120   6.426   6.575   3.852  0.2811  0.5178  0.2443
 6543TIP3    H241121   6.566   6.519   3.861  0.2189  0.5770  1.9234
 6544TIP3   OH241122   2.910   3.742  14.010 -0.3229  0.7700 -0.5050
 6544TIP3    H141123   2.848   3.689  14.061  0.1272  0.4501 -0.2788
 6544TIP3    H241124   2.865   3.825  13.996 -0.0395  1.3022  1.3749
 6545TIP3   OH241125   1.601   5.984   1.927  0.5455 -0.3542 -0.6488
 6545TIP3    H141126   1.622   6.059   1.983 -0.2419  0.4308 -1.3675
 6545TIP3    H241127   1.686   5.947   1.903  0.8905 -0.6196  0.9281
 6546TIP3   OH241128   3.669   1.572  15.775 -0.8023  0.2568  0.0012
 6546TIP3    H141129   3.595   1.597  15.720  0.4399 -0.3109 -2.0408
 6546TIP3    H241130   3.694   1.653  15.819 -1.7470  0.7832 -0.4066
 6547TIP3   OH241131   0.820   4.231  13.583  0.2157  0.3620 -0.3624
 6547TIP3    H141132   0.820   4.287  13.660 -2.1636  0.2067 -0.1823
 6547TIP3    H241133   0.910   4.234  13.551  0.6047  2.7239  0.7596
 6548TIP3   OH241134   4.917   5.554   0.151  0.1309 -0.6887  0.0053
 6548TIP3    H141135   4.848   5.489   0.137 -1.2328  0.3574  1.5464
 6548TIP3    H241136   4.878   5.637   0.123  1.7482 -0.4192 -1.6606
 6549TIP3   OH241137   4.883   6.378   1.202  0.2123 -0.2782  0.0204
 6549TIP3    H141138   4.800   6.333   1.192  0.9536 -1.6814 -0.1345
 6549TIP3    H241139   4.860   6.471   1.209 -1.5362 -0.7816  2.1291
 6550TIP3   OH241140   5.287   5.805  14.788 -0.0494  0.2584  0.4370
 6550TIP3    H141141   5.349   5.866  14.747 -1.0694  2.0423  1.4321
 6550TIP3    H241142   5.220   5.790  14.721  0.1700  0.2994  0.2069
 6551TIP3   OH241143   1.695   6.729  16.126 -0.1542  0.1360 -0.0121
 6551TIP3    H141144   1.692   6.825  16.122  1.8962  0.2829  0.9319
 6551TIP3    H241145   1.650   6.700  16.047  0.6325  1.9205 -1.1635
 6552TIP3   OH241146   3.902   3.922  15.300 -1.1727 -0.3606  0.2402
 6552TIP3    H141147   3.904   3.838  15.346 -0.0194  0.4354  1.6918
 6552TIP3    H241148   3.959   3.908  15.224 -0.4001 -0.6904  0.8614
 6553TIP3   OH241149   6.008   6.042   2.133  0.1274 -0.6032 -0.0220
 6553TIP3    H141150   5.968   6.128   2.142  2.4376  0.6373 -0.7917
 6553TIP3    H241151   5.952   5.995   2.072 -0.1372  1.0583 -1.0930
 6554TIP3   OH241152   1.583   1.581   1.049  0.2738 -0.4846  0.1975
 6554TIP3    H141153   1.603   1.610   0.960  0.6330  0.8912  0.6979
 6554TIP3    H241154   1.512   1.519   1.038 -0.7960  0.8687 -0.9427
 6555TIP3   OH241155   3.935   6.568  13.109  0.0006  0.3864 -0.3609
 6555TIP3    H141156   3.956   6.619  13.188 -1.3036 -0.3198  0.4869
 6555TIP3    H241157   3.905   6.484  13.143  2.3832 -1.0952 -1.7435
 6556TIP3   OH241158   1.621   2.332   4.281  0.1845 -0.2274  0.4655
 6556TIP3    H141159   1.590   2.280   4.355  0.1038  0.0811  0.6529
 6556TIP3    H241160   1.694   2.383   4.317  1.2120 -1.2804 -0.0885
 6557TIP3   OH241161   2.349   5.664   2.619  0.0011  0.1540  0.5745
 6557TIP3    H141162   2.303   5.582   2.638 -0.4359  0.2705  0.0504
 6557TIP3    H241163   2.403   5.645   2.543 -1.7149  0.8911 -0.9180
 6558TIP3   OH241164   6.590   3.832  14.488  0.5125 -0.3360 -0.2751
 6558TIP3    H141165   6.521   3.895  14.470 -1.1715 -1.3197  2.1486
 6558TIP3    H241166   6.657   3.882  14.534  1.1482  0.4588 -1.9624
 6559TIP3   OH241167   2.108   4.718  12.847 -0.0406 -0.6048 -0.0054
 6559TIP3    H141168   2.196   4.754  12.840 -1.0412  1.9536 -0.5872
 6559TIP3    H241169   2.068   4.736  12.762 -1.3512 -1.1024  0.4838
 6560TIP3   OH241170   5.417   4.330   3.246 -0.7244 -0.1133  0.2383
 6560TIP3    H141171   5.341   4.381   3.273 -0.6809 -0.5283  1.1849
 6560TIP3    H241172   5.484   4.350   3.313  0.4947  1.3613 -1.3336
 6561TIP3   OH241173   3.004   6.763  15.683 -0.2390 -0.4588 -0.4558
 6561TIP3    H141174   2.913   6.787  15.669 -0.4489 -0.7078  0.4164
 6561TIP3    H241175   3.053   6.814  15.618 -0.6986  1.9466  0.9528
 6562TIP3   OH241176   5.386   6.581  14.583 -0.3856 -0.3591  0.3280
 6562TIP3    H141177   5.385   6.658  14.640 -0.2507 -0.8548  1.0144
 6562TIP3    H241178   5.470   6.539  14.602  0.0587 -0.0732 -0.8795
 6563TIP3   OH241179   3.545   4.436   1.144  0.7425 -0.3573 -0.0585
 6563TIP3    H141180   3.629   4.461   1.181  0.5467  1.1317 -0.5521
 6563TIP3    H241181   3.562   4.425   1.050  0.1149  1.4666 -0.4261
 6564TIP3   OH241182   0.684   2.167  13.773  0.0806  0.3702  0.0139
 6564TIP3    H141183   0.735   2.189  13.850 -0.6678 -2.4914  1.4732
 6564TIP3    H241184   0.744   2.117  13.718  0.6856  2.6021 -1.4970
 6565TIP3   OH241185   0.673   0.948   0.891 -0.2160 -0.3625 -0.2258
 6565TIP3    H141186   0.736   0.978   0.957 -0.5480 -0.5507  0.1794
 6565TIP3    H241187   0.727   0.899   0.828 -0.0750 -1.3597  0.6344
 6566TIP3   OH241188   5.257   2.268   0.738  0.1057  0.3488 -0.3318
 6566TIP3    H141189   5.351   2.251   0.733 -0.2564 -2.1903  0.1566
 6566TIP3    H241190   5.232   2.293   0.649  1.1346  0.4687 -0.6005
 6567TIP3   OH241191   1.045   2.748   2.951 -0.5287  0.2397 -0.6356
 6567TIP3    H141192   1.048   2.741   2.856 -1.0535 -0.1896 -0.6245
 6567TIP3    H241193   1.020   2.660   2.980 -1.2844  0.6127 -0.1461
 6568TIP3   OH241194   3.681   2.104  12.478 -0.0816 -0.1801  0.3719
 6568TIP3    H141195   3.605   2.163  12.480  0.3113  0.3171  0.9829
 6568TIP3    H241196   3.653   2.031  12.422 -1.0802 -0.0988  0.7436
 6569TIP3   OH241197   3.853   2.484   4.173 -0.2179 -0.9651  0.3530
 6569TIP3    H141198   3.874   2.577   4.164 -0.6056 -0.8923  0.1662
 6569TIP3    H241199   3.903   2.455   4.250  2.8226 -1.5112 -1.6639
 6570TIP3   OH241200   5.721   0.193   5.260  0.1899 -0.0670 -0.0379
 6570TIP3    H141201   5.782   0.263   5.237  0.1002 -0.3189 -1.0769
 6570TIP3    H241202   5.720   0.136   5.183 -0.2729 -0.8304  0.5249
 6571TIP3   OH241203   4.568   1.384   1.184 -0.4747 -0.2770 -0.3025
 6571TIP3    H141204   4.484   1.413   1.220 -1.6206 -2.2420 -1.2044
 6571TIP3    H241205   4.575   1.292   1.212  1.3489 -0.1702 -0.3323
 6572TIP3   OH241206   3.668   4.848  12.307 -0.0382 -0.0716  0.7958
 6572TIP3    H141207   3.646   4.936  12.338  0.4653  0.4834 -0.3764
 6572TIP3    H241208   3.593   4.822  12.254 -1.4672 -1.5229  3.3099
 6573TIP3   OH241209   5.969   4.032  14.091  0.6638  0.2094 -0.2854
 6573TIP3    H141210   6.055   4.071  14.106  0.2807  0.2152  2.2415
 6573TIP3    H241211   5.921   4.047  14.172 -1.1814 -1.2278 -1.0397
 6574TIP3   OH241212   0.239   3.500  12.396 -0.4723  0.1290  0.0544
 6574TIP3    H141213   0.305   3.487  12.328  0.7881  0.0406  1.2588
 6574TIP3    H241214   0.161   3.529  12.348  0.1703 -0.5877 -1.4856
 6575TIP3   OH241215   6.148   1.467  15.149 -0.0224  0.5213 -0.2312
 6575TIP3    H141216   6.093   1.389  15.151 -1.0282  1.1761 -0.9428
 6575TIP3    H241217   6.149   1.493  15.056  1.2309  0.7244 -0.1808
 6576TIP3   OH241218   2.913   5.232   0.040  0.5310 -0.5005  0.1294
 6576TIP3    H141219   2.928   5.141   0.064 -1.0085 -0.8525 -0.1186
 6576TIP3    H241220   2.950   5.240  -0.048  0.2405 -1.0311 -0.0468
 6577TIP3   OH241221   4.151   2.758   3.183  0.3532 -0.3911 -0.6036
 6577TIP3    H141222   4.167   2.835   3.238  1.3883  0.1881 -1.6703
 6577TIP3    H241223   4.223   2.698   3.204  0.0311 -0.7070 -0.3998
 6578TIP3   OH241224   1.986   4.488   1.291  0.4650  0.6420 -0.4683
 6578TIP3    H141225   2.014   4.514   1.379  0.4060 -0.4823 -0.0983
 6578TIP3    H241226   2.022   4.555   1.233  2.7101  0.0465  0.1361
 6579TIP3   OH241227   4.089   3.207  12.097  0.4583 -0.0928  0.2623
 6579TIP3    H141228   4.027   3.183  12.167 -1.1520  0.2031 -0.9937
 6579TIP3    H241229   4.175   3.183  12.132 -0.2197  0.4991  2.5407
 6580TIP3   OH241230   0.040   2.902  12.722 -0.5735  0.1195  0.6403
 6580TIP3    H141231   0.127   2.883  12.756  0.9939  3.0000 -1.3543
 6580TIP3    H241232   0.004   2.816  12.700  1.9975 -1.1340  0.9790
 6581TIP3   OH241233   5.234   6.071  14.052 -0.0422 -0.4931 -0.4986
 6581TIP3    H141234   5.181   6.149  14.069 -1.1410 -1.2611 -0.3042
 6581TIP3    H241235   5.320   6.093  14.088 -0.3799  0.5504 -0.2752
 6582TIP3   OH241236   2.751   0.944   4.699  0.0578 -0.0001  0.2183
 6582TIP3    H141237   2.688   0.881   4.735  1.0208 -1.8157 -1.0695
 6582TIP3    H241238   2.794   0.896   4.628  1.9915  1.6083  0.2222
 6583TIP3   OH241239   4.120   4.289   0.427 -0.6027 -0.5333 -0.1154
 6583TIP3    H141240   4.181   4.362   0.423 -2.2802  1.2116  2.6026
 6583TIP3    H241241   4.175   4.212   0.436  1.1977  0.7400  0.3458
 6584TIP3   OH241242   4.500   6.349   6.128 -0.0257  0.0557  0.4294
 6584TIP3    H141243   4.417   6.305   6.139 -1.0584  1.8925  0.4394
 6584TIP3    H241244   4.556   6.315   6.198 -1.6072  0.6410  2.0444
 6585TIP3   OH241245   4.996   0.136  13.665 -0.2890  0.2574 -0.1007
 6585TIP3    H141246   5.051   0.190  13.608  2.0449 -1.1225  0.7223
 6585TIP3    H241247   4.997   0.050  13.625 -1.5655  0.0934  0.1699
 6586TIP3   OH241248   0.649   2.488   5.619 -0.1201 -0.4377  0.2934
 6586TIP3    H141249   0.717   2.423   5.637  0.6427 -0.0752 -1.1323
 6586TIP3    H241250   0.602   2.496   5.702 -0.7627 -3.3672  0.3140
 6587TIP3   OH241251   4.133   0.471   4.848  0.1581 -0.0427  0.2997
 6587TIP3    H141252   4.044   0.498   4.826  0.4854  0.6721 -0.2013
 6587TIP3    H241253   4.180   0.554   4.863  1.2527 -0.3008 -1.4528
 6588TIP3   OH241254   4.878   0.571   3.669 -0.0776 -0.2318 -0.0932
 6588TIP3    H141255   4.878   0.475   3.662 -2.1334 -0.2871  0.0903
 6588TIP3    H241256   4.923   0.588   3.752 -0.5785 -1.1151  0.3840
 6589TIP3   OH241257   2.373   1.306   1.099 -0.4354  0.2180 -0.1391
 6589TIP3    H141258   2.358   1.356   1.179 -2.0048 -2.6753  1.5018
 6589TIP3    H241259   2.441   1.243   1.122 -1.1018 -0.8420 -0.9739
 6590TIP3   OH241260   0.183   4.019  16.927  0.1272  0.2564  0.2380
 6590TIP3    H141261   0.236   4.086  16.972  0.3578 -0.4694  1.0614
 6590TIP3    H241262   0.245   3.976  16.869  0.2785 -0.1053  0.6639
 6591TIP3   OH241263   4.858   2.564  11.803 -0.1859 -0.4334 -0.4160
 6591TIP3    H141264   4.866   2.629  11.872  0.8475 -0.6765 -0.2962
 6591TIP3    H241265   4.932   2.581  11.745  0.5429 -1.9376  0.0154
 6592TIP3   OH241266   5.078   2.397   4.600 -0.0664 -0.0187  0.3391
 6592TIP3    H141267   5.142   2.467   4.605 -0.9200  0.7516  0.7948
 6592TIP3    H241268   5.127   2.317   4.619  0.7651  0.5408  0.5637
 6593TIP3   OH241269   3.091   0.153   5.072 -0.0037 -0.5088 -0.0291
 6593TIP3    H141270   3.135   0.082   5.025 -0.8832 -2.7567  2.3040
 6593TIP3    H241271   3.024   0.184   5.012 -0.9441 -3.0910 -0.4345
 6594TIP3   OH241272   2.335   2.370  12.013 -0.4619 -0.4502  0.3518
 6594TIP3    H141273   2.404   2.360  12.078  1.1904 -0.8485 -1.3732
 6594TIP3    H241274   2.381   2.370  11.929 -2.5744 -0.7097 -0.8754
 6595TIP3   OH241275   3.406   3.702   5.479  0.2162 -0.2607  0.0509
 6595TIP3    H141276   3.370   3.786   5.452 -1.3057 -0.0517  2.4017
 6595TIP3    H241277   3.334   3.640   5.468  0.6726 -0.8371  0.2527
 6596TIP3   OH241278   4.375   5.839  12.418 -0.3506  0.2674 -0.0658
 6596TIP3    H141279   4.365   5.798  12.332 -2.1244  2.1027 -0.8341
 6596TIP3    H241280   4.293   5.820  12.463 -0.7398  1.8871 -0.0125
 6597TIP3   OH241281   5.133   3.580   5.108 -0.2083  0.0886 -0.5328
 6597TIP3    H141282   5.222   3.591   5.074 -0.1730 -0.1991 -0.5414
 6597TIP3    H241283   5.077   3.604   5.034 -0.1703  1.7811 -0.0552
 6598TIP3   OH241284   3.927   2.939  12.699 -0.4991 -0.6307  0.1472
 6598TIP3    H141285   3.855   2.997  12.676 -0.3725 -0.1100  1.0167
 6598TIP3    H241286   3.963   2.912  12.614 -2.3635 -1.7679 -0.3489
 6599TIP3   OH241287   0.578   3.976   2.413 -0.1643 -0.3553  0.9394
 6599TIP3    H141288   0.528   3.974   2.494 -1.1539 -1.1489  0.3351
 6599TIP3    H241289   0.667   3.950   2.439 -0.5313 -0.8392  1.7320
 6600TIP3   OH241290   3.940   4.396   9.983 -0.9658  0.7353 -0.5992
 6600TIP3    H141291   3.960   4.476   9.935  0.4767  0.3539 -0.6965
 6600TIP3    H241292   3.945   4.421  10.075  0.3296  0.6004 -0.6125
 6601TIP3   OH241293   0.234   1.805  13.113 -0.3984  0.0621 -0.4733
 6601TIP3    H141294   0.246   1.843  13.200 -0.2566  0.8015 -0.8061
 6601TIP3    H241295   0.151   1.841  13.082  0.9504  2.2537 -1.8452
 6602TIP3   OH241296   5.843   0.867   2.193 -0.0365  0.0307  0.0870
 6602TIP3    H141297   5.842   0.814   2.114 -0.8931 -0.1573  0.2108
 6602TIP3    H241298   5.750   0.882   2.213  0.1782  1.5668  0.0616
 6603TIP3   OH241299   5.149   6.382  15.895 -0.3138 -0.5055  0.5893
 6603TIP3    H141300   5.110   6.367  15.809 -2.4114  0.0676  1.3961
 6603TIP3    H241301   5.152   6.478  15.904  1.0102 -0.5327  0.7010
 6604TIP3   OH241302   5.896   6.137  12.061 -0.4479  0.2487 -0.1544
 6604TIP3    H141303   5.833   6.168  11.995 -0.2083  0.4369 -0.2965
 6604TIP3    H241304   5.965   6.204  12.061 -1.2534  1.1540  1.4805
 6605TIP3   OH241305   3.428   5.847   0.410  0.1448 -0.0592 -0.3024
 6605TIP3    H141306   3.355   5.858   0.471  0.0287 -0.1075 -0.4314
 6605TIP3    H241307   3.501   5.820   0.465 -0.4023 -1.8844 -0.3904
 6606TIP3   OH241308   2.412   0.041   1.420  0.0965  0.1963 -0.1538
 6606TIP3    H141309   2.378   0.050   1.509  0.0060 -1.4090 -0.0081
 6606TIP3    H241310   2.409   0.130   1.385  2.8920  1.5151  2.4109
 6607TIP3   OH241311   2.928   1.640  11.750  0.0396  0.5028 -0.2156
 6607TIP3    H141312   2.839   1.623  11.720  1.0586 -2.2410 -2.1138
 6607TIP3    H241313   2.933   1.596  11.835 -0.1998 -0.0031 -0.4606
 6608TIP3   OH241314   2.431   2.915  13.248 -0.4797 -0.5191 -0.0476
 6608TIP3    H141315   2.359   2.968  13.214 -0.5993 -0.7389 -0.1385
 6608TIP3    H241316   2.466   2.870  13.171 -0.0529 -0.1826 -0.0521
 6609TIP3   OH241317   4.831   2.324   4.520  0.4939 -0.4473  0.2037
 6609TIP3    H141318   4.919   2.345   4.551  0.8419 -1.5683  0.0430
 6609TIP3    H241319   4.802   2.252   4.578 -1.0622  1.0780  1.4453
 6610TIP3   OH241320   3.814   5.241   5.317  0.4539  0.1244  0.3101
 6610TIP3    H141321   3.865   5.232   5.398 -1.1762 -0.5642  1.3272
 6610TIP3    H241322   3.723   5.245   5.347 -0.3340 -1.8777 -1.5580
 6611TIP3   OH241323   2.762   5.022  16.653  0.3553 -0.7478 -0.3469
 6611TIP3    H141324   2.754   4.970  16.574 -0.6139  0.1209 -0.8463
 6611TIP3    H241325   2.672   5.033  16.684  0.6302 -0.1791  0.2754
 6612TIP3   OH241326   4.260   6.788  13.358  0.0255 -0.2435 -0.5400
 6612TIP3    H141327   4.340   6.804  13.309 -1.0601  1.4019 -1.8897
 6612TIP3    H241328   4.193   6.839  13.312 -1.1298  1.1843  2.4744
 6613TIP3   OH241329   0.737   5.490  15.140 -0.0883 -0.1940 -0.1286
 6613TIP3    H141330   0.699   5.522  15.058 -1.2132  1.6573  1.0253
 6613TIP3    H241331   0.822   5.533  15.146 -0.6480  0.8878  0.3512
 6614TIP3   OH241332   1.915   6.840  13.472  0.1645 -0.2482 -0.3690
 6614TIP3    H141333   1.876   6.855  13.386 -2.6542  0.7758  0.9538
 6614TIP3    H241334   1.888   6.916  13.524  1.0943 -1.2176  1.6369
 6615TIP3   OH241335   6.717   6.398  13.600  0.2163 -0.5596 -0.4875
 6615TIP3    H141336   6.755   6.485  13.615 -1.0832 -0.0552  0.0338
 6615TIP3    H241337   6.625   6.408  13.624 -0.4435 -1.5302 -2.3692
 6616TIP3   OH241338   5.659   1.558  15.498 -0.1230  0.5844 -0.2881
 6616TIP3    H141339   5.652   1.483  15.439  1.6771 -0.5463  0.8291
 6616TIP3    H241340   5.697   1.627  15.444 -2.3709  0.9735 -1.4937
 6617TIP3   OH241341   4.050   4.673  12.421  0.2977  0.6408 -0.2912
 6617TIP3    H141342   4.144   4.673  12.403 -0.0769 -0.0477 -2.4737
 6617TIP3    H241343   4.029   4.765  12.437  0.8877  1.2901 -2.7700
 6618TIP3   OH241344   2.003   2.963   4.248 -0.0893  0.4812 -0.3511
 6618TIP3    H141345   1.987   2.947   4.155 -0.8772 -0.8720 -0.0147
 6618TIP3    H241346   2.053   2.887   4.277  1.1091  1.4174  0.1230
 6619TIP3   OH241347   5.286   1.288   1.901  0.1229 -0.7559 -0.8514
 6619TIP3    H141348   5.201   1.319   1.933  0.5696 -1.6638  1.3733
 6619TIP3    H241349   5.319   1.359   1.847 -2.3852 -0.6969 -2.4989
 6620TIP3   OH241350   3.041   4.671  10.466 -0.2939 -0.0771 -0.0798
 6620TIP3    H141351   2.975   4.661  10.397  0.9358  2.0073 -1.6629
 6620TIP3    H241352   3.103   4.600  10.450  0.5535  0.9855 -1.9042
 6621TIP3   OH241353   4.808   1.074   1.976  0.4559 -0.0535 -0.3226
 6621TIP3    H141354   4.833   1.008   1.911 -0.3334  0.2649 -0.9645
 6621TIP3    H241355   4.839   1.038   2.059  0.3175 -1.0883 -0.7019
 6622TIP3   OH241356   4.451   6.845   4.149 -0.5721 -0.1610 -0.1300
 6622TIP3    H141357   4.541   6.858   4.119 -0.3801 -3.1458 -1.1869
 6622TIP3    H241358   4.459   6.811   4.238 -0.5059 -1.6380 -0.6630
 6623TIP3   OH241359   3.946   4.417  10.259 -0.1036 -0.0579  0.7275
 6623TIP3    H141360   3.919   4.325  10.255 -1.8533  0.4220  0.9193
 6623TIP3    H241361   3.882   4.459  10.316  1.5441  1.0192  1.8616
 6624TIP3   OH241362   2.341   0.157   2.401 -0.2972 -0.0357  0.2101
 6624TIP3    H141363   2.313   0.097   2.470  1.0073  0.2865  1.0623
 6624TIP3    H241364   2.313   0.243   2.431  0.5063  0.1385  0.4835
 6625TIP3   OH241365   6.468   3.421  11.429  0.0516  0.2713  0.1429
 6625TIP3    H141366   6.468   3.341  11.377  1.9307 -1.3839  2.4258
 6625TIP3    H241367   6.478   3.492  11.365 -1.8906 -1.2312 -1.9799
 6626TIP3   OH241368   3.943   2.179  13.536 -0.1757  0.1199 -0.3766
 6626TIP3    H141369   3.892   2.125  13.474  2.2999 -1.7815 -0.9115
 6626TIP3    H241370   3.912   2.151  13.622 -0.3405 -0.7113 -0.6905
 6627TIP3   OH241371   5.711   6.333  10.968  0.5891 -0.0711 -0.3084
 6627TIP3    H141372   5.749   6.383  11.040  2.3559 -0.5020 -0.8718
 6627TIP3    H241373   5.723   6.242  10.993  2.3483 -0.2589 -1.6017
 6628TIP3   OH241374   6.334   2.493  16.524 -0.1709  0.1303  0.0856
 6628TIP3    H141375   6.266   2.559  16.539 -0.1078  0.2800 -0.2790
 6628TIP3    H241376   6.402   2.540  16.475  1.1373  0.5519  2.1546
 6629TIP3   OH241377   6.088   4.259  11.510 -0.2178 -0.7962  0.4813
 6629TIP3    H141378   6.037   4.195  11.560 -2.5638 -0.7642 -1.6267
 6629TIP3    H241379   6.035   4.275  11.431  1.1578  2.3633  0.0354
 6630TIP3   OH241380   0.279   4.516  14.134  0.1889  0.6609  0.6688
 6630TIP3    H141381   0.192   4.478  14.143  0.3537  0.0290 -0.2338
 6630TIP3    H241382   0.278   4.560  14.049  1.0327 -0.2090  0.1710
 6631TIP3   OH241383   2.893   2.482  14.136 -0.0055 -0.2977 -0.1902
 6631TIP3    H141384   2.941   2.399  14.135 -0.8256 -0.7870 -1.0012
 6631TIP3    H241385   2.811   2.461  14.181 -0.1869  0.0820 -0.3436
 6632TIP3   OH241386   6.777   3.543  17.026  0.0105 -0.9493  0.0644
 6632TIP3    H141387   6.741   3.483  16.961 -0.6603 -0.5532  0.0695
 6632TIP3    H241388   6.702   3.592  17.058  0.7016  0.7304 -0.7876
 6633TIP3   OH241389   6.629   2.416  10.322 -0.3765  0.5834  0.0019
 6633TIP3    H141390   6.698   2.399  10.259  0.4522 -0.1766  1.0653
 6633TIP3    H241391   6.640   2.508  10.346 -1.0061  1.0154 -1.2818
 6634TIP3   OH241392   0.292   6.028   1.421 -1.0010  0.0416  0.4327
 6634TIP3    H141393   0.387   6.025   1.408 -0.9885 -0.6868  0.6699
 6634TIP3    H241394   0.258   5.954   1.370 -1.7571  1.9789 -2.0943
 6635TIP3   OH241395   4.456   5.884  15.835 -0.1836  0.7399  0.3258
 6635TIP3    H141396   4.453   5.788  15.826  1.1321  0.6830  0.2484
 6635TIP3    H241397   4.428   5.917  15.750  1.1036  0.3685 -0.2783
 6636TIP3   OH241398   6.744   6.076   4.615 -0.6904 -0.2858  0.3474
 6636TIP3    H141399   6.759   6.125   4.695  0.1852  1.4184 -0.7951
 6636TIP3    H241400   6.821   6.095   4.560 -2.5418  0.9422 -1.9951
 6637TIP3   OH241401   6.428   4.924   5.664 -0.1233 -0.1915 -0.2901
 6637TIP3    H141402   6.480   4.995   5.701 -1.0225  0.8831 -1.0122
 6637TIP3    H241403   6.480   4.846   5.678  0.5988  0.5145  1.1279
 6638TIP3   OH241404   5.123   3.591  14.727 -0.3565  0.0982  0.7599
 6638TIP3    H141405   5.090   3.677  14.752  1.7633  1.5480 -1.0360
 6638TIP3    H241406   5.205   3.609  14.681 -0.3734 -2.8131 -0.6356
 6639TIP3   OH241407   3.285   2.960   1.048 -0.0956  0.8822 -0.6701
 6639TIP3    H141408   3.378   2.983   1.041  0.5729 -0.9540  1.1558
 6639TIP3    H241409   3.269   2.954   1.142 -1.9430  0.6250 -0.9605
 6640TIP3   OH241410   1.068   3.921   0.728 -0.5042  0.0180 -0.0235
 6640TIP3    H141411   1.129   3.967   0.786 -0.7941  2.3581 -1.4590
 6640TIP3    H241412   0.991   3.903   0.783  0.1656 -0.0111  0.9300
 6641TIP3   OH241413   6.829   3.231  13.601 -0.2487  0.3237  0.2532
 6641TIP3    H141414   6.737   3.257  13.600 -0.9129 -1.8600 -0.1415
 6641TIP3    H241415   6.829   3.141  13.569  2.5268  1.6768 -4.5290
 6642TIP3   OH241416   1.474   2.083  15.697  0.0171 -0.7056  0.1622
 6642TIP3    H141417   1.557   2.035  15.696  0.3355 -0.1891 -1.6691
 6642TIP3    H241418   1.495   2.168  15.659 -1.5826 -0.9972 -1.5227
 6643TIP3   OH241419   3.520   6.083   0.307 -0.1732 -0.4678 -0.3925
 6643TIP3    H141420   3.511   5.991   0.283 -0.0485 -0.6967  0.4097
 6643TIP3    H241421   3.602   6.087   0.357  2.2845  0.8605 -4.1134
 6644TIP3   OH241422   1.241   4.058   3.316  1.0715  0.5435  0.1231
 6644TIP3    H141423   1.203   4.098   3.238 -0.1417  1.0593  0.9353
 6644TIP3    H241424   1.168   4.054   3.378  1.8808 -0.3176  1.0565
 6645TIP3   OH241425   3.437   1.883   3.563 -0.4179 -0.3022  0.5154
 6645TIP3    H141426   3.435   1.924   3.477 -1.2510 -1.6013 -0.1290
 6645TIP3    H241427   3.404   1.794   3.547 -0.9574 -0.4436  2.2379
 6646TIP3   OH241428   0.486   1.235  15.468  0.7863  0.1038 -0.0432
 6646TIP3    H141429   0.461   1.241  15.376  0.7378 -0.7853 -0.0948
 6646TIP3    H241430   0.502   1.142  15.483  2.4957  0.4267  0.4000
 6647TIP3   OH241431   3.255   3.592   3.819 -0.0339 -0.7154  0.2769
 6647TIP3    H141432   3.237   3.678   3.855  0.1150  0.0063 -1.3061
 6647TIP3    H241433   3.179   3.539   3.844 -0.2125 -0.0950  1.0848
 6648TIP3   OH241434   6.651   1.851  12.486  0.2086  0.5074  0.1784
 6648TIP3    H141435   6.625   1.764  12.517  0.7518  1.0359  2.2939
 6648TIP3    H241436   6.573   1.905  12.498  0.6348  0.8848  1.4696
 6649TIP3   OH241437   3.474   2.843  11.881 -0.2738  0.6558 -0.3783
 6649TIP3    H141438   3.548   2.864  11.939 -1.0459 -1.7118  1.6228
 6649TIP3    H241439   3.503   2.767  11.830 -1.3344 -0.4245  0.5680
 6650TIP3   OH241440   1.708   3.855  12.423 -0.2206  0.4469  0.5764
 6650TIP3    H141441   1.631   3.844  12.479 -1.0729  1.4485 -0.3344
 6650TIP3    H241442   1.672   3.852  12.334  1.2241 -2.1807 -0.0039
 6651TIP3   OH241443   5.479   0.607   1.890 -0.1807 -0.0513  0.1097
 6651TIP3    H141444   5.428   0.555   1.828 -0.3080 -0.0429  0.2068
 6651TIP3    H241445   5.442   0.586   1.975 -0.5133  0.5123  0.1103
 6652TIP3   OH241446   4.726   4.498   1.745 -0.0828  0.7435 -0.0009
 6652TIP3    H141447   4.640   4.536   1.760  0.0442  1.5813 -1.2552
 6652TIP3    H241448   4.767   4.555   1.680  0.2194 -1.3627 -1.8020
 6653TIP3   OH241449   1.154   3.918   4.810 -0.1325 -0.1630 -0.0244
 6653TIP3    H141450   1.219   3.867   4.762 -0.6165  0.3894 -1.3392
 6653TIP3    H241451   1.201   3.956   4.884  1.8967  2.6277 -2.4943
 6654TIP3   OH241452   6.735   6.572   0.268 -0.4783  0.3150 -0.4167
 6654TIP3    H141453   6.714   6.489   0.312  2.8057 -0.3136  0.2079
 6654TIP3    H241454   6.803   6.549   0.205  0.1993  2.4832 -0.5534
 6655TIP3   OH241455   4.647   6.037  16.636 -0.9822 -0.0295 -0.5110
 6655TIP3    H141456   4.678   6.110  16.689 -0.4285  1.0237 -2.2011
 6655TIP3    H241457   4.572   6.072  16.587 -0.5247 -0.4778 -1.5648
 6656TIP3   OH241458   4.364   5.364  11.600 -0.1414  0.2152  0.7424
 6656TIP3    H141459   4.387   5.272  11.611 -0.8821  0.1092  1.4893
 6656TIP3    H241460   4.445   5.405  11.570  0.1141 -0.7243  0.1061
 6657TIP3   OH241461   5.087   3.583  16.184 -0.0043  0.2223 -0.1902
 6657TIP3    H141462   5.160   3.613  16.130  0.3302  1.1870  0.7670
 6657TIP3    H241463   5.080   3.489  16.164  0.1784  0.5246 -1.7916
 6658TIP3   OH241464   2.272   0.256  11.181 -0.7184  0.8081  0.0108
 6658TIP3    H141465   2.293   0.168  11.212  0.7194  1.8196  2.1575
 6658TIP3    H241466   2.250   0.244  11.088  1.8182 -1.4772 -0.4240
 6659TIP3   OH241467   0.067   1.813  11.418  0.9260  0.0453  0.4584
 6659TIP3    H141468   0.010   1.884  11.446  0.1673 -0.8460  1.1995
 6659TIP3    H241469   0.075   1.757  11.495  1.8200 -0.4828 -0.0100
 6660TIP3   OH241470   1.279   1.573  14.516 -0.3116  0.0955 -0.4507
 6660TIP3    H141471   1.231   1.629  14.454 -0.4422  2.3712  1.5411
 6660TIP3    H241472   1.218   1.502  14.535 -0.4892 -0.3587 -2.4290
 6661TIP3   OH241473   6.144   5.629   5.281 -0.7229 -0.5022 -0.7592
 6661TIP3    H141474   6.142   5.572   5.357 -1.5065 -0.4435 -0.7315
 6661TIP3    H241475   6.212   5.592   5.225  1.2691  0.5589  0.8069
 6662TIP3   OH241476   4.262   2.868   3.542 -0.4032  0.1943  0.3545
 6662TIP3    H141477   4.240   2.909   3.459 -0.0680  0.6661  0.4961
 6662TIP3    H241478   4.217   2.921   3.608  0.0459  0.3522  0.5387
 6663TIP3   OH241479   3.938   3.746  12.416  0.0684 -0.9890  0.4350
 6663TIP3    H141480   3.848   3.757  12.446  0.3621 -0.4284  1.1577
 6663TIP3    H241481   3.943   3.655  12.388 -0.9517 -0.7941 -0.4363
 6664TIP3   OH241482   6.312   2.425  17.030  0.1378  0.7017 -0.3357
 6664TIP3    H141483   6.268   2.459  17.108 -0.7035 -0.2039 -0.3940
 6664TIP3    H241484   6.258   2.455  16.957  0.6917  1.1958 -0.5478
 6665TIP3   OH241485   3.543   2.514   2.851  0.5531  0.1222 -0.2173
 6665TIP3    H141486   3.474   2.458   2.886  1.0029 -1.3085 -1.5235
 6665TIP3    H241487   3.506   2.602   2.854 -0.7283 -0.4147  0.5323
 6666TIP3   OH241488   0.478   2.791   0.407 -0.1498  0.4523  0.0426
 6666TIP3    H141489   0.431   2.870   0.433 -0.1394  0.3269  0.4521
 6666TIP3    H241490   0.421   2.719   0.434 -0.6186  0.3288 -1.2275
 6667TIP3   OH241491   6.415   0.731   5.658 -0.3178 -0.2247 -0.3717
 6667TIP3    H141492   6.473   0.668   5.615 -0.4738 -1.7006  1.4649
 6667TIP3    H241493   6.465   0.812   5.659  0.5449 -0.7164 -1.3838
 6668TIP3   OH241494   4.602   4.157   1.734 -0.0915  0.3542 -0.3940
 6668TIP3    H141495   4.553   4.126   1.810 -0.9565  1.4639 -0.4742
 6668TIP3    H241496   4.535   4.172   1.667  0.6405 -0.4260 -1.3307
 6669TIP3   OH241497   6.664   6.006  12.766  0.3067  0.8946 -0.3722
 6669TIP3    H141498   6.648   5.919  12.729 -0.4365 -0.0307  1.9405
 6669TIP3    H241499   6.604   6.064  12.720  0.7566  0.2008 -1.8956
 6670TIP3   OH241500   3.594   3.888  17.112 -0.7999  0.5696  0.1809
 6670TIP3    H141501   3.628   3.887  17.201 -1.6439  0.6252  0.5100
 6670TIP3    H241502   3.633   3.966  17.072  1.4277 -0.6834 -0.2569
 6671TIP3   OH241503   4.411   0.826  12.741 -0.1934 -0.0039 -0.4648
 6671TIP3    H141504   4.437   0.734  12.748 -0.0643  0.1086  0.9536
 6671TIP3    H241505   4.350   0.838  12.814  2.2296  1.8204  1.4144
 6672TIP3   OH241506   6.439   0.536  17.102  0.3585 -0.2027 -0.7322
 6672TIP3    H141507   6.354   0.506  17.071 -0.5419  1.0053  0.4598
 6672TIP3    H241508   6.476   0.586  17.029 -1.1990  1.6096 -0.3490
 6673TIP3   OH241509   1.103   6.260   4.342 -0.7667  0.2716  0.2006
 6673TIP3    H141510   1.193   6.271   4.373 -1.2419  2.4728  0.9507
 6673TIP3    H241511   1.099   6.168   4.315  1.8771  0.2626 -0.4941
 6674TIP3   OH241512   5.801   3.992   5.628 -0.2598 -0.5577 -0.0815
 6674TIP3    H141513   5.739   3.966   5.560  0.1447 -0.9274 -0.3098
 6674TIP3    H241514   5.752   3.980   5.710 -0.3307 -1.3272 -0.2300
 6675TIP3   OH241515   3.302   2.432  12.142  0.0645 -0.0589 -0.3931
 6675TIP3    H141516   3.341   2.435  12.230  0.0007  1.1886 -0.3844
 6675TIP3    H241517   3.375   2.410  12.085  0.5847  1.1552 -0.2425
 6676TIP3   OH241518   6.669   3.677  12.967  0.8248  0.0073  0.4582
 6676TIP3    H141519   6.635   3.605  12.914 -0.2214  0.3582  0.6294
 6676TIP3    H241520   6.756   3.647  12.996  0.6887 -0.8925 -0.0303
 6677TIP3   OH241521   2.575   3.140  16.421 -0.1554 -0.3993  0.2957
 6677TIP3    H141522   2.568   3.220  16.369 -1.8222 -0.5364  0.2449
 6677TIP3    H241523   2.661   3.145  16.461  0.0460  1.0825 -0.2512
 6678TIP3   OH241524   5.597   6.838   2.308 -0.7680  0.0180  0.6205
 6678TIP3    H141525   5.687   6.811   2.290 -0.8641  1.2201 -2.1212
 6678TIP3    H241526   5.546   6.799   2.237 -1.5240  3.6965 -1.0972
 6679TIP3   OH241527   0.536   3.525  15.291 -0.0591 -0.4396  0.0289
 6679TIP3    H141528   0.610   3.569  15.333 -1.1063  2.3342 -0.7925
 6679TIP3    H241529   0.460   3.552  15.342 -0.7026 -2.0877  0.0080
 6680TIP3   OH241530   0.533   4.613   2.787  0.1376 -0.4727 -0.3952
 6680TIP3    H141531   0.524   4.517   2.781 -1.1160 -0.4676  1.0131
 6680TIP3    H241532   0.532   4.642   2.696  1.2872 -1.8516 -0.8852
 6681TIP3   OH241533   1.386   1.384  11.362 -0.2807  0.0727  0.2892
 6681TIP3    H141534   1.424   1.445  11.425  0.7373  0.9168 -1.0692
 6681TIP3    H241535   1.292   1.401  11.365  0.0929  3.1771 -1.4000
 6682TIP3   OH241536   1.401   0.335  16.355  0.0574 -0.2093  0.7336
 6682TIP3    H141537   1.453   0.393  16.411 -0.6523  0.2593  0.9144
 6682TIP3    H241538   1.376   0.263  16.412 -2.1037  1.0981  1.5448
 6683TIP3   OH241539   0.310   0.877   2.782 -0.2192  0.2435  0.5809
 6683TIP3    H141540   0.280   0.803   2.835 -2.2638  0.6227  0.0102
 6683TIP3    H241541   0.300   0.953   2.839 -2.1949  0.6189 -0.1868
 6684TIP3   OH241542   2.870   0.669  13.873  0.0959 -0.3575  0.5678
 6684TIP3    H141543   2.952   0.707  13.840  0.4560 -2.8592 -1.8048
 6684TIP3    H241544   2.888   0.575  13.877 -2.3804 -0.8757  0.8990
 6685TIP3   OH241545   0.814   1.333  11.969 -0.3913 -0.0752  0.6470
 6685TIP3    H141546   0.748   1.369  12.028  0.4690  2.6876  0.0378
 6685TIP3    H241547   0.788   1.363  11.882 -0.2440 -1.9592 -0.0867
 6686TIP3   OH241548   3.343   5.332   4.024  0.3819 -0.1696 -0.6810
 6686TIP3    H141549   3.276   5.396   4.048  0.4819 -0.1003 -0.5885
 6686TIP3    H241550   3.412   5.344   4.089 -0.3505 -1.5610  0.3912
 6687TIP3   OH241551   5.939   4.136   0.509  0.5298 -0.2045 -0.3485
 6687TIP3    H141552   6.015   4.140   0.451  0.8587  2.0699  0.1632
 6687TIP3    H241553   5.968   4.176   0.591 -1.1122  0.4586 -0.0408
 6688TIP3   OH241554   4.517   0.152  14.030  0.6071 -0.2573 -0.3248
 6688TIP3    H141555   4.603   0.111  14.017  0.6573 -0.5115  0.7609
 6688TIP3    H241556   4.516   0.178  14.122 -1.0884 -1.6857  0.1048
 6689TIP3   OH241557   1.464   1.759  15.107 -0.2052 -0.3023  0.0118
 6689TIP3    H141558   1.395   1.818  15.074  1.8059  1.7737 -0.7522
 6689TIP3    H241559   1.453   1.679  15.056 -1.2401  0.4611 -1.0331
 6690TIP3   OH241560   1.131   0.466  14.732  0.5278  0.3467 -0.3079
 6690TIP3    H141561   1.174   0.488  14.649 -0.6570 -1.4285 -1.4602
 6690TIP3    H241562   1.041   0.495  14.720  0.6884  1.4454  0.9761
 6691TIP3   OH241563   5.596   1.185  17.074  0.0397  0.1598 -0.9225
 6691TIP3    H141564   5.668   1.248  17.077  0.3879 -0.1493 -2.1914
 6691TIP3    H241565   5.518   1.239  17.062  0.1856  0.4289 -0.6711
 6692TIP3   OH241566   2.873   0.988   1.417  0.1881 -0.3782 -0.2358
 6692TIP3    H141567   2.907   0.900   1.433  0.8681 -0.0810 -0.0132
 6692TIP3    H241568   2.804   0.999   1.482  0.1413 -0.7310 -0.2249
 6693TIP3   OH241569   5.265   6.013  11.249  0.3425 -0.5912  0.7520
 6693TIP3    H141570   5.344   6.054  11.286 -0.4769  0.5218  1.3053
 6693TIP3    H241571   5.264   6.042  11.158 -0.2651  0.7136  1.1552
 6694TIP3   OH241572   3.048   6.755   2.749 -0.3764 -0.3578 -0.0558
 6694TIP3    H141573   3.064   6.798   2.666  0.4293  0.0168  0.2780
 6694TIP3    H241574   3.095   6.671   2.742  0.0398 -0.1467  0.1693
 6695TIP3   OH241575   3.613   2.595  16.238 -0.4477  0.0049 -0.4026
 6695TIP3    H141576   3.656   2.541  16.303 -0.2152  0.8323  0.1437
 6695TIP3    H241577   3.520   2.590  16.260 -0.5598 -1.1157 -1.0796
 6696TIP3   OH241578   2.235   4.767  14.888  0.3391  0.2211  0.4154
 6696TIP3    H141579   2.268   4.776  14.978  2.6288 -2.7104  0.0301
 6696TIP3    H241580   2.149   4.727  14.899  1.0452 -1.1393  1.3700
 6697TIP3   OH241581   4.843   4.687   1.583  0.2376 -0.8005  0.1749
 6697TIP3    H141582   4.894   4.712   1.660  1.9979  0.3221 -1.2799
 6697TIP3    H241583   4.906   4.690   1.510 -1.5387 -1.0361 -1.4489
 6698TIP3   OH241584   0.720   3.248  12.162  0.5525  0.0753 -0.3377
 6698TIP3    H141585   0.697   3.339  12.146  0.0865  0.0951  0.3875
 6698TIP3    H241586   0.637   3.207  12.188  0.8838 -0.3960 -0.0075
 6699TIP3   OH241587   5.041   2.950   2.465 -0.0604 -0.0472  0.0736
 6699TIP3    H141588   4.999   2.920   2.385  2.7439 -1.1823 -1.1306
 6699TIP3    H241589   5.079   2.871   2.503 -0.1539  0.6952  1.7915
 6700TIP3   OH241590   2.887   4.294  12.175 -0.1737  0.6649  0.0777
 6700TIP3    H141591   2.882   4.380  12.132  1.7984 -0.2523 -2.2412
 6700TIP3    H241592   2.937   4.240  12.114 -0.4384 -1.8662  1.9467
 6701TIP3   OH241593   5.407   0.141  15.095 -0.0965 -0.5587 -0.4369
 6701TIP3    H141594   5.372   0.123  15.182  3.0661 -1.3083  0.8136
 6701TIP3    H241595   5.501   0.154  15.109  0.1755  1.8304 -3.4233
 6702TIP3   OH241596   3.922   4.495  11.704 -0.1927 -0.1296 -0.1387
 6702TIP3    H141597   3.911   4.404  11.676 -1.4321 -0.4529  1.2794
 6702TIP3    H241598   3.913   4.492  11.799  1.7145  1.2210  0.1252
 6703TIP3   OH241599   4.800   2.267  14.729 -0.2588  0.6210  0.2347
 6703TIP3    H141600   4.712   2.229  14.730 -0.5259  0.9975 -2.2711
 6703TIP3    H241601   4.789   2.356  14.762 -0.5931  0.2953  1.0224
 6704TIP3   OH241602   0.928   3.876  13.155  0.8089  0.2595 -0.0394
 6704TIP3    H141603   0.837   3.859  13.179  1.5812  0.1289  3.2752
 6704TIP3    H241604   0.939   3.970  13.167  0.9336  0.4305 -1.3228
 6705TIP3   OH241605   2.723   4.190   0.823  0.2503  0.1801 -0.1036
 6705TIP3    H141606   2.815   4.201   0.796 -0.4421 -0.4624 -3.1685
 6705TIP3    H241607   2.679   4.268   0.790 -0.2524  0.7883  1.9078
 6706TIP3   OH241608   1.346   4.500  13.515  0.0550  0.1545  0.1298
 6706TIP3    H141609   1.397   4.490  13.595  0.8845  1.0238 -0.2737
 6706TIP3    H241610   1.360   4.590  13.488 -2.0867  0.5706  0.2432
 6707TIP3   OH241611   1.310   1.864   2.004  0.2870 -0.6518 -0.4484
 6707TIP3    H141612   1.398   1.897   2.018  0.7443 -2.1361  0.5044
 6707TIP3    H241613   1.256   1.912   2.067  0.5432 -0.2307 -0.5517
 6708TIP3   OH241614   5.722   2.771  15.107  0.0649  0.2644 -0.2846
 6708TIP3    H141615   5.707   2.702  15.042  0.8977  0.2456 -0.4564
 6708TIP3    H241616   5.737   2.850  15.056  1.5436  0.0915 -0.1545
 6709TIP3   OH241617   6.476   3.833   2.660  0.5470 -0.2984 -0.3835
 6709TIP3    H141618   6.549   3.790   2.615  1.2042 -0.1962  0.5623
 6709TIP3    H241619   6.497   3.927   2.654  0.2942 -0.2448 -0.4414
 6710TIP3   OH241620   5.826   2.088   5.572 -0.4075 -0.7014  0.4793
 6710TIP3    H141621   5.732   2.077   5.586 -0.4272 -0.2712  0.6928
 6710TIP3    H241622   5.833   2.160   5.511 -0.1668  0.5144  1.8809
 6711TIP3   OH241623   0.661   1.871   0.930  0.1902 -0.5180  0.1173
 6711TIP3    H141624   0.673   1.789   0.883 -1.0737 -1.1261  0.7953
 6711TIP3    H241625   0.723   1.866   1.003  2.4435  0.6070 -1.6086
 6712TIP3   OH241626   0.109   4.312  10.988  0.3633 -0.2007 -0.2007
 6712TIP3    H141627   0.189   4.268  11.016 -0.1856 -1.3397 -0.3708
 6712TIP3    H241628   0.079   4.359  11.066 -0.1297 -1.8020  0.6099
 6713TIP3   OH241629   6.824   6.247  11.138 -0.7312 -0.5278  0.0384
 6713TIP3    H141630   6.768   6.322  11.118 -0.6321 -0.3926  0.2568
 6713TIP3    H241631   6.853   6.215  11.053  0.1357  0.3797 -0.0296
 6714TIP3   OH241632   2.703   0.519   1.128  0.0187 -0.2161  0.1716
 6714TIP3    H141633   2.619   0.554   1.157  0.3254  0.6211  0.0830
 6714TIP3    H241634   2.768   0.580   1.163  0.4993 -0.0560 -0.9499
 6715TIP3   OH241635   1.844   2.665   5.722  0.4539  0.0159 -0.0239
 6715TIP3    H141636   1.784   2.700   5.788 -1.1723 -0.0119 -1.4044
 6715TIP3    H241637   1.896   2.600   5.769 -0.7417 -0.1021  1.2119
 6716TIP3   OH241638   2.748   5.211  14.861  0.4926 -0.6625 -0.0778
 6716TIP3    H141639   2.665   5.196  14.905  1.2532  1.6131  2.4187
 6716TIP3    H241640   2.727   5.270  14.789  0.0240  0.8362  1.2282
 6717TIP3   OH241641   6.573   4.596   4.385  0.2506  0.1301 -0.5724
 6717TIP3    H141642   6.518   4.524   4.354  0.2092  0.3686 -1.0512
 6717TIP3    H241643   6.661   4.575   4.351  0.0916  0.6858 -1.3358
 6718TIP3   OH241644   1.957   0.145   4.144  0.0538 -0.0917 -0.1546
 6718TIP3    H141645   1.962   0.118   4.052  0.5295  1.4534 -0.6063
 6718TIP3    H241646   2.028   0.097   4.187  0.2443 -0.3255 -0.7252
 6719TIP3   OH241647   4.334   2.033  16.126 -0.3220 -0.0593 -0.0849
 6719TIP3    H141648   4.290   2.063  16.046  0.5319 -3.9688 -2.3489
 6719TIP3    H241649   4.417   2.081  16.128 -0.5644  0.4417 -1.3176
 6720TIP3   OH241650   6.161   5.308   0.130  0.1513  0.5630  0.2989
 6720TIP3    H141651   6.228   5.314   0.199 -1.2974  0.8776  1.7257
 6720TIP3    H241652   6.188   5.375   0.066  0.5645  1.5182  1.4299
 6721TIP3   OH241653   5.319   5.291   1.479  0.1806  0.5852  0.4665
 6721TIP3    H141654   5.339   5.362   1.540  0.7663  0.3873  0.5145
 6721TIP3    H241655   5.321   5.332   1.393 -1.3853  1.0231  0.6199
 6722TIP3   OH241656   2.561   0.531  10.558  0.1934 -0.4028  0.3849
 6722TIP3    H141657   2.546   0.463  10.493 -0.2392  0.5635 -0.5583
 6722TIP3    H241658   2.625   0.589  10.517  1.2496 -0.7180  1.5455
 6723TIP3   OH241659   1.334   2.347  13.009 -0.6137 -0.4416  0.0943
 6723TIP3    H141660   1.340   2.363  13.103 -4.3778 -3.8833  1.1845
 6723TIP3    H241661   1.403   2.283  12.992  0.8165  1.0099  0.1470
 6724TIP3   OH241662   3.760   6.752   1.550 -0.0457 -1.0126  0.6378
 6724TIP3    H141663   3.775   6.845   1.535 -1.0317 -0.8347  0.6773
 6724TIP3    H241664   3.847   6.716   1.565  0.7199 -0.6909 -2.4975
 6725TIP3   OH241665   1.286   4.511  14.721  0.0662  0.0147 -0.0719
 6725TIP3    H141666   1.378   4.520  14.694  0.4018 -2.3438  0.1128
 6725TIP3    H241667   1.236   4.529  14.641  0.7181  0.2542 -0.4373
 6726TIP3   OH241668   2.526   2.943  15.454 -0.4848 -0.2703  0.6345
 6726TIP3    H141669   2.550   2.898  15.373 -0.0319 -0.5130  0.9077
 6726TIP3    H241670   2.603   2.936  15.510 -1.1865 -1.0769  1.5210
 6727TIP3   OH241671   0.936   0.205   4.146  0.0069 -0.0462 -0.0918
 6727TIP3    H141672   0.850   0.185   4.183  0.1987  0.9693  0.9589
 6727TIP3    H241673   0.999   0.175   4.212  0.3821  0.9765  0.0352
 6728TIP3   OH241674   3.460   4.362  15.974  0.0100  0.2741  0.1001
 6728TIP3    H141675   3.457   4.322  16.061  1.4086  1.5025  0.7515
 6728TIP3    H241676   3.553   4.359  15.950 -0.6018 -2.4333 -2.5431
 6729TIP3   OH241677   2.447   0.799  12.729  0.0823  0.0977  0.1325
 6729TIP3    H141678   2.423   0.886  12.697 -1.2912 -1.0210 -2.1260
 6729TIP3    H241679   2.364   0.759  12.755  0.8321 -0.1619  2.3146
 6730TIP3   OH241680   3.115   2.671   1.370 -0.5263 -0.3134 -0.1422
 6730TIP3    H141681   3.043   2.731   1.392 -1.1930 -1.2024  0.1315
 6730TIP3    H241682   3.183   2.692   1.434 -0.8282  0.0083  0.0814
 6731TIP3   OH241683   5.564   0.565  14.796 -0.3151  0.6509  0.1411
 6731TIP3    H141684   5.560   0.517  14.878 -0.5885 -1.9908 -1.3303
 6731TIP3    H241685   5.480   0.611  14.790 -0.5315  0.3824  1.0228
 6732TIP3   OH241686   2.056   2.249  11.574  0.2116 -0.4752 -0.5035
 6732TIP3    H141687   1.990   2.215  11.513  1.3928  2.1349 -3.5446
 6732TIP3    H241688   2.020   2.232  11.661 -2.5609 -2.6662 -1.9113
 6733TIP3   OH241689   6.666   5.115  12.728 -0.4270  0.1383 -0.2810
 6733TIP3    H141690   6.660   5.194  12.781 -0.8896  0.4898 -0.8618
 6733TIP3    H241691   6.760   5.104  12.712 -0.3913  0.7772 -0.5196
 6734TIP3   OH241692   4.733   1.429  13.023 -0.6910  0.3535 -0.0609
 6734TIP3    H141693   4.706   1.379  13.100  2.5575  0.5230  1.3494
 6734TIP3    H241694   4.793   1.371  12.976  2.0610  2.2604  0.8586
 6735TIP3   OH241695   4.218   3.348  10.831 -0.5595  0.7468 -0.2981
 6735TIP3    H141696   4.165   3.396  10.767 -1.8436  0.2380  0.3277
 6735TIP3    H241697   4.257   3.276  10.782 -2.7319 -0.5326 -0.2975
 6736TIP3   OH241698   4.305   0.078  14.576 -0.2188  0.3565  0.3057
 6736TIP3    H141699   4.240   0.086  14.646  0.2158 -0.7628  0.8686
 6736TIP3    H241700   4.383   0.123  14.610  0.1739 -0.6686  0.7974
 6737TIP3   OH241701   3.562   0.343  14.908  0.2141 -0.3831  0.5575
 6737TIP3    H141702   3.613   0.266  14.930 -1.6055 -1.4833  1.1558
 6737TIP3    H241703   3.474   0.324  14.941 -0.7918  1.0807 -1.1066
 6738TIP3   OH241704   3.399   1.468  11.145  0.0561  0.2060  0.3635
 6738TIP3    H141705   3.436   1.399  11.090 -0.4678 -0.7921  1.2309
 6738TIP3    H241706   3.376   1.538  11.083 -0.2129 -0.7506 -0.6530
 6739TIP3   OH241707   3.509   2.829   4.891 -0.2210  0.5526 -0.1085
 6739TIP3    H141708   3.418   2.856   4.904 -0.5085 -0.3456 -0.1365
 6739TIP3    H241709   3.517   2.817   4.796  0.4416  2.3002 -0.3035
 6740TIP3   OH241710   1.024   5.281   3.271 -0.4023 -0.2698  0.5424
 6740TIP3    H141711   0.942   5.236   3.253 -0.4985  0.2061 -0.2492
 6740TIP3    H241712   1.088   5.240   3.212  0.3535 -1.8142  2.3352
 6741TIP3   OH241713   3.363   4.607   1.818  0.0425  0.7067  0.2369
 6741TIP3    H141714   3.421   4.667   1.865 -1.0396  2.6610 -0.7847
 6741TIP3    H241715   3.312   4.565   1.887  1.5273  0.1520  1.0450
 6742TIP3   OH241716   0.962   0.783   0.629 -0.0657 -0.1968  0.2702
 6742TIP3    H141717   0.954   0.878   0.620  1.5373 -0.1831 -2.4962
 6742TIP3    H241718   0.984   0.769   0.721  0.2146  2.1677  0.6302
 6743TIP3   OH241719   5.253   5.101  11.913 -0.9189  0.1113  0.0800
 6743TIP3    H141720   5.200   5.179  11.897  0.9531  1.5770  0.6946
 6743TIP3    H241721   5.203   5.050  11.977 -2.3078  0.6338 -0.5536
 6744TIP3   OH241722   3.833   5.714   0.867  0.1268 -0.1492  0.7833
 6744TIP3    H141723   3.739   5.731   0.879  0.1021 -1.1874  2.4076
 6744TIP3    H241724   3.837   5.626   0.831  0.4726  0.1482  0.0824
 6745TIP3   OH241725   2.641   0.407   1.827  0.0477 -0.3073 -0.6771
 6745TIP3    H141726   2.585   0.484   1.833 -0.1181 -0.4858  0.3213
 6745TIP3    H241727   2.678   0.410   1.739 -2.2910 -0.6915 -1.7616
 6746TIP3   OH241728   4.525   2.469  15.667  0.6208  0.2657 -0.2111
 6746TIP3    H141729   4.562   2.454  15.580 -0.8605 -0.1769 -0.8018
 6746TIP3    H241730   4.534   2.563  15.682  2.2637  0.1324 -0.1629
 6747TIP3   OH241731   4.127   3.225   1.697 -0.0352  0.1000  0.1260
 6747TIP3    H141732   4.052   3.266   1.654  1.0175 -0.0821 -2.0113
 6747TIP3    H241733   4.125   3.135   1.667 -0.4093 -0.6340  2.1585
 6748TIP3   OH241734   1.961   6.326  11.717  0.2249  0.4272 -0.0223
 6748TIP3    H141735   1.897   6.294  11.653  2.4230 -2.2752 -1.0432
 6748TIP3    H241736   2.033   6.360  11.664  1.4870 -0.5696  0.9902
 6749TIP3   OH241737   5.876   1.964   5.083 -0.4811 -0.1387 -0.0202
 6749TIP3    H141738   5.920   2.028   5.138 -0.9299  1.1874 -1.1246
 6749TIP3    H241739   5.810   2.015   5.035 -0.4244 -1.2934 -1.4148
 6750TIP3   OH241740   3.469   3.964   3.781  0.4271  0.2661 -0.1433
 6750TIP3    H141741   3.481   4.039   3.839  1.8109  0.3290 -0.4753
 6750TIP3    H241742   3.386   3.926   3.809  0.8638  0.5069  1.6389
 6751TIP3   OH241743   2.668   2.872  10.435 -0.0822 -0.5243  0.0031
 6751TIP3    H141744   2.652   2.963  10.460  2.1086  0.0265 -0.4091
 6751TIP3    H241745   2.675   2.825  10.518  0.9849  0.1220  0.2925
 6752TIP3   OH241746   6.208   4.108  13.835 -0.2397  0.1436 -0.0837
 6752TIP3    H141747   6.274   4.066  13.779 -1.1433 -2.3540  0.6005
 6752TIP3    H241748   6.231   4.079  13.924 -1.5164  0.2547  0.2971
 6753TIP3   OH241749   0.674   1.636  12.648 -0.9106 -0.6098 -0.0752
 6753TIP3    H141750   0.720   1.608  12.727 -0.8458 -0.8942 -0.2130
 6753TIP3    H241751   0.691   1.730  12.643  1.2395 -0.9835 -1.1376
 6754TIP3   OH241752   3.457   4.529  12.916 -0.2966 -0.4842  0.1962
 6754TIP3    H141753   3.492   4.492  12.835 -0.0194  0.6939 -0.2418
 6754TIP3    H241754   3.533   4.547  12.970 -0.3045  0.6693 -0.1434
 6755TIP3   OH241755   6.708   0.307   4.833 -0.0116 -0.4324 -0.2673
 6755TIP3    H141756   6.748   0.379   4.785 -0.5610  0.2491  0.2680
 6755TIP3    H241757   6.759   0.230   4.809  1.2044  0.3022 -0.1038
 6756TIP3   OH241758   4.699   3.694   5.033 -0.4041 -0.2223 -0.4912
 6756TIP3    H141759   4.682   3.634   5.105  0.0578  0.5719  0.3033
 6756TIP3    H241760   4.726   3.637   4.961 -0.8645 -1.0304 -0.0450
 6757TIP3   OH241761   3.199   4.886   4.390 -0.4058 -0.4021  0.1045
 6757TIP3    H141762   3.128   4.825   4.369 -1.0449  0.5353 -0.5330
 6757TIP3    H241763   3.190   4.956   4.325  0.7078  0.0529  0.4285
 6758TIP3   OH241764   6.375   4.191   1.273 -0.7142  0.0474  0.3498
 6758TIP3    H141765   6.419   4.183   1.357  1.0976  0.4965 -0.4995
 6758TIP3    H241766   6.430   4.251   1.222 -2.2041  0.4453 -0.8693
 6759TIP3   OH241767   0.117   2.133   3.480 -0.1686 -0.1095  0.0607
 6759TIP3    H141768   0.111   2.132   3.384  1.0610  0.9837 -0.0524
 6759TIP3    H241769   0.122   2.041   3.504  0.7148 -0.3718 -1.0279
 6760TIP3   OH241770   0.649   0.064   2.139  0.3630 -0.4229  0.1534
 6760TIP3    H141771   0.655   0.132   2.072  0.0818 -0.3380  0.2136
 6760TIP3    H241772   0.697  -0.010   2.102 -0.2364 -0.5580 -0.3683
 6761TIP3   OH241773   2.947   4.802  14.665 -0.5098  0.0064  0.5771
 6761TIP3    H141774   2.997   4.817  14.745  0.7840  0.3326 -0.2652
 6761TIP3    H241775   2.954   4.885  14.616  1.1576 -1.0902 -1.1583
 6762TIP3   OH241776   5.586   0.376  12.909 -0.1859 -0.3696 -0.1272
 6762TIP3    H141777   5.668   0.414  12.879 -0.4694  1.7829  1.5873
 6762TIP3    H241778   5.583   0.393  13.003 -2.2558 -1.0507  0.0033
 6763TIP3   OH241779   4.638   4.581  15.773 -0.0023 -0.0406 -0.1310
 6763TIP3    H141780   4.576   4.548  15.839 -2.3431  2.6428 -0.7952
 6763TIP3    H241781   4.658   4.670  15.803 -1.3487  1.3642 -3.0488
 6764TIP3   OH241782   0.527   0.542  15.024 -0.3133 -0.1541 -0.1408
 6764TIP3    H141783   0.475   0.599  15.081  0.8559  1.1831 -0.3553
 6764TIP3    H241784   0.593   0.600  14.986  0.3051 -1.4688 -1.1531
 6765TIP3   OH241785   2.545   2.499   5.697  0.6891 -0.1762  0.0364
 6765TIP3    H141786   2.584   2.459   5.775  1.8728  0.4815 -0.2080
 6765TIP3    H241787   2.453   2.472   5.700  0.8608 -0.6661  1.3261
 6766TIP3   OH241788   0.039   5.248  12.108  0.3624  0.1855  0.2241
 6766TIP3    H141789   0.013   5.171  12.058  0.3516  0.7861 -0.7275
 6766TIP3    H241790  -0.038   5.304  12.107  0.3861  0.2335  0.8708
 6767TIP3   OH241791   4.819   0.050   4.331 -0.1267  0.1692 -0.7257
 6767TIP3    H141792   4.822  -0.023   4.269 -4.0960  1.1842 -2.3819
 6767TIP3    H241793   4.826   0.008   4.417 -0.7890 -2.0137 -1.6671
 6768TIP3   OH241794   4.101   1.512   0.197  0.1072  0.4380  0.0753
 6768TIP3    H141795   4.099   1.592   0.249 -0.6467 -0.4040  1.3915
 6768TIP3    H241796   4.158   1.533   0.123  1.4639  1.5974  1.3778
 6769TIP3   OH241797   3.854   3.156   0.940 -0.1108  0.1337 -0.7045
 6769TIP3    H141798   3.834   3.160   1.034 -0.2098 -1.5668 -0.6104
 6769TIP3    H241799   3.790   3.215   0.899 -1.5607 -0.7964  0.1178
 6770TIP3   OH241800   0.799   6.531   2.433  0.1468  0.1359  0.1967
 6770TIP3    H141801   0.776   6.525   2.340 -1.9190  0.9056  0.6134
 6770TIP3    H241802   0.804   6.440   2.462 -0.6888 -0.0987 -0.3535
 6771TIP3   OH241803   0.023   3.545   5.199  0.4231  0.3064  0.2140
 6771TIP3    H141804  -0.045   3.508   5.142  0.7296 -0.9516  0.6291
 6771TIP3    H241805   0.105   3.519   5.158  0.6710  1.4347 -0.0346
 6772TIP3   OH241806   1.697   0.801   2.527  0.6533  0.3596 -0.0206
 6772TIP3    H141807   1.692   0.817   2.433 -3.4047  2.4951  0.3326
 6772TIP3    H241808   1.661   0.713   2.538  0.9553  0.1798 -0.4260
 6773TIP3   OH241809   2.657   2.519   4.234  0.0431  0.7292  0.4903
 6773TIP3    H141810   2.580   2.465   4.218 -0.9052  2.0139  0.5848
 6773TIP3    H241811   2.731   2.464   4.207 -0.8384 -0.7664  0.9989
 6774TIP3   OH241812   2.694   5.302   3.319 -0.4352 -0.3735  0.2752
 6774TIP3    H141813   2.627   5.359   3.282 -1.0735 -1.4583 -0.2803
 6774TIP3    H241814   2.674   5.215   3.286  0.5444 -0.9359  1.0655
 6775TIP3   OH241815   6.690   2.410   1.583  0.0007  0.0436 -0.6845
 6775TIP3    H141816   6.776   2.415   1.626 -0.3040 -0.1192 -0.0415
 6775TIP3    H241817   6.711   2.396   1.490  0.6756  0.6203 -0.6310
 6776TIP3   OH241818   4.848   1.565   0.577 -0.1796 -0.1813 -0.1851
 6776TIP3    H141819   4.927   1.559   0.524  0.4816  0.2495  0.7248
 6776TIP3    H241820   4.781   1.521   0.525  0.4695  0.1332 -1.3161
 6777TIP3   OH241821   0.977   5.790  13.540 -0.1520  0.2438  0.1504
 6777TIP3    H141822   0.956   5.860  13.602 -1.1843  0.9764 -0.9915
 6777TIP3    H241823   1.044   5.827  13.483 -0.0608 -0.0160  0.0858
 6778TIP3   OH241824   5.672   0.617   4.702 -0.5748  0.0663 -0.0152
 6778TIP3    H141825   5.731   0.620   4.778  0.2250 -0.3023 -0.6093
 6778TIP3    H241826   5.663   0.708   4.675  0.1257  0.0786 -0.2203
 6779TIP3   OH241827   5.253   5.664  12.135  0.4422  0.1064 -0.2266
 6779TIP3    H141828   5.267   5.571  12.158  0.7726  0.0746 -0.5446
 6779TIP3    H241829   5.238   5.663  12.041 -0.1847  0.3155 -0.1288
 6780TIP3   OH241830   1.681   6.641  15.606  0.0501  0.2108  0.3378
 6780TIP3    H141831   1.672   6.548  15.585 -0.6987  0.3298  0.1194
 6780TIP3    H241832   1.769   6.664  15.575 -0.3290 -0.0603 -0.9826
 6781TIP3   OH241833   5.112   2.028   0.531 -0.2819 -0.5683  0.0426
 6781TIP3    H141834   5.113   1.984   0.615 -0.1887 -0.4101  0.1243
 6781TIP3    H241835   5.026   2.070   0.526 -0.0589 -0.0737  0.3209
 6782TIP3   OH241836   5.680   5.907   1.732  0.2418  0.2340  0.3880
 6782TIP3    H141837   5.605   5.867   1.777  0.9343  0.5206  1.8737
 6782TIP3    H241838   5.642   5.975   1.677 -0.7992 -1.2864 -0.8749
 6783TIP3   OH241839   2.164   3.608   4.567  0.1911  0.4833  0.3508
 6783TIP3    H141840   2.230   3.631   4.632 -0.7352 -1.5081  2.0970
 6783TIP3    H241841   2.192   3.522   4.534 -0.3154  0.6589 -0.5648
 6784TIP3   OH241842   0.224   1.919  16.640 -0.0258 -0.4772 -0.1956
 6784TIP3    H141843   0.220   1.824  16.629 -2.0065 -0.5005  0.4064
 6784TIP3    H241844   0.314   1.936  16.668  0.0066 -2.3175  0.9333
 6785TIP3   OH241845   3.876   1.453  14.030 -0.3820 -0.5337  0.0919
 6785TIP3    H141846   3.881   1.549  14.032  0.1849 -0.5534  1.7902
 6785TIP3    H241847   3.866   1.431  13.938  0.2835  1.1230 -0.4123
 6786TIP3   OH241848   2.674   1.695  11.463 -0.1925 -0.6107  0.0256
 6786TIP3    H141849   2.667   1.599  11.469  1.2188 -0.7109  0.4687
 6786TIP3    H241850   2.682   1.724  11.554 -0.4743 -0.0731 -0.1172
 6787TIP3   OH241851   2.162   3.647  16.817 -0.2285  0.1444  0.2388
 6787TIP3    H141852   2.228   3.581  16.796 -0.6982  0.0497 -1.0221
 6787TIP3    H241853   2.150   3.639  16.912 -0.2479 -1.5750  0.1318
 6788TIP3   OH241854   3.121   3.416   1.477  0.1302 -0.6523  0.2447
 6788TIP3    H141855   3.042   3.394   1.427 -0.5620 -0.2510  1.1397
 6788TIP3    H241856   3.190   3.364   1.436 -0.4369 -0.4431 -1.0432
 6789TIP3   OH241857   6.461   0.081   3.849  0.2085  0.4270  0.6296
 6789TIP3    H141858   6.370   0.051   3.852  1.0384 -2.2291  2.3649
 6789TIP3    H241859   6.458   0.160   3.795 -2.5954 -1.4393 -2.3236
 6790TIP3   OH241860   2.917   0.494  12.016  0.6980 -0.0586  0.5964
 6790TIP3    H141861   2.953   0.419  11.968  1.5618 -1.3593  3.1054
 6790TIP3    H241862   2.842   0.521  11.964  1.2189 -1.7258 -1.1650
 6791TIP3   OH241863   0.718   5.290   0.718  0.0647  0.6018 -0.4476
 6791TIP3    H141864   0.803   5.254   0.743 -0.5343  0.4689  1.5852
 6791TIP3    H241865   0.702   5.360   0.781 -1.1764  0.8911 -1.0514
 6792TIP3   OH241866   4.670   2.082   5.687  0.3512 -0.3261 -0.5239
 6792TIP3    H141867   4.657   1.988   5.695  1.3756 -0.5245 -1.0208
 6792TIP3    H241868   4.764   2.094   5.697 -0.0491  1.0237  2.9572
 6793TIP3   OH241869   6.052   4.967   0.812 -0.5586 -0.0024 -0.1179
 6793TIP3    H141870   6.037   4.874   0.794 -2.0417 -0.1364  1.6078
 6793TIP3    H241871   6.066   4.971   0.906 -2.7803  1.7654  0.1988
 6794TIP3   OH241872   3.199   4.526   2.025  0.2472 -0.1916  0.5426
 6794TIP3    H141873   3.228   4.462   2.090 -1.1667 -0.1462  1.2643
 6794TIP3    H241874   3.173   4.473   1.950  2.2925 -0.2191 -0.2083
 6795TIP3   OH241875   1.278   2.195   5.446  0.8151 -0.1423 -0.2786
 6795TIP3    H141876   1.343   2.264   5.458  0.1904  0.6373 -1.1829
 6795TIP3    H241877   1.293   2.163   5.357 -1.8513  2.1244 -1.7368
 6796TIP3   OH241878   4.913   2.494   6.317  0.4192 -0.6596  0.4140
 6796TIP3    H141879   4.894   2.414   6.368  0.4145 -0.4729  0.7083
 6796TIP3    H241880   4.827   2.532   6.300  0.2915 -1.6022 -1.1858
 6797TIP3   OH241881   6.164   3.347   5.485  0.0352 -0.6707  0.2659
 6797TIP3    H141882   6.253   3.313   5.474  0.7562  1.2704 -0.1959
 6797TIP3    H241883   6.121   3.330   5.402  0.3353 -0.5828  0.0928
 6798TIP3   OH241884   1.133   5.463  11.128 -0.2518  0.3957  0.4091
 6798TIP3    H141885   1.196   5.476  11.056 -0.8185 -1.3492 -0.4646
 6798TIP3    H241886   1.047   5.469  11.086 -0.6109  0.0071  1.0790
 6799TIP3   OH241887   3.118   3.128   5.811  0.3373 -0.0878 -0.1081
 6799TIP3    H141888   3.128   3.102   5.720 -1.0558  0.2415 -0.3817
 6799TIP3    H241889   3.185   3.079   5.858  0.6134 -0.7920 -1.2062
 6800TIP3   OH241890   2.403   1.126  16.467 -0.5156  0.2250 -0.0125
 6800TIP3    H141891   2.324   1.072  16.459 -0.3368 -0.2195  1.0658
 6800TIP3    H241892   2.474   1.062  16.471 -0.3512  0.4925  1.8964
 6801TIP3   OH241893   5.525   1.888  13.465  0.9848 -0.0314  0.5401
 6801TIP3    H141894   5.534   1.797  13.438 -2.2260 -1.0016  2.1905
 6801TIP3    H241895   5.576   1.894  13.546  1.0389 -0.4352  0.5404
 6802TIP3   OH241896   4.234   2.454  15.377  0.1962 -1.1830  0.1602
 6802TIP3    H141897   4.183   2.453  15.296 -2.4855 -2.5404  1.7029
 6802TIP3    H241898   4.224   2.365  15.412  2.3767 -1.0235  1.3745
 6803TIP3   OH241899   2.648   1.907  16.162  0.2249  0.2808 -0.3989
 6803TIP3    H141900   2.620   1.859  16.240  0.9865 -1.4506 -1.1499
 6803TIP3    H241901   2.614   1.856  16.089  1.4542  0.6271 -1.2431
 6804TIP3   OH241902   3.531   0.084  11.986 -0.2275  0.0445 -0.2396
 6804TIP3    H141903   3.470   0.156  11.999  0.1409  0.1276  1.1512
 6804TIP3    H241904   3.475   0.008  11.967 -0.6335  0.5669 -1.2018
 6805TIP3   OH241905   2.734   0.296   3.765  0.9017  0.0628  0.6728
 6805TIP3    H141906   2.747   0.355   3.691  0.7677  1.3266  1.6138
 6805TIP3    H241907   2.719   0.355   3.840  2.5577 -1.1289  2.0106
 6806TIP3   OH241908   1.877   6.498  12.819 -0.1650  0.9758  0.2556
 6806TIP3    H141909   1.865   6.440  12.743 -0.7936 -1.0340  1.7874
 6806TIP3    H241910   1.876   6.586  12.783  4.3463  0.1413 -2.7784
 6807TIP3   OH241911   5.011   3.102  14.687 -0.0959  0.0864  0.1737
 6807TIP3    H141912   4.942   3.049  14.648  0.0967 -0.2322  0.2565
 6807TIP3    H241913   5.090   3.047  14.680 -0.0121  0.1153  0.7969
 6808TIP3   OH241914   1.484   0.007  14.696 -0.3551 -0.3875  0.5091
 6808TIP3    H141915   1.395  -0.001  14.663 -0.3347 -1.3492  0.6520
 6808TIP3    H241916   1.493  -0.064  14.759  1.0883 -1.5248 -0.8688
 6809TIP3   OH241917   1.221   1.798   5.406 -0.0274  0.9145 -0.1294
 6809TIP3    H141918   1.142   1.849   5.421 -0.0640  1.2970 -1.5390
 6809TIP3    H241919   1.289   1.845   5.455 -0.3714  1.4384 -0.1419
 6810TIP3   OH241920   5.024   1.179   1.579 -0.0876 -0.0826 -0.6121
 6810TIP3    H141921   5.111   1.170   1.543  0.1012 -2.5122  0.2522
 6810TIP3    H241922   4.965   1.172   1.504  0.4294  1.1713 -1.1457
 6811TIP3   OH241923   6.645   1.452  12.228  0.1282  0.5682 -0.1785
 6811TIP3    H141924   6.584   1.515  12.265  1.2580  0.5874  1.7429
 6811TIP3    H241925   6.629   1.372  12.278  0.0909 -0.1146 -1.2537
 6812TIP3   OH241926   4.231   5.146  12.024  0.0129  0.4702 -0.2214
 6812TIP3    H141927   4.174   5.078  12.058 -0.1143  0.5926 -0.1875
 6812TIP3    H241928   4.179   5.190  11.956  0.7214 -0.6166 -1.5136
 6813TIP3   OH241929   2.894   6.624  15.077  0.4786 -0.2920 -0.4310
 6813TIP3    H141930   2.886   6.720  15.079 -0.0030 -0.3375 -0.0041
 6813TIP3    H241931   2.913   6.600  15.167 -2.1467 -0.8147  0.0739
 6814TIP3   OH241932   2.279   2.680  14.212  0.4444 -0.1758  0.4501
 6814TIP3    H141933   2.257   2.736  14.287  1.3127  0.2993  0.3629
 6814TIP3    H241934   2.225   2.602  14.224  1.1797 -0.4836  2.0531
 6815TIP3   OH241935   4.368   1.856  12.424 -0.5409  0.3609 -0.1366
 6815TIP3    H141936   4.427   1.867  12.350 -2.1680  1.2201 -1.3784
 6815TIP3    H241937   4.322   1.773  12.406 -0.6676  0.3719  0.1196
 6816TIP3   OH241938   0.472   1.690   1.873 -0.4769  0.1021  0.5420
 6816TIP3    H141939   0.559   1.682   1.912 -0.5355 -0.2573  0.6013
 6816TIP3    H241940   0.484   1.659   1.783 -0.9329 -1.7194  1.0789
 6817TIP3   OH241941   4.227   6.225  13.607 -0.2164 -0.0655 -0.3194
 6817TIP3    H141942   4.246   6.315  13.580 -2.1675  0.3994 -0.3295
 6817TIP3    H241943   4.306   6.176  13.586  0.8615  1.6251 -0.4052
 6818TIP3   OH241944   0.442   0.234  11.869 -0.0167  0.4744  0.2235
 6818TIP3    H141945   0.421   0.265  11.781 -0.6582 -0.8766 -0.1338
 6818TIP3    H241946   0.534   0.208  11.864  0.0751  0.8173  0.0838
 6819TIP3   OH241947   1.130   5.662  16.949 -0.3690 -0.5589  0.0207
 6819TIP3    H141948   1.179   5.650  17.030 -1.6033  0.8681  1.0531
 6819TIP3    H241949   1.190   5.710  16.892  0.6451 -1.8971 -0.0918
 6820TIP3   OH241950   1.546   6.688   3.584 -0.6945  0.0969  0.7184
 6820TIP3    H141951   1.506   6.641   3.511 -1.2612  2.7305 -0.8155
 6820TIP3    H241952   1.606   6.751   3.542  0.0312  0.7361  2.6093
 6821TIP3   OH241953   0.514   5.432   4.448  0.0183  0.2603  0.4778
 6821TIP3    H141954   0.492   5.513   4.494 -2.1173  0.0055 -0.0199
 6821TIP3    H241955   0.481   5.445   4.359  2.8644  0.2091 -0.6909
 6822TIP3   OH241956   5.076   3.133  11.595 -0.6569 -0.0706  0.1289
 6822TIP3    H141957   4.988   3.102  11.574 -0.8373  0.7199 -0.3205
 6822TIP3    H241958   5.121   3.138  11.510 -0.1061 -0.6709  0.3764
 6823TIP3   OH241959   1.251   2.667  11.584 -0.6578  0.4663  0.7085
 6823TIP3    H141960   1.317   2.601  11.601 -1.2958 -0.1333  0.8891
 6823TIP3    H241961   1.296   2.751  11.599  0.2310  0.0942  0.1939
 6824TIP3   OH241962   0.154   6.695   4.407  0.0213 -0.2158  0.6107
 6824TIP3    H141963   0.105   6.637   4.348  1.0870  0.1424 -0.6719
 6824TIP3    H241964   0.181   6.768   4.351 -0.0968  0.8351  1.8812
 6825TIP3   OH241965   3.961   3.133  14.968  0.8086  0.4656  0.2421
 6825TIP3    H141966   3.932   3.124  15.059  0.4465  0.6929  0.1511
 6825TIP3    H241967   3.912   3.208  14.935 -0.1867 -0.5214 -0.5899
 6826TIP3   OH241968   3.406   4.297   0.127  0.2643 -0.2874 -0.4176
 6826TIP3    H141969   3.322   4.313   0.085  0.1798 -2.0059 -0.9969
 6826TIP3    H241970   3.392   4.218   0.179  1.4000 -0.3258 -0.1441
 6827TIP3   OH241971   4.977   6.689   5.474  0.3262 -0.1413  0.1771
 6827TIP3    H141972   4.954   6.602   5.442 -0.8578  0.5501 -0.9704
 6827TIP3    H241973   5.021   6.673   5.558 -1.2246 -1.7676  0.7603
 6828TIP3   OH241974   0.180   2.440   0.969  0.0226 -0.0565 -0.3536
 6828TIP3    H141975   0.238   2.382   0.920  0.0808  0.2985 -0.7103
 6828TIP3    H241976   0.119   2.381   1.013  0.0632 -0.3912 -0.7338
 6829TIP3   OH241977   2.279   0.119  11.962 -0.2187  0.1208  0.2425
 6829TIP3    H141978   2.348   0.061  11.931 -0.4711  0.5754 -1.2219
 6829TIP3    H241979   2.306   0.207  11.935 -0.9169  0.4192  0.4837
 6830TIP3   OH241980   5.171   0.677  14.461  0.2501  0.2194  0.2646
 6830TIP3    H141981   5.186   0.747  14.398  1.5903 -0.7012 -0.4807
 6830TIP3    H241982   5.242   0.687  14.525  2.2393 -2.0997 -1.4022
 6831TIP3   OH241983   6.407   5.893  14.164  0.0758  0.2136 -0.5556
 6831TIP3    H141984   6.313   5.906  14.151  0.1584 -0.0556 -1.5286
 6831TIP3    H241985   6.419   5.798  14.161  0.1956  0.1635  1.0434
 6832TIP3   OH241986   4.019   4.408   5.752  0.7722  0.0570  0.0341
 6832TIP3    H141987   3.984   4.391   5.839 -0.7709  3.9512  0.3551
 6832TIP3    H241988   4.102   4.454   5.767 -0.9936  3.6927 -0.2394
 6833TIP3   OH241989   2.491   1.262  15.816  0.3108 -0.0769 -0.7137
 6833TIP3    H141990   2.515   1.309  15.737  0.6200  2.1195  0.6112
 6833TIP3    H241991   2.446   1.326  15.871  1.3484 -1.0674  1.4667
 6834TIP3   OH241992   4.935   3.633  10.883  0.1138 -0.3630  0.1906
 6834TIP3    H141993   4.947   3.629  10.788 -1.5640  0.6586 -0.0933
 6834TIP3    H241994   4.898   3.548  10.906 -2.3610  0.4376 -0.5697
 6835TIP3   OH241995   2.099   5.659   5.814  0.1191 -0.5098 -0.3310
 6835TIP3    H141996   2.099   5.614   5.898  0.8836  1.6698  0.9123
 6835TIP3    H241997   2.051   5.600   5.756 -2.1368 -1.2560  2.0805
 6836TIP3   OH241998   4.616   1.873   1.548  0.3198 -0.7959 -0.8178
 6836TIP3    H141999   4.672   1.938   1.506  0.8875 -1.8283 -1.6953
 6836TIP3    H242000   4.677   1.805   1.578 -0.0608 -0.1936  1.5901
 6837TIP3   OH242001   1.416   6.488  14.608  0.0592  0.0860 -0.0341
 6837TIP3    H142002   1.431   6.548  14.682 -1.2609 -0.7867  0.9842
 6837TIP3    H242003   1.422   6.544  14.530 -0.6362  1.4523  0.8585
 6838TIP3   OH242004   1.170   1.209   2.885 -0.8035  0.2301  0.1613
 6838TIP3    H142005   1.133   1.227   2.972 -0.7554  2.2486 -0.1808
 6838TIP3    H242006   1.110   1.251   2.824 -0.0603  0.0900 -0.6836
 6839TIP3   OH242007   3.564   5.517   2.638 -0.1800  0.2386  0.2160
 6839TIP3    H142008   3.526   5.563   2.713 -1.2350 -1.0266  0.4887
 6839TIP3    H242009   3.524   5.430   2.641 -0.3869  0.2205 -1.9315
 6840TIP3   OH242010   6.277   3.130  15.037  0.0014 -0.3034  0.6225
 6840TIP3    H142011   6.349   3.104  15.095  1.2954  0.7682 -0.4297
 6840TIP3    H242012   6.256   3.219  15.064  2.3227  1.2097 -1.9988
 6841TIP3   OH242013   4.699   0.994   6.389 -0.4811 -0.3823 -0.1838
 6841TIP3    H142014   4.735   0.962   6.472 -1.7185  0.3957  0.6881
 6841TIP3    H242015   4.774   1.036   6.346  0.0110 -0.0775  0.9131
 6842TIP3   OH242016   5.106   3.930  15.556  0.1727 -0.1877  0.0688
 6842TIP3    H142017   5.101   4.014  15.509 -1.1184 -0.7767 -0.9260
 6842TIP3    H242018   5.092   3.953  15.648  0.1568  0.7258 -0.1524
 6843TIP3   OH242019   5.163   5.995  11.512 -0.5637  0.0869 -0.0925
 6843TIP3    H142020   5.190   6.009  11.421  0.0440 -0.8464 -0.0638
 6843TIP3    H242021   5.186   6.077  11.557 -2.2514  1.1578 -1.0590
 6844TIP3   OH242022   1.872   0.585   4.168  0.4537 -0.0444  0.0790
 6844TIP3    H142023   1.945   0.527   4.149  1.5183  1.5431 -0.9172
 6844TIP3    H242024   1.842   0.616   4.082  1.9811  3.2620  0.5923
 6845TIP3   OH242025   3.638   1.413   6.811 -0.2291 -0.5957  0.3016
 6845TIP3    H142026   3.604   1.462   6.736 -0.0169  0.5351  0.9185
 6845TIP3    H242027   3.561   1.392   6.863 -0.2552 -0.2949  0.3882
 6846TIP3   OH242028   5.897   3.432   3.131 -0.6949 -0.1830  0.3523
 6846TIP3    H142029   5.813   3.387   3.138 -1.4835  1.3796  1.7958
 6846TIP3    H242030   5.911   3.442   3.037 -2.8741  0.7648  0.0662
 6847TIP3   OH242031   3.375   1.698  15.288 -0.7828  0.3176  0.2916
 6847TIP3    H142032   3.353   1.637  15.219 -0.8565 -0.2203  0.7826
 6847TIP3    H242033   3.313   1.678  15.359 -0.4331  0.5685  0.6751
 6848TIP3   OH242034   4.537   4.320   3.656  0.4614  0.1462 -0.3210
 6848TIP3    H142035   4.617   4.308   3.707 -1.2056 -0.6187  2.3497
 6848TIP3    H242036   4.508   4.231   3.635 -0.0818  0.3694 -0.5358
 6849TIP3   OH242037   6.250   2.925   0.597 -0.2109  0.6130 -0.5690
 6849TIP3    H142038   6.219   2.848   0.644  0.9625  0.5342  0.1130
 6849TIP3    H242039   6.344   2.910   0.585  0.2799  2.4028  0.5662
 6850TIP3   OH242040   2.517   4.547   2.662  0.2802  0.4684  0.4752
 6850TIP3    H142041   2.545   4.557   2.753  0.9103 -0.4775  0.3989
 6850TIP3    H242042   2.430   4.587   2.659  1.8559  4.3379  0.5434
 6851TIP3   OH242043   6.675   1.713  12.073 -0.1556 -0.4961 -0.0371
 6851TIP3    H142044   6.618   1.684  12.002  1.0906 -0.1775 -1.2212
 6851TIP3    H242045   6.739   1.771  12.030  0.8975 -0.6455  1.2660
 6852TIP3   OH242046   2.954   0.424  14.072 -0.0527 -0.5043  0.0241
 6852TIP3    H142047   2.990   0.378  14.148  3.9336  2.0238 -0.0791
 6852TIP3    H242048   2.905   0.497  14.109  2.8858  1.4337  0.3650
 6853TIP3   OH242049   2.671   5.677  14.375  0.2926 -0.0424 -0.1596
 6853TIP3    H142050   2.645   5.743  14.311 -0.9575 -0.0860  0.2785
 6853TIP3    H242051   2.615   5.694  14.451  0.0181 -1.5409 -0.0051
 6854TIP3   OH242052   3.395   5.785  12.858 -0.0399  0.0939 -0.0652
 6854TIP3    H142053   3.388   5.868  12.811  0.2393  0.6456  0.8390
 6854TIP3    H242054   3.453   5.732  12.803 -1.7508 -0.2369 -1.6258
 6855TIP3   OH242055   0.051   4.035  15.903 -0.7137 -0.0305  0.1721
 6855TIP3    H142056   0.101   4.085  15.967  1.0136 -3.4174  1.7017
 6855TIP3    H242057  -0.019   3.993  15.953  0.2578 -2.2021 -0.1790
 6856TIP3   OH242058   4.777   6.195  12.681 -0.5942 -0.1278 -0.0052
 6856TIP3    H142059   4.857   6.173  12.728 -0.5961  1.3136  0.7469
 6856TIP3    H242060   4.801   6.195  12.589  0.8355  2.2300  0.2928
 6857TIP3   OH242061   1.543   6.353  15.298  0.0418 -0.2945 -0.6822
 6857TIP3    H142062   1.617   6.372  15.355  0.5707 -0.8525 -1.1699
 6857TIP3    H242063   1.477   6.315  15.356  0.5368 -0.7689 -0.4160
 6858TIP3   OH242064   3.167   6.123  16.793  0.4692 -0.4978 -0.2717
 6858TIP3    H142065   3.154   6.029  16.790  1.7126 -0.6768 -0.5872
 6858TIP3    H242066   3.177   6.143  16.886 -0.2675 -0.5905 -0.1639
 6859TIP3   OH242067   6.541   6.679  13.721 -0.0119 -0.3602  0.0151
 6859TIP3    H142068   6.506   6.602  13.675 -0.8500 -0.0714  0.1420
 6859TIP3    H242069   6.634   6.661  13.732  0.0322 -0.8354 -1.0082
 6860TIP3   OH242070   0.697   2.918  14.793  0.5179 -0.1394 -0.6350
 6860TIP3    H142071   0.625   2.926  14.855 -1.1089 -1.4052 -2.2577
 6860TIP3    H242072   0.677   2.839  14.742  2.5474  0.0081 -1.7897
 6861TIP3   OH242073   6.623   5.217   1.810 -0.6335  0.4545  0.2926
 6861TIP3    H142074   6.661   5.192   1.725  1.9976 -0.2128  1.5465
 6861TIP3    H242075   6.558   5.284   1.789  0.7069  1.1048 -2.1701
 6862TIP3   OH242076   4.737   6.755  16.410  0.4616  0.0121 -0.0337
 6862TIP3    H142077   4.695   6.685  16.460 -0.4714 -0.8471 -1.8995
 6862TIP3    H242078   4.829   6.749  16.434  0.5709 -2.4947 -0.7617
 6863TIP3   OH242079   3.966   3.050  17.039  0.1139 -0.5013  0.1213
 6863TIP3    H142080   4.005   2.965  17.059 -0.1040 -0.6695 -0.1573
 6863TIP3    H242081   4.040   3.105  17.014  0.2974 -0.5065  0.6338
 6864TIP3   OH242082   2.852   4.172  11.372 -0.5398  0.1205 -0.0885
 6864TIP3    H142083   2.811   4.172  11.458  0.5614  1.8973  0.5021
 6864TIP3    H242084   2.937   4.129  11.385  0.1347  1.4292  0.0304
 6865TIP3   OH242085   1.319   2.691  12.134  0.0311  0.1841  0.6847
 6865TIP3    H142086   1.271   2.717  12.055 -3.4429  2.2200  3.1934
 6865TIP3    H242087   1.374   2.618  12.105 -1.8319  0.1023 -3.3586
 6866TIP3   OH242088   6.321   0.047   2.790 -0.0616  0.1456  0.8262
 6866TIP3    H142089   6.331   0.142   2.801  0.0362  0.3386 -0.7000
 6866TIP3    H242090   6.253   0.038   2.723  0.5310 -0.8309  0.3438
 6867TIP3   OH242091   6.164   3.353   0.071  0.6229  0.0885 -0.1980
 6867TIP3    H142092   6.118   3.437   0.076  0.9278  0.3098 -1.0454
 6867TIP3    H242093   6.225   3.355   0.146 -0.1301  0.1530  0.4235
 6868TIP3   OH242094   3.306   2.577   5.022 -0.4836 -0.3651 -0.1592
 6868TIP3    H142095   3.348   2.648   4.973 -1.7823  0.3875 -0.2435
 6868TIP3    H242096   3.294   2.507   4.957  1.4759 -1.0087  0.0979
 6869TIP3   OH242097   0.362   6.164   3.812 -0.0217 -0.0562  0.0826
 6869TIP3    H142098   0.292   6.117   3.767 -2.4841  1.3855  2.0917
 6869TIP3    H242099   0.400   6.099   3.872  0.1880 -0.7906 -0.8352
 6870TIP3   OH242100   5.440   5.040   0.055  0.0752  0.1485  0.1375
 6870TIP3    H142101   5.521   4.994   0.074  1.0112  1.3063 -0.8908
 6870TIP3    H242102   5.371   4.975   0.074  1.2140 -0.8789  0.9423
 6871TIP3   OH242103   1.333   3.521   0.631  0.3473  0.6890 -0.0340
 6871TIP3    H142104   1.421   3.557   0.636  1.0392 -0.5258 -2.0631
 6871TIP3    H242105   1.346   3.429   0.608 -1.4509  0.6421 -1.1150
 6872TIP3   OH242106   3.973   6.342  11.684 -0.8244 -0.3997  0.5089
 6872TIP3    H142107   3.889   6.316  11.645 -0.6775  1.0395 -0.9169
 6872TIP3    H242108   3.948   6.399  11.757 -1.1332  0.3035 -0.1189
 6873TIP3   OH242109   0.538   2.765  14.995  0.3703 -0.4352 -0.1447
 6873TIP3    H142110   0.534   2.786  15.089  1.1560  0.2839 -0.2577
 6873TIP3    H242111   0.465   2.706  14.981 -1.4893  1.6231  0.3796
 6874TIP3   OH242112   0.534   1.858  13.884  0.0179  0.1107 -0.2602
 6874TIP3    H142113   0.479   1.779  13.879  0.4189 -0.1454 -0.7903
 6874TIP3    H242114   0.494   1.910  13.953 -1.2855  0.2385 -1.0576
 6875TIP3   OH242115   2.922   4.690   1.662 -0.1278  0.0480 -0.9114
 6875TIP3    H142116   2.833   4.707   1.631 -0.3886 -2.2647 -1.6907
 6875TIP3    H242117   2.968   4.656   1.584  0.7807 -0.8684 -0.0088
 6876TIP3   OH242118   6.815   5.787  15.968 -0.0135 -0.6993 -0.6486
 6876TIP3    H142119   6.776   5.721  16.026  0.8886 -1.1382 -0.5223
 6876TIP3    H242120   6.773   5.869  15.994 -0.6156 -1.1054 -0.3103
 6877TIP3   OH242121   0.005   5.480  14.236 -0.4835  0.1691  0.0330
 6877TIP3    H142122  -0.038   5.555  14.196 -0.2763  0.7192  0.8077
 6877TIP3    H242123   0.073   5.518  14.291 -0.1057 -0.6103  0.1209
 6878TIP3   OH242124   1.811   1.294  16.257  0.3317  0.6559 -0.0960
 6878TIP3    H142125   1.813   1.296  16.161  1.6512  0.6202 -0.0760
 6878TIP3    H242126   1.783   1.205  16.279 -0.3712  0.7819 -0.4304
 6879TIP3   OH242127   4.018   1.014  14.610  0.6353 -0.7303  0.1897
 6879TIP3    H142128   3.980   0.926  14.612 -0.1998 -0.4047 -0.6660
 6879TIP3    H242129   4.099   1.004  14.559  0.5720 -1.0075  0.1416
 6880TIP3   OH242130   3.923   6.436  12.608 -0.5751 -0.0840  0.7827
 6880TIP3    H142131   3.897   6.528  12.609 -0.3112  0.0169 -0.2685
 6880TIP3    H242132   4.006   6.436  12.561 -1.6873 -1.1151 -1.3052
 6881TIP3   OH242133   0.700   4.402  14.800  0.4587 -0.2490  0.5202
 6881TIP3    H142134   0.719   4.339  14.869  0.8693 -0.5782  0.1125
 6881TIP3    H242135   0.624   4.364  14.754  2.5450 -2.1056 -1.6815
 6882TIP3   OH242136   5.764   5.933  10.819 -0.2170  0.5925  0.4418
 6882TIP3    H142137   5.681   5.895  10.849 -1.6229  3.2921  0.3468
 6882TIP3    H242138   5.821   5.930  10.896 -1.5152  1.4741  1.4846
 6883TIP3   OH242139   4.171   1.597  12.603 -0.0117  0.1359  0.0465
 6883TIP3    H142140   4.096   1.582  12.545  2.1947  0.2934 -3.0667
 6883TIP3    H242141   4.213   1.512  12.610  0.2728  0.3216  0.7128
 6884TIP3   OH242142   4.596   1.305   2.646  0.8305 -0.4986  0.3741
 6884TIP3    H142143   4.692   1.300   2.651  0.8510 -2.4408 -0.8109
 6884TIP3    H242144   4.566   1.256   2.722  0.7777 -0.2146  0.5365
 6885TIP3   OH242145   3.403   4.377  12.377 -0.6726 -0.1864 -0.1595
 6885TIP3    H142146   3.315   4.379  12.339  0.0147  3.2887 -2.0033
 6885TIP3    H242147   3.396   4.431  12.456 -0.2999 -0.2870 -0.0585
 6886TIP3   OH242148   2.361   2.276   5.024 -0.1195  0.0944 -0.5192
 6886TIP3    H142149   2.270   2.299   5.039 -0.6622 -1.5012 -1.1335
 6886TIP3    H242150   2.385   2.223   5.100  0.5315  1.0743 -0.0210
 6887TIP3   OH242151   0.690   0.322   5.308 -0.0381  0.4590 -0.8184
 6887TIP3    H142152   0.648   0.326   5.221 -0.4929  0.4792 -0.6011
 6887TIP3    H242153   0.698   0.414   5.334  0.0594  0.4505 -0.8164
 6888TIP3   OH242154   6.596   3.270   5.330 -0.3944 -0.0763  0.0668
 6888TIP3    H142155   6.540   3.193   5.336 -1.6125  0.7993  0.2472
 6888TIP3    H242156   6.685   3.234   5.325 -0.9603 -1.5004 -0.3988
 6889TIP3   OH242157   3.566   6.738   6.412  0.0716 -0.6669 -0.1963
 6889TIP3    H142158   3.501   6.808   6.402  1.7970  0.9121 -0.9090
 6889TIP3    H242159   3.643   6.781   6.450  0.1782 -2.8428  2.3267
 6890TIP3   OH242160   5.519   3.263  15.174  0.1071  0.0939 -0.1106
 6890TIP3    H142161   5.483   3.191  15.226  3.1655 -0.1758  1.8794
 6890TIP3    H242162   5.444   3.297  15.126 -2.4262 -1.3816  2.4608
 6891TIP3   OH242163   5.208   1.060   2.335  0.3907  0.0715 -0.1677
 6891TIP3    H142164   5.127   1.094   2.297  0.3480  0.5398  0.3347
 6891TIP3    H242165   5.179   1.004   2.407  0.4852 -0.5681 -0.6109
 6892TIP3   OH242166   6.800   6.644  13.689  0.3372 -0.3983  0.0341
 6892TIP3    H142167   6.831   6.712  13.630  0.1088 -0.7444 -0.4927
 6892TIP3    H242168   6.877   6.622  13.742  0.8099 -0.7440 -0.7705
 6893TIP3   OH242169   1.303   3.356   2.466  0.2423 -0.4283  0.8438
 6893TIP3    H142170   1.264   3.356   2.553 -0.6273  0.2912  0.4692
 6893TIP3    H242171   1.323   3.448   2.449 -0.8008 -0.3706 -0.2262
 6894TIP3   OH242172   1.369   6.590  13.235  0.4035 -0.3099  0.4059
 6894TIP3    H142173   1.287   6.548  13.208  0.7456 -1.0268  0.4461
 6894TIP3    H242174   1.425   6.517  13.264  0.6489  0.2696  1.4636
 6895TIP3   OH242175   2.108   3.495   1.444 -0.6994 -0.9542 -0.3127
 6895TIP3    H142176   2.169   3.502   1.371 -1.6168 -1.0390 -1.1096
 6895TIP3    H242177   2.164   3.487   1.522  0.2879 -1.1953 -1.0306
 6896TIP3   OH242178   6.422   6.502  16.869 -0.5903 -0.4453 -0.2581
 6896TIP3    H142179   6.365   6.564  16.914  0.7706  0.8182 -0.2095
 6896TIP3    H242180   6.447   6.547  16.789  1.6747 -0.2387  0.5098
 6897TIP3   OH242181   4.776   4.481  11.414 -0.0585 -0.1135 -0.0860
 6897TIP3    H142182   4.689   4.465  11.375 -0.3688  0.0190  0.5465
 6897TIP3    H242183   4.771   4.570  11.448  0.1229 -0.3271  0.5035
 6898TIP3   OH242184   2.636   4.782   0.585 -0.1338 -0.0916 -0.2054
 6898TIP3    H142185   2.726   4.809   0.602  0.4746 -1.3647 -1.2275
 6898TIP3    H242186   2.586   4.817   0.659  1.2410  0.3556  0.5462
 6899TIP3   OH242187   4.094   3.314   0.989  0.1582  0.5180  0.0059
 6899TIP3    H142188   4.021   3.261   0.958  0.9514 -0.0892 -0.8846
 6899TIP3    H242189   4.111   3.281   1.077  0.7077 -0.8179 -0.5772
 6900TIP3   OH242190   0.490   4.556   2.230  0.6015 -0.1189  0.1331
 6900TIP3    H142191   0.518   4.633   2.181  1.6258 -0.6153 -0.0972
 6900TIP3    H242192   0.538   4.483   2.190 -1.9758 -1.2526 -1.1127
 6901TIP3   OH242193   6.629   0.592   5.510  1.1231 -0.5767  0.4109
 6901TIP3    H142194   6.684   0.668   5.492  0.8450 -0.4272  0.1910
 6901TIP3    H242195   6.601   0.562   5.424 -0.7340  0.5331  0.5704
 6902TIP3   OH242196   6.230   0.897   2.318  0.1620 -0.5218  0.2851
 6902TIP3    H142197   6.252   0.805   2.304 -0.7280 -0.6095 -0.6471
 6902TIP3    H242198   6.193   0.926   2.234  1.6113  1.0437  0.1222
 6903TIP3   OH242199   4.111   4.949  13.460  0.0871  0.3877  0.1143
 6903TIP3    H142200   4.053   4.974  13.532  1.0439  0.1472  0.9961
 6903TIP3    H242201   4.063   4.972  13.381 -0.5004  1.7771  0.8412
 6904TIP3   OH242202   5.097   2.007   2.668 -0.2978  0.5870  0.1524
 6904TIP3    H142203   5.020   2.047   2.626 -0.4365  1.8034  1.4907
 6904TIP3    H242204   5.087   2.027   2.761  1.5315  0.6019  0.3831
 6905TIP3   OH242205   0.552   3.917   2.020  0.1350  0.0259  0.2414
 6905TIP3    H142206   0.516   3.867   2.093 -0.4464 -0.4386 -0.3405
 6905TIP3    H242207   0.521   3.871   1.942 -1.3599  1.8857 -0.3520
 6906TIP3   OH242208   0.653   3.115  12.447  0.3508  0.8074 -0.0080
 6906TIP3    H142209   0.583   3.156  12.498  0.7300  1.0704  0.3110
 6906TIP3    H242210   0.707   3.189  12.416  2.5851  0.5342  2.8004
 6907TIP3   OH242211   5.777   4.106  16.560  0.5124  0.0510  0.2617
 6907TIP3    H142212   5.785   4.200  16.544 -0.3012  0.0870  0.0418
 6907TIP3    H242213   5.849   4.086  16.621  1.1762  0.6578 -0.3088
 6908TIP3   OH242214   5.521   1.946  10.522  0.0775 -0.0955 -0.3118
 6908TIP3    H142215   5.467   1.969  10.446 -2.3071  0.6914  1.4700
 6908TIP3    H242216   5.560   2.029  10.549 -1.7254  0.3412  1.1577
 6909TIP3   OH242217   1.873   2.122   0.826 -0.3936 -0.2307  0.1468
 6909TIP3    H142218   1.813   2.170   0.770  0.5500  0.7383 -0.0703
 6909TIP3    H242219   1.889   2.181   0.900  0.9254 -0.1017 -0.2082
 6910TIP3   OH242220   2.688   1.091   2.353  0.2738 -0.0751 -0.2048
 6910TIP3    H142221   2.610   1.051   2.314  1.0070 -2.1780  0.3554
 6910TIP3    H242222   2.687   1.062   2.445  1.3805  0.3975 -0.0248
 6911TIP3   OH242223   0.107   0.634   0.962 -0.1988 -0.3413 -0.2486
 6911TIP3    H142224   0.089   0.726   0.947 -1.0009 -0.7803 -2.3072
 6911TIP3    H242225   0.185   0.615   0.909  0.6469 -0.6147  1.0515
 6912TIP3   OH242226   6.485   1.578   5.764 -0.2959  0.1442 -0.2992
 6912TIP3    H142227   6.404   1.527   5.758  0.4190 -0.8928 -1.5596
 6912TIP3    H242228   6.455   1.669   5.768 -1.5405 -0.2496 -0.1230
 6913TIP3   OH242229   3.337   5.966   2.536  0.3811 -0.6257 -1.0440
 6913TIP3    H142230   3.259   6.016   2.510  0.3415 -0.5108 -0.7032
 6913TIP3    H242231   3.410   6.015   2.498  0.3535 -0.2318 -0.6061
 6914TIP3   OH242232   6.509   6.011   6.189  0.3961  0.0849 -0.6519
 6914TIP3    H142233   6.549   6.098   6.184  1.6323 -0.2187  2.3455
 6914TIP3    H242234   6.463   6.010   6.273  0.4347 -2.1649 -0.5988
 6915TIP3   OH242235   0.010   4.543   2.811 -0.4235  0.0140 -0.1407
 6915TIP3    H142236   0.013   4.494   2.894  1.5667 -0.6199 -0.5509
 6915TIP3    H242237  -0.035   4.625   2.834 -1.0481 -0.6825  1.2672
 6916TIP3   OH242238   5.640   5.044   2.468 -0.5813 -0.2883  0.0445
 6916TIP3    H142239   5.704   4.991   2.514 -1.9347 -0.7253  1.5116
 6916TIP3    H242240   5.659   5.134   2.495 -0.8267 -0.4573  0.7899
 6917TIP3   OH242241   2.249   3.083  13.151 -0.0420  0.0689  0.3302
 6917TIP3    H142242   2.193   3.006  13.143 -1.3860  1.1644 -1.7553
 6917TIP3    H242243   2.193   3.156  13.125  1.8730  1.4516 -0.1379
 6918TIP3   OH242244   6.458   3.868  12.079 -0.0774  0.0574  0.1114
 6918TIP3    H142245   6.407   3.830  12.150 -2.2372 -0.0257 -1.3974
 6918TIP3    H242246   6.452   3.963  12.093 -1.5054  0.0957 -0.5492
 6919TIP3   OH242247   4.835   4.074  13.129 -0.6882 -0.1764 -0.1994
 6919TIP3    H142248   4.754   4.061  13.178  1.0844 -0.1812  3.0265
 6919TIP3    H242249   4.887   3.996  13.147  1.6451  1.5928  1.5334
 6920TIP3   OH242250   4.424   5.691   1.905  0.3907  0.4419 -0.2045
 6920TIP3    H142251   4.373   5.744   1.844 -0.7535 -0.3116  0.0512
 6920TIP3    H242252   4.386   5.709   1.991  0.4674 -0.2203 -0.0199
 6921TIP3   OH242253   2.785   2.176   1.028 -0.0907  0.4801  0.3806
 6921TIP3    H142254   2.749   2.096   1.065 -0.2353  0.1302 -0.5017
 6921TIP3    H242255   2.838   2.147   0.954  2.0076  0.9770  1.5920
 6922TIP3   OH242256   3.610   3.276  16.265  0.1812 -0.4633  0.0193
 6922TIP3    H142257   3.539   3.248  16.206 -0.7801 -0.5366  1.1755
 6922TIP3    H242258   3.566   3.323  16.336  1.2952 -0.4800  0.7523
 6923TIP3   OH242259   4.045   5.221   1.188 -0.4552 -0.1378 -0.1140
 6923TIP3    H142260   4.100   5.299   1.180  1.2229 -0.9719  2.1556
 6923TIP3    H242261   4.063   5.171   1.108  2.0235 -0.2640  0.4363
 6924TIP3   OH242262   5.474   3.462   2.140  0.4669 -0.2125 -0.2427
 6924TIP3    H142263   5.530   3.386   2.153  0.2223 -0.4216 -0.3962
 6924TIP3    H242264   5.432   3.476   2.226  0.0586 -0.6196 -0.3713
 6925TIP3   OH242265   4.138   6.316   5.353  0.0841 -0.0125  0.5047
 6925TIP3    H142266   4.061   6.364   5.322 -0.9302 -1.0335  1.3302
 6925TIP3    H242267   4.134   6.232   5.308  0.5936 -0.1576  0.7221
 6926TIP3   OH242268   1.855   3.611   0.262  0.0311  0.2104  0.5683
 6926TIP3    H142269   1.840   3.652   0.347 -0.7128  0.0061  0.5472
 6926TIP3    H242270   1.784   3.644   0.207  0.7575  0.6840 -0.1071
 6927TIP3   OH242271   5.241   6.187   2.191  0.0419 -0.7503 -0.3608
 6927TIP3    H142272   5.296   6.159   2.264  2.6004  0.6180 -1.6424
 6927TIP3    H242273   5.270   6.134   2.117  0.7849  1.0480 -1.4163
 6928TIP3   OH242274   6.830   1.082   1.955 -0.0233 -0.5796  0.1199
 6928TIP3    H142275   6.846   1.172   1.928 -2.8292 -0.0084 -0.0276
 6928TIP3    H242276   6.899   1.062   2.018  1.8373  0.9195 -1.3460
 6929TIP3   OH242277   0.737   2.430   5.310  1.1941 -0.6289 -0.6495
 6929TIP3    H142278   0.769   2.518   5.327 -0.9879 -0.0145  0.6258
 6929TIP3    H242279   0.810   2.385   5.267  2.1970  1.9179 -1.7649
 6930TIP3   OH242280   3.217   4.784  10.865 -0.3898  0.1538 -0.2241
 6930TIP3    H142281   3.131   4.743  10.872  0.3753 -1.3788  0.7155
 6930TIP3    H242282   3.201   4.876  10.883 -2.2963  0.5275 -3.1132
 6931TIP3   OH242283   2.710   0.442  14.704 -0.5088  0.4534  0.1475
 6931TIP3    H142284   2.764   0.503  14.654  2.2014 -0.7113  1.4686
 6931TIP3    H242285   2.657   0.498  14.761 -0.4726  1.6372 -0.9380
 6932TIP3   OH242286   1.137   4.330  10.885  0.2808 -0.5742  0.2047
 6932TIP3    H142287   1.207   4.340  10.821 -1.1992 -0.4895 -1.4894
 6932TIP3    H242288   1.080   4.406  10.872  0.1261 -0.3384  1.9275
 6933TIP3   OH242289   0.876   1.517   2.867 -0.2099 -0.2898  0.0466
 6933TIP3    H142290   0.862   1.603   2.906  0.0912 -0.2467  0.0652
 6933TIP3    H242291   0.943   1.532   2.800  2.3354 -1.0793  2.2301
 6934TIP3   OH242292   6.600   2.890   5.264 -0.6286 -0.0117 -0.3421
 6934TIP3    H142293   6.596   2.795   5.263 -1.2496  0.0009  0.3318
 6934TIP3    H242294   6.694   2.910   5.256 -0.3862 -0.7003  0.5576
 6935TIP3   OH242295   4.017   2.201  14.249  0.6294 -0.2498  0.1727
 6935TIP3    H142296   4.068   2.281  14.257 -1.5696  1.1932  0.5637
 6935TIP3    H242297   3.934   2.220  14.293 -0.2154 -2.5219 -0.2743
 6936TIP3   OH242298   5.154   4.182  16.774  0.4429 -0.1693 -0.2443
 6936TIP3    H142299   5.230   4.144  16.818  1.0474  0.4712 -0.7058
 6936TIP3    H242300   5.079   4.145  16.819  1.0251 -1.0976 -0.0116
 6937TIP3   OH242301   3.323   1.846  16.906  0.3865 -0.0152  0.1298
 6937TIP3    H142302   3.282   1.863  16.821  0.7241  1.6805  0.2689
 6937TIP3    H242303   3.255   1.801  16.956 -0.6263  0.9759 -0.3064
 6938TIP3   OH242304   5.222   4.767  16.049  0.5643 -0.2822  0.1353
 6938TIP3    H142305   5.209   4.678  16.081  0.6090 -0.7695 -1.1447
 6938TIP3    H242306   5.267   4.756  15.965  3.2929  1.0735  1.3119
 6939TIP3   OH242307   5.693   2.071   3.327  0.1282  0.2540  0.3678
 6939TIP3    H142308   5.733   2.030   3.403 -0.9747 -2.5233 -0.4296
 6939TIP3    H242309   5.765   2.079   3.264  0.6296  0.7636  0.9938
 6940TIP3   OH242310   5.982   5.935   0.043  0.4196  0.3118  0.7731
 6940TIP3    H142311   5.984   5.847   0.081 -0.0593 -0.4462 -0.8397
 6940TIP3    H242312   5.896   5.970   0.068 -0.1823 -0.4542 -0.1329
 6941TIP3   OH242313   5.559   5.494  16.486 -0.5728  0.4934  0.3426
 6941TIP3    H142314   5.499   5.437  16.438 -1.2526  0.2859  1.4102
 6941TIP3    H242315   5.503   5.552  16.537  0.1063  2.3201 -0.8987
 6942TIP3   OH242316   0.942   3.479  10.351 -0.2987 -0.1111  0.3878
 6942TIP3    H142317   0.967   3.571  10.362 -1.1477  0.5147 -2.2836
 6942TIP3    H242318   1.025   3.431  10.356  0.5511  1.1341 -0.9646
 6943TIP3   OH242319   2.454   4.098   1.426 -0.0757  0.8735  0.3304
 6943TIP3    H142320   2.416   4.049   1.353 -0.7838 -0.2498  1.4002
 6943TIP3    H242321   2.436   4.190   1.406 -2.1396  0.4703  0.0747
 6944TIP3   OH242322   5.134   0.340  13.519  0.5716  0.3694  0.3601
 6944TIP3    H142323   5.067   0.397  13.556 -0.2027  1.2639 -2.2317
 6944TIP3    H242324   5.216   0.371  13.559 -0.2638  0.6500  1.9576
 6945TIP3   OH242325   5.588   6.568  13.200 -0.2141 -0.2366 -0.4078
 6945TIP3    H142326   5.542   6.500  13.248  0.1742  0.2624  0.7250
 6945TIP3    H242327   5.534   6.647  13.213  0.7554  0.2892  0.7008
 6946TIP3   OH242328   0.073   0.114   2.091  0.2573 -0.0523  0.1561
 6946TIP3    H142329   0.168   0.116   2.103  0.2263 -1.3180  0.8257
 6946TIP3    H242330   0.045   0.203   2.111  1.1654  0.0050  1.3419
 6947TIP3   OH242331   5.379   6.121   3.852 -0.0010 -0.7010 -0.0959
 6947TIP3    H142332   5.402   6.028   3.847  1.9604 -0.1642 -2.4911
 6947TIP3    H242333   5.330   6.138   3.772 -1.8484  0.0402  1.1154
 6948TIP3   OH242334   2.936   2.696   5.799  0.4129 -0.0435 -0.1464
 6948TIP3    H142335   2.960   2.668   5.887  1.5344 -1.0225 -0.7368
 6948TIP3    H242336   3.014   2.682   5.747  0.1977  1.7999 -1.0543
 6949TIP3   OH242337   3.612   3.965  14.117 -0.1714  0.3541  0.0208
 6949TIP3    H142338   3.691   3.997  14.161  0.6548  1.0412 -1.8309
 6949TIP3    H242339   3.628   3.983  14.024 -2.3311  0.0949 -0.4503
 6950TIP3   OH242340   3.446   0.814  12.395  0.1414  1.0437  0.5723
 6950TIP3    H142341   3.480   0.786  12.479 -0.0210  1.5025  0.7953
 6950TIP3    H242342   3.354   0.834  12.411  0.3030  1.9192  0.4830
 6951TIP3   OH242343   0.049   2.007  10.785 -0.3263 -0.5296  0.1834
 6951TIP3    H142344   0.076   1.937  10.726  0.5240  0.8838 -1.1636
 6951TIP3    H242345   0.090   1.985  10.869  0.3553 -1.3499 -0.3519
 6952TIP3   OH242346   2.928   6.266  15.966  0.1973 -0.0589  0.0011
 6952TIP3    H142347   2.851   6.324  15.966 -0.5932 -1.0583 -1.1941
 6952TIP3    H242348   3.001   6.323  15.941 -0.0783  0.9614  1.4033
 6953TIP3   OH242349   5.782   4.025  16.287  0.1664  0.0017  0.1421
 6953TIP3    H142350   5.688   4.010  16.282 -0.2941  2.2462  0.8843
 6953TIP3    H242351   5.798   4.047  16.379  1.2283  0.6579 -0.1825
 6954TIP3   OH242352   4.468   6.226  11.387 -0.2716 -0.4571 -0.1917
 6954TIP3    H142353   4.446   6.262  11.301  0.1191 -0.4669 -0.2997
 6954TIP3    H242354   4.412   6.149  11.397 -0.3851 -0.4011 -0.3946
 6955TIP3   OH242355   2.198   5.476   0.047  0.1621 -0.7156 -0.3565
 6955TIP3    H142356   2.157   5.520   0.121  0.3723  2.1386 -1.7763
 6955TIP3    H242357   2.290   5.470   0.070  0.2373  0.2256 -0.3899
 6956TIP3   OH242358   2.490   6.066  14.064  0.2628  1.1647 -0.4048
 6956TIP3    H142359   2.469   6.159  14.052  1.4207  1.4933 -0.0114
 6956TIP3    H242360   2.584   6.062  14.052  0.2974  0.1241  0.1865
 6957TIP3   OH242361   2.204   0.071   1.055  0.4801  0.0704  0.2152
 6957TIP3    H142362   2.256   0.143   1.020  1.8950 -0.3302  1.3768
 6957TIP3    H242363   2.269   0.011   1.092 -0.7489 -1.0989  0.5484
 6958TIP3   OH242364   2.716   6.376  16.311  0.1668 -0.0048  0.5166
 6958TIP3    H142365   2.634   6.354  16.355 -0.5058  1.5718  0.1364
 6958TIP3    H242366   2.773   6.301  16.327 -1.8569 -1.8849 -0.5682
 6959TIP3   OH242367   4.764   3.343  16.510 -0.2464  0.3458 -0.6250
 6959TIP3    H142368   4.789   3.270  16.454 -1.8184 -1.0713  0.4430
 6959TIP3    H242369   4.670   3.333  16.522 -0.1223  1.2204  1.4036
 6960TIP3   OH242370   1.988   0.239   4.976 -0.0368 -0.3024  0.5580
 6960TIP3    H142371   1.900   0.220   5.008  0.6595 -1.3711  1.9666
 6960TIP3    H242372   1.980   0.324   4.934 -1.3183  0.6236  2.4979
 6961TIP3   OH242373   1.068   3.051   2.836  0.4889 -0.5911 -0.1022
 6961TIP3    H142374   0.976   3.064   2.815  0.6864  0.6585 -0.2293
 6961TIP3    H242375   1.067   3.001   2.918 -0.2732 -2.3269 -1.1166
 6962TIP3   OH242376   5.558   4.714  16.118 -0.0275  0.7100  0.4719
 6962TIP3    H142377   5.639   4.720  16.067 -0.9008 -0.0491 -1.1169
 6962TIP3    H242378   5.529   4.804  16.128  0.0601  0.8815 -0.6256
 6963TIP3   OH242379   4.050   4.326   3.197  0.0757  0.4377 -0.0055
 6963TIP3    H142380   4.092   4.260   3.142 -1.5167 -0.7018  0.0916
 6963TIP3    H242381   3.970   4.350   3.150  0.2424  1.7728  0.3337
 6964TIP3   OH242382   4.787   4.668  14.149 -0.1860 -0.3290 -0.1206
 6964TIP3    H142383   4.863   4.677  14.206 -0.6014 -0.2492  0.4257
 6964TIP3    H242384   4.775   4.573  14.140 -1.4720 -0.3898  1.7715
 6965TIP3   OH242385   6.614   2.686  14.325 -0.1332  0.1644 -0.1796
 6965TIP3    H142386   6.559   2.674  14.402  1.0840  0.8819  0.8529
 6965TIP3    H242387   6.556   2.721  14.258 -1.2748 -0.7297  0.3119
 6966TIP3   OH242388   1.227   1.037  10.589  0.3037  0.4966  0.0120
 6966TIP3    H142389   1.320   1.058  10.587  0.5402 -0.2433  1.6003
 6966TIP3    H242390   1.214   0.978  10.514  1.2018  0.2968  0.0059
 6967TIP3   OH242391   0.822   6.295  11.609 -0.0989 -0.5033 -0.5900
 6967TIP3    H142392   0.819   6.383  11.572 -0.9870  0.7875  2.2445
 6967TIP3    H242393   0.914   6.283  11.633  0.0481 -0.4140 -1.0995
 6968TIP3   OH242394   5.269   6.150  15.978 -0.1696 -0.5853  0.4135
 6968TIP3    H142395   5.258   6.096  15.900  0.9339 -0.3461  0.0667
 6968TIP3    H242396   5.224   6.232  15.957 -1.1241 -1.0425  0.6121
 6969TIP3   OH242397   3.926   1.297  15.517 -0.1403  0.1552 -0.6322
 6969TIP3    H142398   3.844   1.271  15.561  1.1158 -1.3033  0.9848
 6969TIP3    H242399   3.969   1.355  15.580  0.5138  0.1395 -1.0606
 6970TIP3   OH242400   3.797   3.616  14.973 -0.0065  0.3973  0.1791
 6970TIP3    H142401   3.718   3.597  15.025  0.7774 -0.4294  1.1086
 6970TIP3    H242402   3.828   3.700  15.008  0.0872  0.2229  0.5202
 6971TIP3   OH242403   3.581   2.799   4.274 -0.1486 -0.1077 -0.3283
 6971TIP3    H142404   3.650   2.857   4.307 -1.0605  0.2691  1.0124
 6971TIP3    H242405   3.538   2.849   4.205 -0.2916  0.4226  0.1395
 6972TIP3   OH242406   5.489   2.779  10.683  0.4710 -0.0677  0.2896
 6972TIP3    H142407   5.517   2.717  10.616 -0.2312  0.1541 -0.2207
 6972TIP3    H242408   5.476   2.861  10.636 -2.6864 -0.5429  0.1138
 6973TIP3   OH242409   5.748   1.022  12.046  0.0040  0.5518 -0.1341
 6973TIP3    H142410   5.794   1.031  11.963  0.1617  0.7669 -0.0270
 6973TIP3    H242411   5.806   0.969  12.100 -1.5173 -2.3756 -1.2016
 6974TIP3   OH242412   5.532   4.257   1.889 -0.4666  0.1349  0.4706
 6974TIP3    H142413   5.620   4.223   1.871  0.4693  2.1793  0.9358
 6974TIP3    H242414   5.517   4.235   1.981 -0.2872  0.0820  0.4892
 6975TIP3   OH242415   6.790   5.165  13.818  0.0133 -0.5726  0.0728
 6975TIP3    H142416   6.821   5.201  13.735  0.1431  1.2785  0.8887
 6975TIP3    H242417   6.695   5.155  13.805 -0.0184  0.0204 -0.1855
 6976TIP3   OH242418   0.956   5.871   4.503  0.2681 -0.5610 -0.4862
 6976TIP3    H142419   0.867   5.837   4.488 -1.2354  0.4995  4.2417
 6976TIP3    H242420   0.943   5.949   4.557  4.0869 -0.2921  0.3432
 6977TIP3   OH242421   1.384   3.110   3.688 -0.1813 -0.0383 -0.1052
 6977TIP3    H142422   1.340   3.024   3.686 -1.5870  0.4737  3.0104
 6977TIP3    H242423   1.466   3.094   3.733  0.7838 -0.1300 -1.8032
 6978TIP3   OH242424   3.634   1.002   2.862 -0.0302 -0.1459  0.3198
 6978TIP3    H142425   3.566   0.975   2.924  0.8099 -1.3785  0.7492
 6978TIP3    H242426   3.592   0.998   2.777 -0.4034 -1.3204  0.5392
 6979TIP3   OH242427   4.761   4.466  16.781 -0.0205  0.2081 -0.1363
 6979TIP3    H142428   4.834   4.447  16.722 -0.3731 -0.2941 -0.4266
 6979TIP3    H242429   4.778   4.411  16.858  0.7479  1.3030  0.4956
 6980TIP3   OH242430   2.491   2.295   1.250  0.3341 -0.4614 -0.3291
 6980TIP3    H142431   2.476   2.204   1.275  0.0468 -0.2970  0.0992
 6980TIP3    H242432   2.568   2.321   1.300  0.9866 -0.7462 -1.1527
 6981TIP3   OH242433   6.784   4.168  13.875 -0.0654 -0.0064 -0.3122
 6981TIP3    H142434   6.693   4.190  13.893 -0.3067 -0.5937 -0.8126
 6981TIP3    H242435   6.781   4.080  13.839  0.7523 -0.2359  0.1613
 6982TIP3   OH242436   3.341   4.659  14.896  0.1133  1.1373  0.8057
 6982TIP3    H142437   3.402   4.586  14.911  1.6988  2.3249  0.3589
 6982TIP3    H242438   3.267   4.618  14.851  0.1763 -0.4983  2.0786
 6983TIP3   OH242439   3.654   6.109   3.225 -0.0977  0.5023  0.5611
 6983TIP3    H142440   3.696   6.105   3.139 -0.6412 -1.0233  0.3315
 6983TIP3    H242441   3.717   6.068   3.285 -1.3091 -2.1473  0.1491
 6984TIP3   OH242442   1.049   4.813   0.217  0.1050 -0.2575 -0.3886
 6984TIP3    H142443   1.101   4.732   0.214 -0.8415 -0.8963  0.0272
 6984TIP3    H242444   0.968   4.791   0.171  0.4882  0.9684 -1.7350
 6985TIP3   OH242445   5.954   2.005   4.437  0.2533 -0.5139  0.2967
 6985TIP3    H142446   5.917   1.928   4.481 -1.7163 -0.0860 -0.4816
 6985TIP3    H242447   5.904   2.079   4.474  1.9823  0.4013  0.8981
 6986TIP3   OH242448   0.164   3.051   5.748 -0.4572  0.0984  0.9886
 6986TIP3    H142449   0.160   3.103   5.667  1.1686 -0.6459  0.3876
 6986TIP3    H242450   0.158   3.116   5.818 -2.5734  0.7043  0.3232
 6987TIP3   OH242451   6.001   6.361   3.674 -0.8011  0.4284 -0.2853
 6987TIP3    H142452   6.072   6.417   3.644 -0.0487  0.0787  0.7894
 6987TIP3    H242453   5.977   6.397   3.760 -1.0914 -0.1905 -0.1039
 6988TIP3   OH242454   4.569   3.531  12.856  0.0252 -0.1427  0.4907
 6988TIP3    H142455   4.590   3.515  12.948 -0.7161  0.8163  0.8456
 6988TIP3    H242456   4.475   3.550  12.856 -0.3907 -1.9285 -0.7198
 6989TIP3   OH242457   1.392   1.535   3.402  0.0891 -1.0143 -0.0019
 6989TIP3    H142458   1.438   1.532   3.486 -0.4773  1.6186  0.4751
 6989TIP3    H242459   1.352   1.622   3.399 -0.8681 -1.4530 -2.5148
 6990TIP3   OH242460   6.588   2.919   0.130  0.1688 -0.2506  0.1262
 6990TIP3    H142461   6.642   2.888   0.058 -1.5942  0.4104 -1.5411
 6990TIP3    H242462   6.498   2.900   0.104 -0.4984 -1.1342  2.7182
 6991TIP3   OH242463   1.186   3.090  16.424  0.2801  0.9002 -0.0393
 6991TIP3    H142464   1.199   3.008  16.376 -0.6675  1.2081 -0.8386
 6991TIP3    H242465   1.118   3.136  16.376 -0.5327  1.3375  1.4576
 6992TIP3   OH242466   1.712   3.527   3.128 -0.0623  0.3509  0.1504
 6992TIP3    H142467   1.735   3.437   3.151  1.7505  0.6638 -0.3075
 6992TIP3    H242468   1.685   3.522   3.037 -0.3781  0.2008  0.2526
 6993TIP3   OH242469   2.533   5.812   4.289  0.1199  0.2059  0.1944
 6993TIP3    H142470   2.547   5.833   4.382  0.0125 -1.8752  0.7333
 6993TIP3    H242471   2.457   5.864   4.264 -1.0873 -0.6599  1.8628
 6994TIP3   OH242472   2.460   4.006  15.035 -0.2373 -0.0425 -0.0545
 6994TIP3    H142473   2.525   4.076  15.029  1.2234 -1.2201  1.0864
 6994TIP3    H242474   2.421   4.002  14.948  0.9735  0.9617 -0.6818
 6995TIP3   OH242475   5.867   0.489  14.839 -0.4215  0.3084 -0.4609
 6995TIP3    H142476   5.783   0.461  14.874 -0.2533  0.0035 -0.2966
 6995TIP3    H242477   5.910   0.407  14.811  0.1364  0.3834  0.1569
 6996TIP3   OH242478   4.859   0.796   5.501 -0.2074  0.8553 -0.4005
 6996TIP3    H142479   4.820   0.832   5.581 -0.5707 -0.3345 -0.0287
 6996TIP3    H242480   4.797   0.818   5.432 -0.9016  0.1273 -0.0233
 6997TIP3   OH242481   5.813   2.130  17.065 -0.4319 -0.4266  0.0802
 6997TIP3    H142482   5.891   2.165  17.022 -1.2463  1.0236 -0.2826
 6997TIP3    H242483   5.844   2.053  17.112  0.9496 -0.6562 -1.1478
 6998TIP3   OH242484   3.653   1.441   2.302  0.2376  0.0844  0.1587
 6998TIP3    H142485   3.687   1.394   2.226  0.1052  0.5004 -0.1610
 6998TIP3    H242486   3.663   1.533   2.279 -1.4380  0.2268 -0.1046
 6999TIP3   OH242487   0.294   6.661   5.506  0.2265  0.5214  0.3672
 6999TIP3    H142488   0.348   6.721   5.558 -1.1748  2.0608  0.1301
 6999TIP3    H242489   0.223   6.634   5.565  1.1457 -1.4384  0.6616
 7000TIP3   OH242490   5.794   0.497  16.122  0.3988 -0.6388  0.4745
 7000TIP3    H142491   5.852   0.513  16.047  0.5027 -1.5837  0.3385
 7000TIP3    H242492   5.713   0.543  16.101  0.5094 -0.7095 -0.1187
 7001TIP3   OH242493   5.014   5.452  14.080  0.6844  0.1374  0.0940
 7001TIP3    H142494   4.967   5.377  14.043  0.8888 -0.6901  1.4667
 7001TIP3    H242495   5.011   5.519  14.010 -5.0103  1.2960  0.9974
 7002TIP3   OH242496   3.457   6.342  13.518  0.4611 -0.3208  0.2590
 7002TIP3    H142497   3.480   6.305  13.433  0.0350  0.7741 -0.3479
 7002TIP3    H242498   3.497   6.429  13.518 -0.3758  0.0760  0.7684
 7003TIP3   OH242499   0.168   1.863   1.786 -0.0158  0.4095 -0.5284
 7003TIP3    H142500   0.173   1.777   1.830  1.2711  0.7674  0.0882
 7003TIP3    H242501   0.156   1.842   1.693  3.9452 -0.6638 -0.9908
 7004TIP3   OH242502   4.743   2.352  14.324  0.1005  0.4181 -0.0564
 7004TIP3    H142503   4.661   2.354  14.373  0.6539  0.7095  0.8776
 7004TIP3    H242504   4.717   2.331  14.234 -1.2212  2.6217 -0.2606
 7005TIP3   OH242505   4.562   4.930   0.456  0.3265 -0.8704  0.5291
 7005TIP3    H142506   4.573   4.946   0.550 -0.2681  1.2125  0.2932
 7005TIP3    H242507   4.592   5.010   0.414  1.9135 -2.2874 -1.2033
 7006TIP3   OH242508   6.477   5.313   5.719 -0.0395 -0.1660 -0.4916
 7006TIP3    H142509   6.408   5.250   5.697 -0.3879  0.2535 -0.6260
 7006TIP3    H242510   6.454   5.345   5.807  1.3302 -1.8129  0.5260
 7007TIP3   OH242511   0.194   5.661   2.543 -0.0769  0.0064  0.7058
 7007TIP3    H142512   0.207   5.568   2.560  0.7514  0.2462  1.4591
 7007TIP3    H242513   0.275   5.689   2.500  0.4258  0.7328  2.0653
 7008TIP3   OH242514   3.563   3.954  16.277  0.1628 -0.3320 -0.3117
 7008TIP3    H142515   3.627   3.970  16.346  2.8901 -2.4061 -2.1385
 7008TIP3    H242516   3.570   3.860  16.259 -1.2199 -0.0740 -2.6193
 7009TIP3   OH242517   2.714   2.524  12.891 -0.1039 -0.0017  0.0481
 7009TIP3    H142518   2.752   2.487  12.812  0.0952 -0.1494  0.2142
 7009TIP3    H242519   2.658   2.596  12.859  1.3365  1.0945 -0.1092
 7010TIP3   OH242520   4.171   2.980   1.603 -0.0540  0.0497 -0.1317
 7010TIP3    H142521   4.224   2.950   1.529 -0.0910 -1.7602  0.5303
 7010TIP3    H242522   4.097   2.920   1.606 -0.9179  1.1083  0.3959
 7011TIP3   OH242523   2.821   1.504   6.248 -0.1805  0.0005 -0.1168
 7011TIP3    H142524   2.778   1.535   6.168  0.9416  0.9512 -0.3771
 7011TIP3    H242525   2.769   1.428   6.275 -0.6436 -0.2923 -1.7006
 7012TIP3   OH242526   3.442   2.475  14.152  0.0317 -0.2648  0.6661
 7012TIP3    H142527   3.454   2.536  14.079  0.0317 -1.9353 -0.7947
 7012TIP3    H242528   3.379   2.519  14.209 -1.3081  0.3786 -1.2142
 7013TIP3   OH242529   1.145   2.209   2.800  0.0638 -0.3106 -0.5651
 7013TIP3    H142530   1.157   2.218   2.895  1.5917  2.5512 -0.9181
 7013TIP3    H242531   1.201   2.135   2.775  0.5234 -0.3841  0.6245
 7014TIP3   OH242532   6.215   2.731  15.704 -0.2968  0.2561  0.1185
 7014TIP3    H142533   6.213   2.650  15.653 -2.5750 -0.0821  0.6379
 7014TIP3    H242534   6.223   2.702  15.795  0.8372  0.7375  0.1925
 7015TIP3   OH242535   3.458   5.353   6.200 -0.3845 -0.4592 -0.1795
 7015TIP3    H142536   3.547   5.331   6.226 -0.0220  0.9869 -0.1014
 7015TIP3    H242537   3.429   5.417   6.265 -1.0121  0.0263 -0.9114
 7016TIP3   OH242538   4.737   5.259   2.536 -0.2647 -0.4330 -0.4333
 7016TIP3    H142539   4.823   5.223   2.514 -1.1076 -1.5251 -2.1496
 7016TIP3    H242540   4.697   5.280   2.452 -1.6548  0.1548  0.3374
 7017TIP3   OH242541   4.627   0.465  13.777  0.7076  0.1538 -0.0351
 7017TIP3    H142542   4.538   0.437  13.800  0.6012  0.6781  0.2097
 7017TIP3    H242543   4.664   0.495  13.860  1.0736  0.0448 -0.1578
 7018TIP3   OH242544   5.709   5.958  16.487  0.1199  0.7782  0.4003
 7018TIP3    H142545   5.728   5.999  16.403  0.1746  0.9018  0.4720
 7018TIP3    H242546   5.741   6.021  16.552  3.6144 -0.9148  0.5626
 7019TIP3   OH242547   2.856   4.483  10.620 -0.0683 -0.4523  0.4137
 7019TIP3    H142548   2.937   4.453  10.662  0.4288  0.4105  0.1043
 7019TIP3    H242549   2.886   4.535  10.546 -0.9056  0.2475  0.5511
 7020TIP3   OH242550   0.580   2.432  10.015 -0.6975 -0.3341 -0.1935
 7020TIP3    H142551   0.545   2.434  10.104 -1.0190  1.0023 -0.3204
 7020TIP3    H242552   0.636   2.510  10.010 -0.2648 -0.6884 -1.0009
 7021TIP3   OH242553   3.010   6.164   1.721 -0.1006  0.0719  0.1459
 7021TIP3    H142554   3.067   6.239   1.704 -0.0628 -0.4064 -2.2968
 7021TIP3    H242555   3.070   6.090   1.728 -0.2546 -0.0170  0.5223
 7022TIP3   OH242556   2.478   0.767   2.733  0.0496 -0.1483  0.5787
 7022TIP3    H142557   2.480   0.672   2.718  0.6852  0.3937 -5.4485
 7022TIP3    H242558   2.438   0.777   2.819  1.1787 -5.8276  2.1979
 7023TIP3   OH242559   6.819   1.454   0.009  0.1763 -0.2652  0.5332
 7023TIP3    H142560   6.755   1.514   0.046  1.3379  0.9879  0.5732
 7023TIP3    H242561   6.817   1.378   0.067 -0.5099  0.2020  1.1405
 7024TIP3   OH242562   5.154   2.700   1.762  0.3073 -0.0399 -0.1211
 7024TIP3    H142563   5.208   2.671   1.689 -1.1973 -0.5779 -1.0795
 7024TIP3    H242564   5.184   2.788   1.782  1.1019 -0.0936 -1.0269
 7025TIP3   OH242565   6.365   4.599  14.880  0.8116 -0.3267  0.5366
 7025TIP3    H142566   6.328   4.518  14.843  0.3224 -0.5647  1.5185
 7025TIP3    H242567   6.434   4.569  14.938  0.0591 -0.1001  1.5701
 7026TIP3   OH242568   4.137   5.424   2.922  0.0931  1.0927  0.1282
 7026TIP3    H142569   4.153   5.330   2.914 -0.3668  1.1183 -1.3423
 7026TIP3    H242570   4.219   5.465   2.895  0.6345  1.1302  1.7307
 7027TIP3   OH242571   2.277   3.828   6.525  0.3056  0.1676 -0.4958
 7027TIP3    H142572   2.252   3.878   6.603 -1.3086  0.6725 -1.3142
 7027TIP3    H242573   2.370   3.806   6.540  0.9321  2.9146  0.1466
 7028TIP3   OH242574   0.545   4.089  17.091 -0.1639  0.1188  0.0825
 7028TIP3    H142575   0.580   4.074  17.003 -0.3543  2.5778 -0.5073
 7028TIP3    H242576   0.505   4.176  17.085  0.9748  0.9416  2.9572
 7029TIP3   OH242577   1.100   2.948   0.238  0.5863 -0.4736 -0.3025
 7029TIP3    H142578   1.148   3.003   0.300  1.8623  0.4795 -2.0461
 7029TIP3    H242579   1.164   2.929   0.168 -0.0150 -3.5721 -0.1782
 7030TIP3   OH242580   6.834   3.591  11.624 -0.6402 -0.4274 -0.1385
 7030TIP3    H142581   6.909   3.576  11.567 -0.9248  0.4491 -0.7601
 7030TIP3    H242582   6.808   3.682  11.607  0.0597  0.3218  2.3163
 7031TIP3   OH242583   2.290   5.519   1.337  0.2898  0.0505 -0.0320
 7031TIP3    H142584   2.233   5.566   1.398 -2.3589 -0.1425 -2.1707
 7031TIP3    H242585   2.305   5.580   1.265  0.1904 -0.9506 -0.9350
 7032TIP3   OH242586   4.305   6.215   0.258 -0.2574  0.5783  0.3726
 7032TIP3    H142587   4.252   6.292   0.235 -0.5914  0.1331 -0.3832
 7032TIP3    H242588   4.394   6.250   0.269 -0.3161  1.0068 -0.4375
 7033TIP3   OH242589   2.203   2.382  12.476 -0.5152  0.0724 -0.2985
 7033TIP3    H142590   2.188   2.301  12.525 -1.2798 -0.6151 -1.6039
 7033TIP3    H242591   2.116   2.408  12.445 -0.0397  0.3655 -1.4361
 7034TIP3   OH242592   5.581   4.401   3.468  0.2948  0.1962 -0.2728
 7034TIP3    H142593   5.579   4.321   3.521 -1.9194  1.0950  1.1546
 7034TIP3    H242594   5.604   4.470   3.530 -0.1656  0.9877 -0.9674
 7035TIP3   OH242595   2.444   3.506   3.318  0.0347 -0.4587 -0.4889
 7035TIP3    H142596   2.393   3.452   3.378  1.9096  0.0256  1.6901
 7035TIP3    H242597   2.472   3.580   3.371 -0.6350  1.5985 -2.7920
 7036TIP3   OH242598   3.382   6.290   2.296  0.3511  0.2462 -0.5141
 7036TIP3    H142599   3.430   6.216   2.334  0.4876  1.2123  1.2934
 7036TIP3    H242600   3.345   6.336   2.371  0.8732  2.4525 -1.5218
 7037TIP3   OH242601   2.195   0.945   2.227  0.6878 -0.1045  0.1695
 7037TIP3    H142602   2.106   0.943   2.263  0.5705 -0.0361 -0.1146
 7037TIP3    H242603   2.193   0.881   2.156  0.7491  0.1995 -0.1080
 7038TIP3   OH242604   6.346   2.762   3.839 -0.1244  0.4612  0.2737
 7038TIP3    H142605   6.354   2.667   3.850  0.4901  0.5868  0.9679
 7038TIP3    H242606   6.369   2.798   3.924  0.1111  1.2547 -0.1160
 7039TIP3   OH242607   3.868   2.092   4.470  0.6140  0.0610 -0.2008
 7039TIP3    H142608   3.854   2.108   4.563 -0.4189  1.1525 -0.5209
 7039TIP3    H242609   3.909   2.005   4.466  2.1821  0.6759  1.3632
 7040TIP3   OH242610   5.799   2.392   1.950  0.5139 -0.6767 -0.2184
 7040TIP3    H142611   5.802   2.483   1.922 -1.1238 -0.6961 -0.5836
 7040TIP3    H242612   5.755   2.346   1.878 -1.6509 -1.1466  1.2911
 7041TIP3   OH242613   4.852   3.487   2.711 -0.4813 -0.7225  0.0613
 7041TIP3    H142614   4.790   3.521   2.776 -1.0551 -1.4372 -0.0973
 7041TIP3    H242615   4.817   3.402   2.687 -0.3482 -0.4232 -1.2761
 7042TIP3   OH242616   5.889   6.011  10.323 -0.3188 -0.3409 -0.0672
 7042TIP3    H142617   5.825   6.059  10.375 -2.0296 -0.4230 -1.9880
 7042TIP3    H242618   5.961   6.073  10.311 -0.8786  0.4427  0.5106
 7043TIP3   OH242619   4.894   3.370  14.740  0.6272  0.0975  0.2607
 7043TIP3    H142620   4.963   3.307  14.762  0.2270  0.0874  1.6279
 7043TIP3    H242621   4.917   3.401  14.653  1.4155 -1.1587 -0.0139
 7044TIP3   OH242622   5.312   0.625  13.541 -0.3578 -0.0906 -0.5473
 7044TIP3    H142623   5.335   0.546  13.590  0.8830 -0.6038 -1.8895
 7044TIP3    H242624   5.322   0.696  13.605  1.1385 -0.7391 -0.0146
 7045TIP3   OH242625   2.902   6.725   3.672  0.1070  0.0196 -0.0669
 7045TIP3    H142626   2.923   6.663   3.742 -2.0014  1.5070  2.0051
 7045TIP3    H242627   2.961   6.799   3.686 -0.9250  0.7121  0.7606
 7046TIP3   OH242628   4.304   1.105  13.580  0.5274  0.0479  0.0432
 7046TIP3    H142629   4.242   1.081  13.511  1.8281  0.0590 -1.1560
 7046TIP3    H242630   4.251   1.155  13.643 -0.7635 -0.2876 -0.7349
 7047TIP3   OH242631   2.269   1.334   5.667 -0.3705 -0.4313 -0.2956
 7047TIP3    H142632   2.343   1.390   5.688 -1.0599  1.1626 -1.8988
 7047TIP3    H242633   2.308   1.250   5.644  0.9205  0.3055 -0.8693
 7048TIP3   OH242634   4.431   5.289   5.102 -0.3036  0.2635  0.2017
 7048TIP3    H142635   4.364   5.274   5.168  0.7949  0.0711  1.3117
 7048TIP3    H242636   4.478   5.206   5.096  0.3453  0.6339  0.0448
 7049TIP3   OH242637   2.915   4.820  15.465  0.4511 -0.0723 -0.0262
 7049TIP3    H142638   2.835   4.860  15.430  0.7672  0.1650 -0.4859
 7049TIP3    H242639   2.892   4.796  15.555 -0.5833 -1.2902 -0.5747
 7050TIP3   OH242640   0.434   1.085  15.780 -0.0022 -0.2648  0.2880
 7050TIP3    H142641   0.529   1.082  15.767 -0.0159 -1.2237  0.3416
 7050TIP3    H242642   0.421   1.152  15.848  0.2689  3.0657 -2.6274
 7051TIP3   OH242643   0.777   5.980  11.767 -0.0636 -0.1445  0.3620
 7051TIP3    H142644   0.847   5.950  11.709 -0.8165 -0.1088 -0.5788
 7051TIP3    H242645   0.788   6.075  11.771 -0.6306 -0.0356 -0.5483
 7052TIP3   OH242646   3.725   0.209   4.028  0.1501  0.5257 -0.2026
 7052TIP3    H142647   3.767   0.287   4.065 -0.6746  1.7985 -1.8148
 7052TIP3    H242648   3.788   0.177   3.963  0.1537  0.2926 -0.0861
 7053TIP3   OH242649   2.723   0.562  15.869 -0.1410 -0.1237  0.1895
 7053TIP3    H142650   2.662   0.508  15.819 -0.6155 -0.1192  0.7578
 7053TIP3    H242651   2.676   0.645  15.883  0.2714  0.1431  0.0155
 7054TIP3   OH242652   5.257   6.323  14.696 -0.2102  0.2555 -0.4442
 7054TIP3    H142653   5.305   6.363  14.623 -0.4230 -1.1357 -1.3745
 7054TIP3    H242654   5.206   6.396  14.733  1.5012  1.4561 -0.2992
 7055TIP3   OH242655   6.716   6.258  13.323  0.7468  0.5408  0.2848
 7055TIP3    H142656   6.695   6.296  13.409  0.2493  0.4444  0.2101
 7055TIP3    H242657   6.708   6.163  13.337 -1.1189  0.5690 -0.2998
 7056TIP3   OH242658   0.805   6.021  12.960  0.1669 -0.1052  0.1276
 7056TIP3    H142659   0.898   6.041  12.957  0.2182 -0.2391  0.7935
 7056TIP3    H242660   0.763   6.102  12.988  0.1299 -0.1830  0.2991
 7057TIP3   OH242661   3.836   1.884  11.430 -0.4759  0.0766  0.1548
 7057TIP3    H142662   3.746   1.916  11.433 -0.7403 -0.6845  0.5881
 7057TIP3    H242663   3.888   1.955  11.467 -1.1465 -0.3126  1.9119
 7058TIP3   OH242664   0.130   2.814  14.846 -0.3479  0.2062 -1.4896
 7058TIP3    H142665   0.098   2.831  14.935  0.5468 -0.4029 -1.0298
 7058TIP3    H242666   0.102   2.889  14.795  1.6384  2.0370 -0.0432
 7059TIP3   OH242667   0.986   2.682  16.457 -0.0854  0.2205 -0.6408
 7059TIP3    H142668   0.943   2.697  16.542 -0.0931  0.3935 -0.6747
 7059TIP3    H242669   0.914   2.674  16.395 -0.0577  2.1152 -0.9702
 7060TIP3   OH242670   3.966   2.736   2.229 -0.3355  0.1762 -0.3912
 7060TIP3    H142671   3.978   2.757   2.322  2.7152  0.7991 -0.8399
 7060TIP3    H242672   3.992   2.645   2.221  3.4730  1.1583 -1.1458
 7061TIP3   OH242673   2.720   2.111  10.955  0.6800 -0.1241 -0.1014
 7061TIP3    H142674   2.653   2.066  11.007  0.5620 -0.5119 -0.5804
 7061TIP3    H242675   2.793   2.050  10.953  0.3211 -0.5472 -1.2101
 7062TIP3   OH242676   4.808   4.610  16.064  0.4967  0.6189  1.0936
 7062TIP3    H142677   4.803   4.577  16.154 -1.7987 -1.2191  0.3743
 7062TIP3    H242678   4.811   4.531  16.010  2.4201  1.6871 -0.4799
 7063TIP3   OH242679   4.522   0.923   2.605 -0.0560  0.3242  0.2090
 7063TIP3    H142680   4.589   0.945   2.541 -0.7502  0.3409 -0.5339
 7063TIP3    H242681   4.440   0.926   2.555 -0.2974 -3.6832  0.0467
 7064TIP3   OH242682   5.384   2.833   1.633  0.3376 -0.1825  0.6579
 7064TIP3    H142683   5.395   2.772   1.561  0.0152  1.6233 -1.0096
 7064TIP3    H242684   5.463   2.824   1.685  0.7924 -1.2097 -0.1862
 7065TIP3   OH242685   0.239   5.371  15.981 -0.0221  0.3059 -0.3228
 7065TIP3    H142686   0.223   5.433  16.052  1.7647  1.1024 -0.5556
 7065TIP3    H242687   0.307   5.313  16.016  0.3172  0.2338 -1.0916
 7066TIP3   OH242688   0.419   3.045   6.037  0.5269 -0.4728 -0.3838
 7066TIP3    H142689   0.343   3.103   6.042 -0.2089 -1.4887  0.6045
 7066TIP3    H242690   0.462   3.056   6.122  0.4355 -1.2864 -0.2260
 7067TIP3   OH242691   4.016   3.287  16.048 -0.4940 -0.8727  0.3876
 7067TIP3    H142692   3.923   3.307  16.061  0.0846  1.1861  1.9027
 7067TIP3    H242693   4.062   3.347  16.107  1.8039 -2.1151 -0.0167
 7068TIP3   OH242694   5.809   6.478   3.493 -0.2464  0.8303  0.3460
 7068TIP3    H142695   5.747   6.493   3.565  1.5663 -0.5343  2.3026
 7068TIP3    H242696   5.860   6.402   3.521  1.7585  1.3808 -1.5599
 7069TIP3   OH242697   6.685   4.200  15.332  0.4136 -0.0279 -0.2440
 7069TIP3    H142698   6.634   4.195  15.252 -2.0362 -0.5023  1.2564
 7069TIP3    H242699   6.626   4.169  15.400  1.4634  2.8132  2.1767
 7070TIP3   OH242700   3.815   4.484  16.363  0.5297 -0.3050 -0.0672
 7070TIP3    H142701   3.859   4.400  16.360  1.6139  0.2752 -1.4994
 7070TIP3    H242702   3.767   4.490  16.281  0.4390  0.4499  0.0281
 7071TIP3   OH242703   4.138   0.129   6.560  0.3140 -0.0355 -0.4505
 7071TIP3    H142704   4.214   0.170   6.602  0.5357 -0.4116 -0.4713
 7071TIP3    H242705   4.102   0.071   6.628 -1.4235  1.9318  0.3822
 7072TIP3   OH242706   5.972   1.267  15.160 -0.3897 -0.5634 -0.3503
 7072TIP3    H142707   5.950   1.205  15.090 -0.6060 -0.2563 -0.5585
 7072TIP3    H242708   5.901   1.258  15.223  0.2591 -1.4850  0.2749
 7073TIP3   OH242709   6.042   2.150  13.970 -0.3811 -0.2840  0.7936
 7073TIP3    H142710   6.095   2.200  14.031 -0.6597 -0.1962  0.9628
 7073TIP3    H242711   6.061   2.058  13.992  2.6120 -0.3862 -1.5851
 7074TIP3   OH242712   1.378   2.776  14.603  0.1694 -0.0454  0.3950
 7074TIP3    H142713   1.471   2.788  14.624  0.3339  0.1128 -0.4063
 7074TIP3    H242714   1.369   2.810  14.514 -0.9358  1.1867  0.9415
 7075TIP3   OH242715   4.015   2.160  10.548 -0.1100  0.2929  0.9157
 7075TIP3    H142716   3.975   2.214  10.480 -0.7701  1.4185  2.1473
 7075TIP3    H242717   4.104   2.144  10.516 -1.2761 -1.9056 -1.6811
 7076TIP3   OH242718   4.124   0.783   4.570  0.5260  0.0535  0.2677
 7076TIP3    H142719   4.111   0.873   4.601  0.0100  0.2127 -0.3716
 7076TIP3    H242720   4.092   0.728   4.641 -0.8238  0.4112 -0.0254
 7077TIP3   OH242721   6.161   2.873  16.150 -1.0743 -0.0391 -0.2008
 7077TIP3    H142722   6.184   2.959  16.114 -0.2279 -0.1213  0.1183
 7077TIP3    H242723   6.213   2.866  16.231 -1.7633 -0.5087  0.2157
 7078TIP3   OH242724   1.667   2.164  14.311  0.3664 -0.1887  0.5842
 7078TIP3    H142725   1.750   2.139  14.270  0.0269  0.0697 -0.2960
 7078TIP3    H242726   1.619   2.082  14.321  1.7099 -0.7354  3.4838
 7079TIP3   OH242727   1.078   5.715   1.246 -0.5430 -0.5146  0.6223
 7079TIP3    H142728   1.025   5.754   1.176 -0.4579  0.8817  1.3051
 7079TIP3    H242729   1.148   5.779   1.262  0.7318 -1.8147  0.5016
 7080TIP3   OH242730   6.012   6.451   0.515 -0.0572 -0.4457  0.3786
 7080TIP3    H142731   6.060   6.534   0.521 -0.7331 -0.0563  0.5854
 7080TIP3    H242732   6.080   6.384   0.517  0.5434  0.1203 -0.4555
 7081TIP3   OH242733   2.679   2.722  10.671  0.5338  0.4398 -0.0240
 7081TIP3    H142734   2.743   2.696  10.737  0.2848  1.7741  0.7622
 7081TIP3    H242735   2.636   2.640  10.646  0.6518 -0.0947  1.4344
 7082TIP3   OH242736   2.018   3.734  10.783  0.0333  0.0422 -0.0439
 7082TIP3    H142737   2.065   3.780  10.714  1.4902 -0.5656  0.5003
 7082TIP3    H242738   2.071   3.656  10.801 -0.0918  0.3569  1.9707
 7083TIP3   OH242739   1.229   3.477  12.615  0.3943  0.0914  0.1331
 7083TIP3    H142740   1.270   3.502  12.532  0.4125 -1.6086 -0.4157
 7083TIP3    H242741   1.187   3.557  12.646  0.4884  0.7980 -1.4494
 7084TIP3   OH242742   2.099   6.219  16.112 -0.3087  0.3329 -0.3040
 7084TIP3    H142743   2.036   6.288  16.132  0.5120  0.8119  0.7311
 7084TIP3    H242744   2.172   6.234  16.172  0.6218 -0.4562 -1.1814
 7085TIP3   OH242745   2.195   5.587  15.698  0.0983 -0.5044 -0.2594
 7085TIP3    H142746   2.107   5.550  15.698 -0.3713  0.5876 -0.5820
 7085TIP3    H242747   2.225   5.579  15.788 -0.7181  0.0223  0.0628
 7086TIP3   OH242748   2.712   4.175  15.124  0.4364 -0.1023  0.1176
 7086TIP3    H142749   2.781   4.140  15.179  0.6214  0.7247  0.4311
 7086TIP3    H242750   2.666   4.238  15.180 -0.7213 -0.7949 -0.0115
 7087TIP3   OH242751   1.949   2.908  13.557 -0.1104  0.0876 -0.4787
 7087TIP3    H142752   2.003   2.986  13.574 -0.4720  0.2305  0.0321
 7087TIP3    H242753   1.975   2.846  13.625  1.1590 -0.7663 -1.6892
 7088TIP3   OH242754   6.080   0.437  16.676 -0.1481 -0.4814  0.3184
 7088TIP3    H142755   6.142   0.377  16.635 -0.4795 -1.0714  0.6716
 7088TIP3    H242756   6.118   0.524  16.662  0.9697 -0.8680  0.8944
 7089TIP3   OH242757   2.781   2.827   4.029 -0.2977  0.1412 -0.1445
 7089TIP3    H142758   2.800   2.761   3.962  0.4953  0.4695 -0.2526
 7089TIP3    H242759   2.822   2.907   3.996 -2.1468  0.9813 -0.5414
 7090TIP3   OH242760   5.213   1.040   5.282  0.1686  0.0642  0.2039
 7090TIP3    H142761   5.299   1.005   5.304 -0.1521  0.6560  2.6445
 7090TIP3    H242762   5.232   1.124   5.240  0.8805  1.6548  3.3773
 7091TIP3   OH242763   1.283   2.976  14.982 -0.0020  0.1472  0.1003
 7091TIP3    H142764   1.314   2.886  14.993 -0.5197 -0.0999 -0.3622
 7091TIP3    H242765   1.357   3.022  14.944 -0.8765 -1.0383 -3.4508
 7092TIP3   OH242766   2.022   6.735  14.444  0.0439 -0.3194 -0.2003
 7092TIP3    H142767   1.957   6.780  14.497  0.7237  1.1995 -0.6120
 7092TIP3    H242768   2.099   6.792  14.446  0.6855 -1.0897 -1.3697
 7093TIP3   OH242769   4.762   0.350  12.612  0.2508  0.4613  0.1055
 7093TIP3    H142770   4.818   0.279  12.580 -0.4768  0.3900 -1.0656
 7093TIP3    H242771   4.806   0.430  12.584  0.9435  0.4783  1.2103
 7094TIP3   OH242772   4.408   0.993  16.542 -0.2139 -0.0016 -0.6370
 7094TIP3    H142773   4.334   0.977  16.483 -0.7361 -1.7339  0.3889
 7094TIP3    H242774   4.484   0.956  16.496 -0.4546 -0.5223 -0.6224
 7095TIP3   OH242775   6.614   5.804  15.479  0.5566 -0.4889  0.0193
 7095TIP3    H142776   6.710   5.799  15.474  0.7956  0.4149  2.3613
 7095TIP3    H242777   6.588   5.720  15.516  0.7898  0.2894  2.1085
 7096TIP3   OH242778   1.429   3.297  12.675  0.0268  0.3586 -0.1613
 7096TIP3    H142779   1.466   3.335  12.596 -1.7628 -0.1869 -1.2999
 7096TIP3    H242780   1.363   3.359  12.704  1.1683  0.9339  1.4078
 7097TIP3   OH242781   4.296   1.239  14.648 -0.2046 -0.0915  0.6646
 7097TIP3    H142782   4.279   1.260  14.739 -0.5550  0.2474  0.5205
 7097TIP3    H242783   4.354   1.162  14.652  1.4925  1.1482  1.2096
 7098TIP3   OH242784   2.536   6.430  13.085  0.5461 -0.1897 -0.9373
 7098TIP3    H142785   2.600   6.497  13.063 -0.7645  1.2573 -0.5190
 7098TIP3    H242786   2.466   6.441  13.020 -0.9363  0.6869  0.7196
 7099TIP3   OH242787   4.050   3.950  12.001 -0.5488 -0.0482 -0.4470
 7099TIP3    H142788   4.103   3.878  12.035  0.3955  0.5633 -0.5800
 7099TIP3    H242789   4.001   3.981  12.077 -0.8938 -0.7764 -0.3717
 7100TIP3   OH242790   0.335   4.956   1.303 -0.1262  0.2876 -0.1930
 7100TIP3    H142791   0.365   4.924   1.218 -3.0835  0.6700 -1.5342
 7100TIP3    H242792   0.316   5.049   1.289  0.4758  0.6644  1.2692
 7101TIP3   OH242793   3.722   1.915   0.237 -0.7808 -0.1202 -0.3303
 7101TIP3    H142794   3.760   1.983   0.292  0.5568  0.3291 -1.7256
 7101TIP3    H242795   3.707   1.958   0.153 -0.0081 -1.4822 -1.2081
 7102TIP3   OH242796   2.762   5.213   2.636 -0.4170  0.0505  0.9693
 7102TIP3    H142797   2.823   5.201   2.709  0.6397  1.1030  0.2827
 7102TIP3    H242798   2.805   5.276   2.579 -1.4797 -0.3474 -0.3033
 7103TIP3   OH242799   4.788   4.229   3.785  0.0236 -0.2495 -0.2663
 7103TIP3    H142800   4.859   4.196   3.729  1.4058  0.4272  1.0271
 7103TIP3    H242801   4.817   4.316   3.812 -1.4390  0.1563  0.1005
 7104TIP3   OH242802   2.912   5.453   3.222  0.5559  0.3033  0.5007
 7104TIP3    H142803   2.840   5.390   3.237  0.2345 -0.1990 -2.5924
 7104TIP3    H242804   2.991   5.404   3.245  0.0856  0.0725  1.7147
 7105TIP3   OH242805   3.499   5.644   3.235 -0.6143  0.4823 -0.1192
 7105TIP3    H142806   3.463   5.594   3.308 -1.6810  0.0394 -0.9373
 7105TIP3    H242807   3.439   5.718   3.224 -0.4797  0.5247 -0.5844
 7106TIP3   OH242808   3.319   5.425  10.908  0.2184 -0.1600 -0.2067
 7106TIP3    H142809   3.366   5.390  10.983  0.6367 -1.3487 -0.9937
 7106TIP3    H242810   3.342   5.518  10.907 -0.6196  0.1119  1.7164
 7107TIP3   OH242811   2.442   5.428  12.461  0.0111  0.3185 -0.0475
 7107TIP3    H142812   2.369   5.488  12.479 -0.3402  0.1944 -1.0143
 7107TIP3    H242813   2.437   5.412  12.367 -1.0774 -2.7397  0.4304
 7108TIP3   OH242814   0.884   6.110   2.931 -0.1572 -0.2658  0.2362
 7108TIP3    H142815   0.834   6.031   2.909  0.6036 -0.6990  0.0346
 7108TIP3    H242816   0.960   6.108   2.873 -0.0355  0.5259  0.3526
 7109TIP3   OH242817   4.068   5.998   2.874  0.7834  0.4556 -0.3834
 7109TIP3    H142818   4.003   6.015   2.806  0.2366  0.2819  0.0798
 7109TIP3    H242819   4.148   5.976   2.827  0.1323 -0.7131 -0.9676
 7110TIP3   OH242820   5.191   0.169   0.702 -0.0083 -0.1691 -0.2735
 7110TIP3    H142821   5.145   0.162   0.618 -1.2841  2.0439  0.1621
 7110TIP3    H242822   5.121   0.167   0.768  0.9497 -1.5448  0.7412
 7111TIP3   OH242823   4.101   2.908  16.026 -0.4682  0.1112  0.4157
 7111TIP3    H142824   4.141   2.992  16.049  0.4277  0.0005 -0.6359
 7111TIP3    H242825   4.171   2.844  16.040 -0.5170 -0.1967 -0.6050
 7112TIP3   OH242826   0.417   4.788   0.614 -0.8590 -0.5692  0.0577
 7112TIP3    H142827   0.459   4.868   0.584  0.8218 -0.0378  3.2921
 7112TIP3    H242828   0.323   4.807   0.613 -0.5343  1.1631  0.0480
 7113TIP3   OH242829   5.144   0.031  16.454  0.3354  0.7364 -0.3257
 7113TIP3    H142830   5.069  -0.026  16.471  0.9950 -0.0403  0.0806
 7113TIP3    H242831   5.155   0.027  16.359  2.1133 -2.1975 -0.1134
 7114TIP3   OH242832   2.872   3.901  14.796 -0.4284  0.4818 -0.3662
 7114TIP3    H142833   2.800   3.858  14.842  0.9251  0.6400  2.0518
 7114TIP3    H242834   2.855   3.882  14.703 -2.2120 -1.5928  0.2873
 7115TIP3   OH242835   6.373   4.393  15.674 -0.0835  0.5158 -0.4300
 7115TIP3    H142836   6.395   4.483  15.650  1.2258  0.3378  0.0237
 7115TIP3    H242837   6.457   4.354  15.699 -0.8250 -0.4479  0.6438
 7116TIP3   OH242838   0.295   6.840   3.040  0.1998  0.1700 -0.2750
 7116TIP3    H142839   0.339   6.922   3.015  0.4313  1.0617  2.6386
 7116TIP3    H242840   0.207   6.849   3.005 -0.1605  2.3131  0.9362
 7117TIP3   OH242841   6.755   3.274   0.654 -0.4692 -0.0606  0.2630
 7117TIP3    H142842   6.794   3.343   0.601 -3.3264  0.7857 -0.9365
 7117TIP3    H242843   6.754   3.310   0.743  0.7983  0.1551  0.1989
 7118TIP3   OH242844   3.883   3.656  14.707 -0.8461 -1.1108 -0.0633
 7118TIP3    H142845   3.818   3.654  14.777 -0.1697  0.8638  0.6763
 7118TIP3    H242846   3.875   3.743  14.669  0.4237 -1.3301 -0.8952
 7119TIP3   OH242847   6.642   5.864   3.902 -0.4379 -1.2033 -0.0717
 7119TIP3    H142848   6.664   5.846   3.994  0.2203 -0.3557 -0.0429
 7119TIP3    H242849   6.683   5.792   3.853 -1.3289 -2.0085  0.3311
 7120TIP3   OH242850   0.675   5.200   3.597 -0.0253  0.2459  0.1204
 7120TIP3    H142851   0.654   5.264   3.529  0.1400  0.3097  0.1282
 7120TIP3    H242852   0.680   5.117   3.550 -1.5183  0.0188  0.3098
 7121TIP3   OH242853   2.741   6.703   1.899  1.1899 -0.6734 -0.4430
 7121TIP3    H142854   2.821   6.754   1.890  0.4859  0.7842  0.9595
 7121TIP3    H242855   2.712   6.719   1.989 -0.8445 -0.8825 -0.9968
 7122TIP3   OH242856   3.687   4.109  16.466 -0.3156 -0.2344 -0.0779
 7122TIP3    H142857   3.761   4.146  16.418 -1.2919  0.7551 -0.8785
 7122TIP3    H242858   3.722   4.090  16.553  1.0110 -0.3092 -0.6105
 7123TIP3   OH242859   5.801   5.019   5.865 -0.0865  0.4835 -0.4878
 7123TIP3    H142860   5.775   5.040   5.775  0.1433 -1.2387 -0.9903
 7123TIP3    H242861   5.784   4.925   5.873  1.5255  0.2620  0.7002
 7124TIP3   OH242862   5.592   6.738   0.844  0.2443 -0.6421 -0.2471
 7124TIP3    H142863   5.538   6.677   0.895 -1.8706  0.3778 -1.1450
 7124TIP3    H242864   5.610   6.810   0.904  0.7467 -1.0505  0.0993
 7125TIP3   OH242865   2.514   1.245   4.757 -0.0664  0.0147  0.0810
 7125TIP3    H142866   2.570   1.263   4.833  1.8431 -0.1541 -1.2156
 7125TIP3    H242867   2.449   1.183   4.789  0.6904 -0.0559  1.5771
 7126TIP3   OH242868   5.800   3.791  14.439 -0.0084  0.6251  0.9815
 7126TIP3    H142869   5.868   3.764  14.377  0.2740  1.3480  0.9648
 7126TIP3    H242870   5.792   3.717  14.499  0.1402  0.1593  0.4416
 7127TIP3   OH242871   3.234   4.679  11.952  0.2008  0.0951  0.3910
 7127TIP3    H142872   3.297   4.751  11.954 -0.6914  0.8913  0.5563
 7127TIP3    H242873   3.282   4.606  11.912  0.4735  1.4129 -1.8371
 7128TIP3   OH242874   4.165   2.714  10.989 -0.0881  0.1345 -0.3506
 7128TIP3    H142875   4.135   2.738  10.902 -0.4185 -1.4218 -0.6954
 7128TIP3    H242876   4.233   2.649  10.974  1.2564  1.2725  0.5243
 7129TIP3   OH242877   1.676   2.711  16.862  0.3664  0.1627 -0.4879
 7129TIP3    H142878   1.619   2.683  16.790  0.4432  1.9792 -1.3046
 7129TIP3    H242879   1.680   2.806  16.854  1.5578  0.2804  1.0518
 7130TIP3   OH242880   5.078   2.879  12.015  0.0222  0.6834  0.6356
 7130TIP3    H142881   5.007   2.915  12.069  0.3876  1.9678  0.3124
 7130TIP3    H242882   5.076   2.785  12.031 -3.1911  0.3375 -1.0025
 7131TIP3   OH242883   5.343   6.495   4.094 -0.2116  0.2302 -0.6347
 7131TIP3    H142884   5.274   6.429   4.086  0.2530 -0.4932  0.8876
 7131TIP3    H242885   5.397   6.465   4.168  2.0554  0.4954 -2.0837
 7132TIP3   OH242886   6.239   6.221  11.054 -0.4716  0.0724  0.6272
 7132TIP3    H142887   6.281   6.279  11.116 -1.4960  1.2135  0.2915
 7132TIP3    H242888   6.288   6.233  10.972 -1.7867  1.8952  0.0559
 7133TIP3   OH242889   2.875   3.363  13.518 -0.3167 -0.5528  0.4517
 7133TIP3    H142890   2.879   3.269  13.506 -0.0428 -0.4102 -0.6709
 7133TIP3    H242891   2.797   3.377  13.572 -0.4571 -1.4003  0.4764
 7134TIP3   OH242892   3.771   1.173  11.448  0.0343 -0.4946  0.4565
 7134TIP3    H142893   3.856   1.210  11.470  1.0522 -0.7438 -2.6005
 7134TIP3    H242894   3.718   1.187  11.527  1.8857  2.6566  1.3315
 7135TIP3   OH242895   4.067   3.008  10.588  0.1412 -0.6813  0.3433
 7135TIP3    H142896   4.034   2.963  10.509 -0.8636 -0.4285  0.6007
 7135TIP3    H242897   4.149   2.963  10.608 -0.5259 -2.0126  0.2329
 7136TIP3   OH242898   4.289   4.749   1.233 -0.1848  0.0995 -0.5475
 7136TIP3    H142899   4.245   4.691   1.294 -1.8798  1.1655 -0.7010
 7136TIP3    H242900   4.316   4.824   1.286 -0.9142  0.6440 -0.9335
 7137TIP3   OH242901   2.528   2.197   2.113  0.2923 -0.1175  0.9254
 7137TIP3    H142902   2.557   2.236   2.030 -1.1547 -1.2679 -0.2024
 7137TIP3    H242903   2.568   2.110   2.113  1.0407  0.2174  1.9169
 7138TIP3   OH242904   4.424   0.184  11.923 -0.2442 -0.4251  0.1375
 7138TIP3    H142905   4.486   0.164  11.993 -1.3338  2.6296  2.2046
 7138TIP3    H242906   4.375   0.260  11.956 -2.8669 -0.6796 -2.7452
 7139TIP3   OH242907   5.873   6.661   3.011  0.0547 -0.1471  0.4576
 7139TIP3    H142908   5.928   6.584   3.026  1.1997  0.8185  1.4275
 7139TIP3    H242909   5.843   6.686   3.099  0.0892  0.7658  0.2224
 7140TIP3   OH242910   3.940   5.508   3.108  0.4485 -0.1231 -0.6798
 7140TIP3    H142911   3.989   5.460   3.042  1.9078 -0.5920  0.6609
 7140TIP3    H242912   3.990   5.589   3.120  1.3718 -0.8912  1.1725
 7141TIP3   OH242913   4.778   6.117   4.448  0.4807 -0.5093 -0.6031
 7141TIP3    H142914   4.864   6.149   4.472  0.1658  0.6029 -0.8933
 7141TIP3    H242915   4.769   6.141   4.355  0.9279 -3.0294 -1.3853
 7142TIP3   OH242916   1.963   5.819   4.191  0.2206  0.2691 -0.1457
 7142TIP3    H142917   1.942   5.750   4.128  0.6607  0.0137 -0.0144
 7142TIP3    H242918   2.056   5.807   4.209  0.7299  1.9423 -1.3981
 7143TIP3   OH242919   2.157   6.080   0.476 -0.0349  0.0673 -0.7245
 7143TIP3    H142920   2.182   6.025   0.402 -1.6143 -1.0795 -0.4732
 7143TIP3    H242921   2.231   6.074   0.536 -0.1678 -1.9044 -0.6766
 7144TIP3   OH242922   1.965   6.804   2.928  0.2341 -0.0297 -0.4436
 7144TIP3    H142923   2.021   6.729   2.945  0.4777 -0.1022 -1.4998
 7144TIP3    H242924   1.893   6.768   2.875 -1.3508 -0.1395  1.6512
 7145TIP3   OH242925   4.862   4.575   5.309 -0.1605 -0.1066  0.3643
 7145TIP3    H142926   4.861   4.526   5.392  1.4918 -1.2325 -0.2479
 7145TIP3    H242927   4.942   4.627   5.313 -1.0570  1.3441  0.2705
 7146TIP3   OH242928   4.451   1.142  14.276 -0.0658  0.6356  0.6303
 7146TIP3    H142929   4.545   1.160  14.278  0.6324 -2.3210 -0.3339
 7146TIP3    H242930   4.429   1.141  14.183 -0.4551 -1.0935  0.7089
 7147TIP3   OH242931   3.168   1.919  10.745  0.1164 -0.5093  0.4381
 7147TIP3    H142932   3.247   1.936  10.795  0.2687 -0.3034  0.1339
 7147TIP3    H242933   3.121   2.002  10.745 -0.1559 -0.6612  0.7135
 7148TIP3   OH242934   4.102   3.184   3.489  0.3645 -0.0928  0.0438
 7148TIP3    H142935   4.037   3.254   3.483 -0.6081 -0.7863  1.7856
 7148TIP3    H242936   4.183   3.229   3.515  0.3189  0.6166 -0.9555
 7149TIP3   OH242937   5.108   0.911   6.769 -0.1031  0.4069  0.5694
 7149TIP3    H142938   5.166   0.847   6.727 -1.2354 -0.2374 -0.0608
 7149TIP3    H242939   5.149   0.928   6.854  0.7747 -0.3609  0.3182
 7150TIP3   OH242940   5.788   0.031  11.941 -0.2841  0.1359  0.1923
 7150TIP3    H142941   5.827  -0.035  11.883 -0.2107 -0.1870  0.6055
 7150TIP3    H242942   5.839   0.024  12.022 -1.2579 -0.3484  0.7731
 7151TIP3   OH242943   0.603   2.748   0.774  0.5475 -0.2545  0.2943
 7151TIP3    H142944   0.561   2.801   0.706  2.0403 -0.5389 -0.9047
 7151TIP3    H242945   0.531   2.718   0.829 -0.6160  0.6803 -0.6713
 7152TIP3   OH242946   0.009   2.098   1.542  0.6025  0.0067  0.3045
 7152TIP3    H142947   0.073   2.026   1.543  1.5149  0.7114 -1.6540
 7152TIP3    H242948   0.042   2.160   1.608 -0.1067 -1.2285  1.8940
 7153TIP3   OH242949   0.049   4.346  15.490 -0.0100  0.2905  0.0123
 7153TIP3    H142950   0.123   4.287  15.505 -1.1697 -0.9322  1.1971
 7153TIP3    H242951  -0.015   4.293  15.442 -1.5492  0.1470  2.0941
 7154TIP3   OH242952   1.062   5.931  14.873  0.1349  0.0405 -0.3619
 7154TIP3    H142953   1.158   5.935  14.880  0.2287  0.6860 -1.6523
 7154TIP3    H242954   1.042   5.987  14.798 -1.2456 -0.2243 -0.2034
 7155TIP3   OH242955   1.616   2.983   2.895 -0.1498  0.4806 -0.2637
 7155TIP3    H142956   1.693   3.017   2.850  1.7978  0.8499  3.0189
 7155TIP3    H242957   1.573   3.060   2.932  0.4536  0.0235  1.5303
 7156TIP3   OH242958   1.263   2.071   3.184  0.5378 -0.0242 -0.2013
 7156TIP3    H142959   1.204   2.041   3.253  0.6887 -0.6889 -0.3551
 7156TIP3    H242960   1.340   2.015   3.191  2.4328  2.5740  1.7917
 7157TIP3   OH242961   2.220   2.760   1.977 -0.2291  0.3434  0.0444
 7157TIP3    H142962   2.131   2.781   1.948 -0.2305  0.0380 -0.1813
 7157TIP3    H242963   2.214   2.669   2.008  0.4004 -0.3528 -1.7252
 7158TIP3   OH242964   1.825   4.304  13.161  0.5491 -0.0139 -0.3044
 7158TIP3    H142965   1.866   4.255  13.089  0.3870 -0.7156  0.0664
 7158TIP3    H242966   1.765   4.241  13.201  1.0881  0.1708  0.8322
 7159TIP3   OH242967   1.017   4.027   0.450 -0.1799 -0.4795 -0.0383
 7159TIP3    H142968   0.987   3.973   0.377  1.5298  0.1287 -1.2568
 7159TIP3    H242969   1.054   3.965   0.513  1.3514 -0.8193 -1.2124
 7160TIP3   OH242970   1.658   3.359  15.866  0.2307 -0.7660  0.7944
 7160TIP3    H142971   1.609   3.334  15.788  0.2045  2.2718 -0.2926
 7160TIP3    H242972   1.600   3.335  15.939 -0.1218 -2.8510 -0.1013
 7161TIP3   OH242973   4.990   4.724  17.067  0.2184 -0.1164  0.2251
 7161TIP3    H142974   5.002   4.745  16.974  1.3874  1.0811  0.6055
 7161TIP3    H242975   5.040   4.643  17.080  1.9405  0.8982  0.2366
 7162TIP3   OH242976   5.533   6.457  15.943  0.2905 -0.2297  0.0725
 7162TIP3    H142977   5.518   6.550  15.958  0.3787 -0.3252  0.7565
 7162TIP3    H242978   5.559   6.451  15.851 -1.3317  0.2387 -0.4434
 7163TIP3   OH242979   6.690   1.654  13.848  0.3037  0.5346 -0.0555
 7163TIP3    H142980   6.674   1.680  13.939 -1.5491 -1.0799  0.1525
 7163TIP3    H242981   6.712   1.736  13.803  1.0310  1.3931  1.7807
 7164TIP3   OH242982   5.944   5.711   5.109 -0.1672  0.1260  0.3542
 7164TIP3    H142983   5.969   5.797   5.075  1.8929 -0.2516  0.7559
 7164TIP3    H242984   6.009   5.692   5.177  0.2992 -2.3242 -0.6493
 7165TIP3   OH242985   4.856   2.124   5.403 -0.0219  0.0135  0.8262
 7165TIP3    H142986   4.907   2.119   5.484  0.4796 -2.3283  0.4246
 7165TIP3    H242987   4.831   2.034   5.384 -1.0850  0.6387 -1.0511
 7166TIP3   OH242988   0.232   5.191  14.219 -0.0824 -0.4704 -0.3681
 7166TIP3    H142989   0.314   5.236  14.238  0.1524 -0.7270 -0.7595
 7166TIP3    H242990   0.185   5.191  14.302  0.6419 -0.9852  0.0485
 7167TIP3   OH242991   3.525   5.327  14.776  0.5795 -0.1030 -0.3337
 7167TIP3    H142992   3.578   5.391  14.729  1.0923 -1.6198 -1.8886
 7167TIP3    H242993   3.584   5.253  14.792 -0.1736 -0.4835  0.8321
 7168TIP3   OH242994   5.410   3.401  14.389 -0.5234  0.2807 -0.4487
 7168TIP3    H142995   5.348   3.373  14.456 -1.3631  1.1076 -0.8674
 7168TIP3    H242996   5.493   3.411  14.436 -0.6671 -0.9266  0.0969
 7169TIP3   OH242997   2.579   0.038  15.486  0.1401 -0.2559 -0.0782
 7169TIP3    H142998   2.503   0.063  15.434  0.8817  2.0455 -0.2072
 7169TIP3    H242999   2.635  -0.010  15.425  1.6839  3.6484 -2.1298
 7170TIP3   OH243000   2.639   3.132  10.483  0.1123 -0.8044 -0.0274
 7170TIP3    H143001   2.610   3.222  10.468 -0.5426 -0.9576  0.3037
 7170TIP3    H243002   2.732   3.133  10.460 -0.2313 -0.4071 -1.5256
 7171TIP3   OH243003   0.350   2.450   3.530  0.2427 -0.2181 -0.1927
 7171TIP3    H143004   0.261   2.481   3.550  1.0725  2.2361  0.0781
 7171TIP3    H243005   0.341   2.356   3.519 -2.8208  0.2086 -2.5352
 7172TIP3   OH243006   2.336   1.804  16.553 -0.1494 -0.3660 -0.8917
 7172TIP3    H143007   2.276   1.769  16.487 -1.1862  1.5940 -1.1020
 7172TIP3    H243008   2.313   1.757  16.633 -1.3102 -0.3812 -1.2031
 7173TIP3   OH243009   4.759   3.600  13.693 -0.3491 -0.2922 -0.2391
 7173TIP3    H143010   4.828   3.643  13.642 -0.7167  0.1092 -0.4052
 7173TIP3    H243011   4.742   3.518  13.645 -1.3467  0.5095 -1.3194
 7174TIP3   OH243012   2.095   4.566  15.524 -0.6510  0.4690 -0.2122
 7174TIP3    H143013   2.146   4.489  15.501 -0.7084  0.4901 -0.4083
 7174TIP3    H243014   2.005   4.535  15.532 -0.6210  0.4486  0.0509
 7175TIP3   OH243015   1.458   1.963  12.550  0.0552  0.1041  0.4121
 7175TIP3    H143016   1.540   2.012  12.544 -1.3886  2.4826 -2.4089
 7175TIP3    H243017   1.457   1.908  12.472 -2.3153  2.5799 -1.5054
 7176TIP3   OH243018   0.622   2.410  11.846  0.1375  0.5688  0.4066
 7176TIP3    H143019   0.690   2.457  11.799  0.9434 -1.8823 -1.0701
 7176TIP3    H243020   0.542   2.426  11.796  0.5484 -0.1558 -0.5124
 7177TIP3   OH243021   2.874   0.501   1.936 -0.1060  0.4550  0.6622
 7177TIP3    H143022   2.894   0.595   1.935  1.3407  0.2426 -1.9525
 7177TIP3    H243023   2.789   0.494   1.892 -0.4467  0.5507  1.2938
 7178TIP3   OH243024   0.425   0.657   6.012 -0.3477 -0.5262 -0.1480
 7178TIP3    H143025   0.467   0.615   6.087 -0.9166 -1.8077 -0.5175
 7178TIP3    H243026   0.331   0.655   6.032 -0.4109  0.3155 -0.3143
 7179TIP3   OH243027   4.468   3.044  13.407  0.1183  0.7250  0.6239
 7179TIP3    H143028   4.471   3.107  13.335 -0.9288  0.5296  0.3970
 7179TIP3    H243029   4.529   3.080  13.472 -1.0981  2.4789  0.8906
 7180TIP3   OH243030   5.322   2.250  16.624  0.5244  0.5624 -0.2974
 7180TIP3    H143031   5.368   2.167  16.612 -0.1537  0.2086 -0.5299
 7180TIP3    H243032   5.324   2.266  16.718  1.0034  0.4911 -0.2901
 7181TIP3   OH243033   3.223   4.488  16.482 -0.4317  0.1541  0.9827
 7181TIP3    H143034   3.316   4.467  16.488 -0.5612 -0.0100  2.7279
 7181TIP3    H243035   3.180   4.424  16.538 -1.7804 -0.7046 -0.9393
 7182TIP3   OH243036   2.187   2.031  15.555  0.6698  0.0889  0.7862
 7182TIP3    H143037   2.095   2.009  15.570  0.0850  2.4892  1.0299
 7182TIP3    H243038   2.199   2.025  15.461  0.7756 -1.8688  0.8681
 7183TIP3   OH243039   1.884   2.934  15.391 -0.4641  0.5295 -0.7099
 7183TIP3    H143040   1.932   3.012  15.360  1.7425  0.1596  1.4886
 7183TIP3    H243041   1.856   2.890  15.310  4.0236  0.1592 -2.3465
 7184TIP3   OH243042   3.661   2.054   5.359  0.4686  0.0173  0.0346
 7184TIP3    H143043   3.755   2.067   5.346  0.4198  0.8283  0.4332
 7184TIP3    H243044   3.628   2.141   5.381 -0.1939 -0.4776  1.0522
 7185TIP3   OH243045   1.093   5.313  14.724 -0.0820  0.3152 -0.1750
 7185TIP3    H143046   1.007   5.283  14.694 -0.5660  0.1749  1.2570
 7185TIP3    H243047   1.115   5.254  14.795  0.9514  0.7106 -0.1577
 7186TIP3   OH243048   1.242   5.368  14.499 -0.2952  0.4839 -0.5675
 7186TIP3    H143049   1.220   5.459  14.482 -0.6688  0.4890 -0.0667
 7186TIP3    H243050   1.210   5.351  14.588  1.9030  0.5684  0.3135
 7187TIP3   OH243051   2.118   0.712  14.568  0.3439 -0.5645  0.0740
 7187TIP3    H143052   2.107   0.695  14.662  0.8838  0.0591  0.2595
 7187TIP3    H243053   2.113   0.625  14.527  1.5946 -1.0195  0.8369
 7188TIP3   OH243054   6.204   0.763  14.713 -0.3117  0.1050  0.1147
 7188TIP3    H143055   6.160   0.801  14.789  0.9411  2.6122 -0.3098
 7188TIP3    H243056   6.143   0.778  14.641 -0.5537 -0.3036  0.2263
 7189TIP3   OH243057   4.587   4.806  11.713  0.0591  0.1575 -0.5012
 7189TIP3    H143058   4.651   4.788  11.644  0.2403 -1.3469  0.0317
 7189TIP3    H243059   4.635   4.789  11.795 -1.2374 -1.9001 -0.0984
 7190TIP3   OH243060   2.782   4.040   3.693 -0.4364 -0.8422  0.4908
 7190TIP3    H143061   2.829   4.115   3.729  0.2643 -0.8659 -0.3582
 7190TIP3    H243062   2.851   3.980   3.665 -0.9446 -0.7139 -1.1120
 7191TIP3   OH243063   0.176   0.132  16.876 -0.1671  0.1604 -0.1485
 7191TIP3    H143064   0.134   0.047  16.863  0.5026 -0.2878  0.5243
 7191TIP3    H243065   0.112   0.183  16.927 -0.2726 -0.2005  0.0875
 7192TIP3   OH243066   6.287   3.201   0.649  0.4704 -0.2408 -0.5475
 7192TIP3    H143067   6.258   3.119   0.609 -0.1797  0.1197 -0.8400
 7192TIP3    H243068   6.317   3.176   0.737 -0.3282 -0.7048 -0.3936
 7193TIP3   OH243069   6.534   0.681  12.291  0.7574  0.4057  0.3501
 7193TIP3    H143070   6.571   0.673  12.203 -0.0659  1.6560 -0.1367
 7193TIP3    H243071   6.561   0.768  12.321  1.0064  0.0077  1.3433
 7194TIP3   OH243072   0.657   6.121   0.621  0.2134 -0.5542  0.6687
 7194TIP3    H143073   0.614   6.038   0.644 -0.3706 -0.8988 -1.4758
 7194TIP3    H243074   0.747   6.095   0.601  0.0635 -0.6626  0.1212
 7195TIP3   OH243075   4.762   0.434   5.114 -0.4381  0.1963  0.0169
 7195TIP3    H143076   4.749   0.490   5.038 -1.3977 -1.2364 -0.9362
 7195TIP3    H243077   4.856   0.412   5.112 -0.3252  0.7026 -0.3553
 7196TIP3   OH243078   4.986   6.130   1.434 -0.3399 -0.2642  0.1483
 7196TIP3    H143079   5.035   6.083   1.501  1.5806  2.0683  0.5107
 7196TIP3    H243080   5.019   6.219   1.438 -1.4011  0.3746 -2.7530
 7197TIP3   OH243081   0.260   5.416  13.485 -0.4713  0.0982  0.2417
 7197TIP3    H143082   0.282   5.507  13.468  0.8250 -0.5101 -1.7188
 7197TIP3    H243083   0.329   5.384  13.544 -0.0727  0.0194 -0.2598
 7198TIP3   OH243084   2.123   1.173   3.057 -0.8210 -0.1398  0.1351
 7198TIP3    H143085   2.093   1.094   3.102 -1.6368  0.0116 -0.1152
 7198TIP3    H243086   2.096   1.245   3.114 -0.0713 -0.0418  0.3682
 7199TIP3   OH243087   2.414   1.774  16.957 -0.3544  0.9363  0.4946
 7199TIP3    H143088   2.366   1.838  16.904 -0.1803  0.7725  0.1365
 7199TIP3    H243089   2.347   1.712  16.987 -0.3576  0.6517 -0.0852
 7200TIP3   OH243090   1.017   1.776  14.781 -0.2253 -0.3964  0.7606
 7200TIP3    H143091   1.071   1.843  14.738 -0.3063 -1.0021 -0.3021
 7200TIP3    H243092   0.935   1.775  14.731 -0.5540 -0.6941  1.3009
 7201TIP3   OH243093   6.658   0.800   4.548  0.3507  0.3545 -0.2126
 7201TIP3    H143094   6.596   0.781   4.478 -1.1900 -0.2278  1.2581
 7201TIP3    H243095   6.742   0.770   4.514  0.5321  3.7388 -3.4169
 7202TIP3   OH243096   2.727   3.325   3.962  0.3576 -0.2057 -0.2694
 7202TIP3    H143097   2.811   3.338   3.918  0.7385  0.3946  0.5999
 7202TIP3    H243098   2.668   3.388   3.921  0.8956  0.8549  0.5226
 7203TIP3   OH243099   6.591   5.022  11.387  0.2503 -0.0518  0.3311
 7203TIP3    H143100   6.509   5.050  11.428 -1.0641 -0.3255 -1.9365
 7203TIP3    H243101   6.618   5.097  11.333  1.3443 -0.0885  0.7926
 7204TIP3   OH243102   6.757   4.990   1.944 -0.0440 -0.6355 -0.2627
 7204TIP3    H143103   6.805   4.941   1.877  1.2508 -0.8202  0.7501
 7204TIP3    H243104   6.718   5.063   1.897  0.5010 -0.9790 -1.2835
 7205TIP3   OH243105   4.533   2.787  13.431 -0.0030  0.4522  0.0106
 7205TIP3    H143106   4.567   2.815  13.515  0.5242  2.1988 -0.7544
 7205TIP3    H243107   4.487   2.863  13.396  0.1485 -0.1007 -1.4728
 7206TIP3   OH243108   6.097   1.689  16.276 -0.0676 -0.0457  0.6032
 7206TIP3    H143109   6.072   1.700  16.184  0.4935  2.0799  0.6355
 7206TIP3    H243110   6.088   1.777  16.313 -0.0887 -0.8319  2.5455
 7207TIP3   OH243111   0.303   5.690  13.470  0.2097  0.2961  0.4662
 7207TIP3    H143112   0.267   5.777  13.490  4.0859  2.7418 -1.8934
 7207TIP3    H243113   0.372   5.677  13.535  1.6734  0.5004 -0.9807
 7208TIP3   OH243114   0.418   2.205   4.205 -0.1074 -0.5384  0.7019
 7208TIP3    H143115   0.506   2.243   4.211  0.4524 -1.4712 -0.8236
 7208TIP3    H243116   0.406   2.190   4.111 -0.7866 -2.9090  1.1091
 7209TIP3   OH243117   6.015   4.641   1.380  0.7166  0.4117 -0.0795
 7209TIP3    H143118   5.986   4.614   1.467 -0.7696 -0.7905 -0.9124
 7209TIP3    H243119   5.940   4.686   1.342  1.7235  1.9660 -0.3713
 7210TIP3   OH243120   1.596   5.240   5.222  0.3065 -0.3749 -0.0042
 7210TIP3    H143121   1.636   5.233   5.136 -1.6166 -0.9290 -0.9203
 7210TIP3    H243122   1.614   5.155   5.263  3.1989  0.6748  1.1431
 7211TIP3   OH243123   5.605   3.766   1.717  0.0212 -0.0194 -0.6351
 7211TIP3    H143124   5.666   3.834   1.745 -0.9211 -0.3298  2.5490
 7211TIP3    H243125   5.536   3.813   1.670  0.8889  0.7878 -1.1336
 7212TIP3   OH243126   2.522   5.302   2.560 -0.2501 -0.2075  0.0307
 7212TIP3    H143127   2.610   5.278   2.588  0.2716  2.7508  1.2839
 7212TIP3    H243128   2.521   5.281   2.466  3.0857  2.7601 -0.8870
 7213TIP3   OH243129   6.056   5.748  13.754  0.0811 -0.2125 -0.3714
 7213TIP3    H143130   6.038   5.664  13.712 -0.8197  0.2277 -0.8776
 7213TIP3    H243131   6.067   5.727  13.847 -0.9183 -0.7907 -0.3734
 7214TIP3   OH243132   4.916   4.239  11.721  0.2874 -0.0977 -0.3136
 7214TIP3    H143133   4.975   4.167  11.700  0.3658 -0.2511  0.4353
 7214TIP3    H243134   4.952   4.314  11.673  1.9233  0.1645  1.2269
 7215TIP3   OH243135   0.441   4.938  16.648 -0.3298 -0.4567  0.0340
 7215TIP3    H143136   0.436   4.995  16.572 -2.4491 -0.8079 -0.1470
 7215TIP3    H243137   0.476   4.856  16.613 -0.1888 -0.2461 -0.3259
 7216TIP3   OH243138   0.943   1.690   2.475  0.5771 -0.2627 -0.1251
 7216TIP3    H143139   0.972   1.664   2.563 -0.5881 -1.4486 -0.0552
 7216TIP3    H243140   0.936   1.785   2.479  3.1038 -0.0255  0.2311
 7217TIP3   OH243141   0.211   5.738   5.855  0.0765 -0.0640  0.2784
 7217TIP3    H143142   0.222   5.689   5.937  0.0680  0.0424  0.3433
 7217TIP3    H243143   0.203   5.829   5.883  1.4564  0.1454  0.0784
 7218TIP3   OH243144   5.251   4.919   3.024 -0.2576 -0.1373 -0.2526
 7218TIP3    H143145   5.188   4.963   3.082  0.9005  0.8261  0.3153
 7218TIP3    H243146   5.336   4.942   3.060  0.5322  0.9398 -2.6581
 7219TIP3   OH243147   5.152   3.878   3.870  0.7531 -0.3578 -0.1393
 7219TIP3    H143148   5.096   3.950   3.841  0.5530 -0.2809  0.4198
 7219TIP3    H243149   5.237   3.919   3.887  0.3152 -0.0004  1.3599
 7220TIP3   OH243150   4.388   5.449   4.171 -0.7051 -0.1891  0.1037
 7220TIP3    H143151   4.446   5.401   4.112  0.0989 -0.3930  1.0351
 7220TIP3    H243152   4.394   5.540   4.142  2.0397  0.2446  1.6339
 7221TIP3   OH243153   5.765   2.729  12.814  0.4014  0.1454 -0.7908
 7221TIP3    H143154   5.725   2.715  12.728 -1.6472  0.5701  0.0148
 7221TIP3    H243155   5.718   2.669  12.872  1.0288  0.6025  0.2098
 7222TIP3   OH243156   3.913   5.443  16.011  0.3948 -0.6519  0.6682
 7222TIP3    H143157   3.859   5.476  16.083 -1.9785  0.9739 -1.6629
 7222TIP3    H243158   4.000   5.480  16.027 -0.4257  0.8297  1.9725
 7223TIP3   OH243159   4.367   6.673   4.910 -0.0317  0.0760 -0.7510
 7223TIP3    H143160   4.440   6.666   4.973 -1.6264 -0.1331  1.1931
 7223TIP3    H243161   4.290   6.689   4.965 -1.5461 -0.2570 -2.6747
 7224TIP3   OH243162   2.203   5.572   0.353 -0.1937 -0.1506  0.1430
 7224TIP3    H143163   2.278   5.611   0.397 -1.1858  0.0999  1.6906
 7224TIP3    H243164   2.220   5.478   0.355 -0.1470 -0.1335  0.9691
 7225TIP3   OH243165   1.670   2.641   4.998  0.1743 -0.8904  0.3455
 7225TIP3    H143166   1.630   2.566   5.043  0.0613 -0.7977  0.4001
 7225TIP3    H243167   1.617   2.716   5.025  0.2433 -0.8013  0.2331
 7226TIP3   OH243168   2.844   0.779   5.182  1.1106  0.7974 -0.2986
 7226TIP3    H143169   2.872   0.850   5.240 -0.2380  0.9034  0.2752
 7226TIP3    H243170   2.775   0.819   5.128  1.3063  0.2908 -0.9353
 7227TIP3   OH243171   6.210   3.554   3.655  0.3010  0.9216 -0.0481
 7227TIP3    H143172   6.234   3.562   3.562 -0.5577  0.8283 -0.2862
 7227TIP3    H243173   6.234   3.465   3.678  0.3457  0.8851 -0.2333
 7228TIP3   OH243174   4.311   3.313  13.022 -0.5000 -0.4037  0.7093
 7228TIP3    H143175   4.237   3.261  13.052  1.1897 -3.1183  0.4993
 7228TIP3    H243176   4.382   3.250  13.011  1.4787  1.8544 -0.4242
 7229TIP3   OH243177   2.586   2.042  12.146  0.2764  0.3283  0.7032
 7229TIP3    H143178   2.640   2.084  12.079 -0.1756  2.2757  1.4757
 7229TIP3    H243179   2.644   2.035  12.222  0.5873 -1.2586  0.3558
 7230TIP3   OH243180   4.112   4.695  16.088  0.0120 -0.2490  0.9286
 7230TIP3    H143181   4.036   4.747  16.061 -1.4893 -3.0684 -0.7768
 7230TIP3    H243182   4.101   4.683  16.182 -1.9629 -0.9371  0.6633
 7231TIP3   OH243183   5.661   0.042   1.923 -0.0035 -0.4016  0.2996
 7231TIP3    H143184   5.588   0.093   1.958  1.9735  1.3175  2.2199
 7231TIP3    H243185   5.627  -0.048   1.918 -1.8320  0.0705  2.4251
 7232TIP3   OH243186   2.941   1.704   5.682 -0.0831 -0.5583 -0.4048
 7232TIP3    H143187   2.906   1.777   5.733 -1.2544 -0.7839 -0.8550
 7232TIP3    H243188   2.969   1.640   5.748 -0.5617 -0.3885 -0.0364
 7233TIP3   OH243189   5.094   0.370  12.802 -0.3074  0.0484  0.1681
 7233TIP3    H143190   5.151   0.332  12.869 -0.2396 -0.3512 -0.1108
 7233TIP3    H243191   5.155   0.395  12.732 -0.5289 -0.9194 -0.3818
 7234TIP3   OH243192   5.409   6.295   6.449  0.1494 -0.3779 -0.0347
 7234TIP3    H143193   5.403   6.375   6.398  1.0245 -0.7782 -0.7944
 7234TIP3    H243194   5.502   6.271   6.446 -0.0909 -1.4053  0.1984
 7235TIP3   OH243195   0.967   1.197  11.533 -0.3068 -0.1960  0.0452
 7235TIP3    H143196   0.933   1.167  11.448 -1.9057  0.0859  0.5526
 7235TIP3    H243197   1.062   1.189  11.524 -0.4756 -1.1435 -1.4114
 7236TIP3   OH243198   2.713   5.284  13.089 -0.1288 -0.0819 -0.6208
 7236TIP3    H143199   2.789   5.234  13.060 -0.8267 -2.3445  1.2013
 7236TIP3    H243200   2.649   5.274  13.018  0.6617  0.4839 -1.4352
 7237TIP3   OH243201   5.374   5.570   3.994 -0.1575 -0.4342 -0.2620
 7237TIP3    H143202   5.378   5.665   3.992  0.8162 -0.4775 -0.7247
 7237TIP3    H243203   5.465   5.541   3.987 -0.3583 -1.3947  0.8114
 7238TIP3   OH243204   1.423   0.779   5.240  1.0640  0.0513  0.1177
 7238TIP3    H143205   1.333   0.791   5.271 -0.1112 -1.6263 -2.3020
 7238TIP3    H243206   1.454   0.701   5.285  0.4340 -0.6761 -0.6619
 7239TIP3   OH243207   1.700   6.612   1.296 -0.5887 -0.2397  0.1935
 7239TIP3    H143208   1.613   6.650   1.290 -0.6549 -0.5687 -2.2135
 7239TIP3    H243209   1.759   6.687   1.300 -0.9315 -0.0071  1.0798
 7240TIP3   OH243210   3.014   5.279  16.896  0.5491  0.9184  0.4182
 7240TIP3    H143211   3.090   5.234  16.859 -1.2023 -1.2599 -0.7844
 7240TIP3    H243212   2.970   5.318  16.821 -1.1416 -0.4775  0.6383
 7241TIP3   OH243213   1.618   3.171  16.171 -0.4231 -0.2192 -0.2674
 7241TIP3    H143214   1.606   3.117  16.093  1.8753  0.1386 -0.9317
 7241TIP3    H243215   1.571   3.252  16.152  1.9111  0.7610 -2.3055
 7242TIP3   OH243216   0.699   1.931   1.465 -0.1483  0.2852  0.1363
 7242TIP3    H143217   0.709   2.025   1.454  0.8338  0.2541  0.6376
 7242TIP3    H243218   0.774   1.905   1.519  0.4779 -1.0004 -1.2592
 7243TIP3   OH243219   5.804   1.172  15.370 -0.2839 -0.0270 -0.5480
 7243TIP3    H143220   5.793   1.081  15.341 -0.1873  0.4842 -2.3090
 7243TIP3    H243221   5.721   1.214  15.346  0.0882  0.5979 -0.7414
 7244TIP3   OH243222   0.664   6.146  15.438 -0.1426  0.1513 -0.2677
 7244TIP3    H143223   0.754   6.114  15.431 -0.8652 -1.9073 -1.3228
 7244TIP3    H243224   0.667   6.235  15.404  1.4940  0.1088 -0.3151
 7245TIP3   OH243225   2.231   6.671  12.738 -0.1139 -0.1265 -0.0731
 7245TIP3    H143226   2.223   6.722  12.658  0.3323  0.0375 -0.0143
 7245TIP3    H243227   2.191   6.725  12.806 -1.8565 -0.8999 -0.4387
 7246TIP3   OH243228   0.076   3.799  10.454 -0.4406  0.2475 -0.3577
 7246TIP3    H143229   0.124   3.882  10.454 -1.5738  0.9240 -1.4032
 7246TIP3    H243230  -0.011   3.822  10.422 -0.6827 -1.4026 -0.9454
 7247TIP3   OH243231   2.555   0.746  11.633 -0.3625  0.4940 -0.4289
 7247TIP3    H143232   2.583   0.658  11.606 -1.6139  0.0887 -0.5100
 7247TIP3    H243233   2.577   0.802  11.559 -0.8762 -0.0341 -1.0062
 7248TIP3   OH243234   2.450   6.728  13.152  0.1478 -0.3252 -0.5521
 7248TIP3    H143235   2.521   6.664  13.156  0.6789  0.0727 -2.3934
 7248TIP3    H243236   2.485   6.799  13.097 -1.7090 -0.2011 -1.6656
 7249TIP3   OH243237   5.146   4.996  12.118  0.6829 -0.5412 -0.1407
 7249TIP3    H143238   5.181   4.908  12.133  1.1514 -0.6925 -1.9382
 7249TIP3    H243239   5.070   5.002  12.176  2.5949 -0.8472  2.5973
 7250TIP3   OH243240   3.566   0.537   6.028 -0.2062 -0.2843  0.4753
 7250TIP3    H143241   3.509   0.559   6.102  2.2445 -0.4136  2.5191
 7250TIP3    H243242   3.565   0.616   5.974 -1.2604  0.2084  1.1749
 7251TIP3   OH243243   3.132   3.017   2.254 -0.1032 -0.4237  0.3667
 7251TIP3    H143244   3.092   2.988   2.172  1.5998 -1.4159 -0.1796
 7251TIP3    H243245   3.117   3.111   2.257  0.0241 -0.3308 -1.2332
 7252TIP3   OH243246   3.210   4.670   3.160 -0.1397  0.6645  0.1512
 7252TIP3    H143247   3.243   4.742   3.106 -1.4750  1.0093 -0.2624
 7252TIP3    H243248   3.115   4.679   3.155 -0.3687 -1.5025 -0.4431
 7253TIP3   OH243249   0.329   4.858  16.897  0.2061 -0.0147 -0.7175
 7253TIP3    H143250   0.338   4.764  16.885 -4.8554 -0.5566 -3.0583
 7253TIP3    H243251   0.371   4.896  16.819 -1.3449 -0.8116 -2.0172
 7254TIP3   OH243252   6.647   4.519  12.773 -0.3670 -0.3539 -0.0405
 7254TIP3    H143253   6.688   4.605  12.762 -0.2051 -0.5052 -0.6805
 7254TIP3    H243254   6.689   4.464  12.707 -1.0165 -0.7292 -0.1499
 7255TIP3   OH243255   6.013   3.717   3.123 -0.6449  0.5395 -0.1249
 7255TIP3    H143256   5.956   3.640   3.123 -0.4764  0.4035  0.5273
 7255TIP3    H243257   5.972   3.777   3.061  0.7032 -1.1378 -2.8002
 7256TIP3   OH243258   0.439   6.055  16.121 -0.1344  0.1433  0.4919
 7256TIP3    H143259   0.354   6.028  16.088 -0.9667 -1.5311  3.5727
 7256TIP3    H243260   0.420   6.099  16.204  1.9631  0.6914  0.7568
 7257TIP3   OH243261   6.680   4.496  15.398 -0.0183  0.4346 -0.3489
 7257TIP3    H143262   6.772   4.524  15.393  0.3583 -0.6062  0.5661
 7257TIP3    H243263   6.683   4.402  15.382 -0.6653  0.0125  1.7606
 7258TIP3   OH243264   4.527   0.959   2.108  0.2823 -0.1264  0.1698
 7258TIP3    H143265   4.597   0.908   2.066 -0.1731  0.9006 -1.9915
 7258TIP3    H243266   4.450   0.944   2.052 -0.4984  0.9253  0.9287
 7259TIP3   OH243267   0.466   4.230  15.429  0.5547 -0.0605  0.0660
 7259TIP3    H143268   0.417   4.157  15.390 -0.0901  0.2845  0.2167
 7259TIP3    H243269   0.406   4.267  15.494  1.1081  0.2259  0.4207
 7260TIP3   OH243270   6.149   3.444   0.671 -0.3520  0.6055  0.1224
 7260TIP3    H143271   6.189   3.362   0.643 -0.7521 -0.2759  1.9580
 7260TIP3    H243272   6.204   3.512   0.632  1.6007 -0.5523  0.7067
 7261TIP3   OH243273   5.479   6.326   5.362  0.3692 -0.5908  0.2195
 7261TIP3    H143274   5.425   6.250   5.383  0.5049 -0.2315  2.0569
 7261TIP3    H243275   5.425   6.402   5.385  0.3532 -0.1149 -1.2814
 7262TIP3   OH243276   5.959   2.650  10.573 -0.0192  0.1788 -0.0017
 7262TIP3    H143277   5.889   2.702  10.533  0.2959  0.1952 -0.5382
 7262TIP3    H243278   5.955   2.566  10.526  0.2617  0.1507  0.0240
 7263TIP3   OH243279   4.420   1.877   3.303 -0.1116 -0.7055  0.3866
 7263TIP3    H143280   4.445   1.903   3.392  1.5787 -0.1080 -0.2242
 7263TIP3    H243281   4.494   1.903   3.248 -1.0903 -1.1032 -1.2088
 7264TIP3   OH243282   5.202   5.004   4.248 -0.1476 -0.1284  0.6890
 7264TIP3    H143283   5.242   4.956   4.321  1.5797  0.0843 -0.0526
 7264TIP3    H243284   5.108   4.987   4.255  0.2297 -2.0293  1.5842
 7265TIP3   OH243285   5.171   1.424   1.155 -0.4506 -0.0845  0.2106
 7265TIP3    H143286   5.203   1.379   1.233  1.7173 -0.1871 -0.6882
 7265TIP3    H243287   5.245   1.424   1.094 -1.3944  1.8519 -1.0537
 7266TIP3   OH243288   2.178   3.096  10.947 -0.7531  0.7419  0.6012
 7266TIP3    H143289   2.261   3.143  10.960  1.8691 -3.0602 -0.3819
 7266TIP3    H243290   2.138   3.138  10.871  2.4759  0.3684 -1.5591
 7267TIP3   OH243291   3.183   2.179  11.398 -0.4711  0.1957  0.3459
 7267TIP3    H143292   3.112   2.146  11.343  0.1948  1.6268 -1.4813
 7267TIP3    H243293   3.262   2.136  11.363 -0.1545  0.3140  0.8994
 7268TIP3   OH243294   5.966   1.519  17.092 -0.3287 -0.3493 -0.0738
 7268TIP3    H143295   6.060   1.530  17.080 -0.4002  0.0259 -0.2886
 7268TIP3    H243296   5.928   1.604  17.071 -0.3694  0.8634  4.0472
 7269TIP3   OH243297   3.397   0.641  15.037 -0.2361  0.1181 -0.5281
 7269TIP3    H143298   3.421   0.730  15.011 -1.1247  0.2962 -0.7950
 7269TIP3    H243299   3.328   0.654  15.103  0.9082 -0.3557  0.8027
 7270TIP3   OH243300   1.606   3.883  16.678 -0.3575 -0.4044 -0.2669
 7270TIP3    H143301   1.694   3.871  16.640 -0.3320  0.7830 -0.6260
 7270TIP3    H243302   1.622   3.902  16.770 -0.2391 -0.4331 -0.2822
 7271TIP3   OH243303   5.955   5.766   6.322  0.8316 -0.1726 -0.4917
 7271TIP3    H143304   5.986   5.728   6.240 -0.5297 -0.0036 -1.1061
 7271TIP3    H243305   5.932   5.856   6.299  0.7167 -0.0378  0.1479
 7272TIP3   OH243306   1.997   3.496  15.536  0.9198  0.3975 -0.1618
 7272TIP3    H143307   1.959   3.410  15.520 -1.5380  1.4447 -0.3291
 7272TIP3    H243308   2.018   3.530  15.449 -1.4258  1.3326 -0.4261
 7273TIP3   OH243309   0.549   3.689  13.367  0.3813 -0.1579  0.2030
 7273TIP3    H143310   0.584   3.600  13.359 -1.6056 -1.0298  0.6293
 7273TIP3    H243311   0.468   3.679  13.416  0.1393  1.9255  0.3281
 7274TIP3   OH243312   4.255   3.128  16.107 -0.4630 -0.5493  0.2911
 7274TIP3    H143313   4.292   3.142  16.194  2.5069  1.3763 -1.0777
 7274TIP3    H243314   4.183   3.191  16.101  0.9832  1.2230  0.5693
 7275TIP3   OH243315   6.035   4.557  11.883 -0.2230  0.7775 -0.5895
 7275TIP3    H143316   6.082   4.519  11.809 -0.2723 -1.6056  0.5111
 7275TIP3    H243317   6.091   4.542  11.958 -1.9937 -0.7597  0.5101
 7276TIP3   OH243318   1.770   4.439  12.700 -0.0167 -0.4898  0.2506
 7276TIP3    H143319   1.737   4.503  12.637 -1.0552 -2.2179 -1.0519
 7276TIP3    H243320   1.730   4.465  12.783  0.2249  0.9990 -0.0784
 7277TIP3   OH243321   5.192   1.856   5.603  0.5365  0.2081 -0.4972
 7277TIP3    H143322   5.145   1.841   5.684  2.2436 -1.3629  0.2707
 7277TIP3    H243323   5.264   1.915   5.628  1.0626 -0.2719 -0.8454
 7278TIP3   OH243324   0.119   3.622   4.888  0.1753 -0.1299 -0.1373
 7278TIP3    H143325   0.196   3.670   4.859  0.1352  0.8771  1.3445
 7278TIP3    H243326   0.152   3.560   4.952 -0.2921  0.6744  0.9071
 7279TIP3   OH243327   6.010   2.960   4.059 -0.2467  0.2285 -0.0560
 7279TIP3    H143328   5.998   3.021   4.132 -1.3868  1.6533 -1.3541
 7279TIP3    H243329   6.070   3.005   4.000  1.2873 -1.2479  0.3192
 7280TIP3   OH243330   3.818   6.673   6.144  0.0184 -0.0037 -0.0305
 7280TIP3    H143331   3.827   6.614   6.069  0.4167 -0.8475  0.6765
 7280TIP3    H243332   3.854   6.756   6.113 -2.0553  0.4075 -1.5987
 7281TIP3   OH243333   2.968   2.536   2.424  0.0348  0.0504 -0.1891
 7281TIP3    H143334   2.999   2.557   2.336 -0.6149 -0.5681 -0.5774
 7281TIP3    H243335   2.874   2.552   2.420  0.2412  1.8925  0.9695
 7282TIP3   OH243336   4.913   3.335  12.891  0.4396 -0.0622  0.0273
 7282TIP3    H143337   5.001   3.338  12.929  0.3404  0.3993  0.2228
 7282TIP3    H243338   4.854   3.331  12.966  0.3019 -0.6360 -0.1087
 7283TIP3   OH243339   0.696   0.733   0.606  0.1750  0.0196 -0.1769
 7283TIP3    H143340   0.672   0.812   0.557  1.3068  0.2264 -0.4181
 7283TIP3    H243341   0.790   0.742   0.621 -0.0639 -0.2187  1.7214
 7284TIP3   OH243342   2.555   0.165   3.950 -0.0906  0.0029  0.1773
 7284TIP3    H143343   2.576   0.197   3.862  1.0738  1.1837  0.8440
 7284TIP3    H243344   2.638   0.133   3.985 -0.9271 -2.4398  0.1201
 7285TIP3   OH243345   4.548   5.303  15.828 -0.2144  0.7108 -0.0331
 7285TIP3    H143346   4.549   5.374  15.892 -2.4135  1.0956 -0.3373
 7285TIP3    H243347   4.482   5.243  15.861 -0.4840  0.2956 -1.2955
 7286TIP3   OH243348   6.458   5.559  12.660  0.2336 -0.0697  0.0145
 7286TIP3    H143349   6.433   5.502  12.732  3.8977  1.1092  2.5219
 7286TIP3    H243350   6.437   5.509  12.581 -2.3891 -2.1504  1.8611
 7287TIP3   OH243351   0.085   5.553   1.782  0.9689 -0.7316 -0.2789
 7287TIP3    H143352   0.014   5.509   1.829  0.5386 -1.0078 -1.1633
 7287TIP3    H243353   0.130   5.604   1.850 -0.5702  0.1090  0.1708
 7288TIP3   OH243354   0.698   3.892  15.656 -0.2497 -0.0491 -1.0292
 7288TIP3    H143355   0.680   3.984  15.674  0.7521 -0.0357  0.0305
 7288TIP3    H243356   0.613   3.849  15.664 -0.0965 -0.0333  4.0818
 7289TIP3   OH243357   2.355   5.299  14.664  0.1512 -0.1962 -0.4309
 7289TIP3    H143358   2.316   5.218  14.698 -1.1244  0.2841 -0.7092
 7289TIP3    H243359   2.423   5.269  14.605  0.8986 -1.0544  0.8124
 7290TIP3   OH243360   3.690   2.368  13.998  0.4169 -0.0048 -0.7155
 7290TIP3    H143361   3.627   2.301  14.025 -0.8545  2.3389  2.9503
 7290TIP3    H243362   3.638   2.448  13.988  2.5481  1.9669  2.1427
 7291TIP3   OH243363   6.459   6.689   3.603  0.1487 -0.4183  0.9320
 7291TIP3    H143364   6.504   6.761   3.559 -1.3957 -0.5913 -1.0554
 7291TIP3    H243365   6.416   6.729   3.678  0.5591  0.4404  0.7128
 7292TIP3   OH243366   5.281   1.085   6.582 -0.0934  0.7718 -0.2777
 7292TIP3    H143367   5.239   1.075   6.667 -0.1767 -0.4785 -0.4500
 7292TIP3    H243368   5.371   1.057   6.596  0.0361  1.0695 -0.4899
 7293TIP3   OH243369   5.654   4.435   4.851  0.1838  0.0014  0.4455
 7293TIP3    H143370   5.682   4.357   4.898 -1.0861 -0.8866 -0.1965
 7293TIP3    H243371   5.693   4.427   4.764 -1.0599 -0.6783 -0.0860
 7294TIP3   OH243372   1.722   1.281   2.445  0.1820 -0.0463  0.2959
 7294TIP3    H143373   1.778   1.277   2.522  1.9113 -1.8082 -0.9498
 7294TIP3    H243374   1.782   1.272   2.371 -1.3750  1.8213 -1.3232
 7295TIP3   OH243375   1.912   2.259  11.823 -0.0149 -0.3721  0.2655
 7295TIP3    H143376   1.850   2.306  11.879  1.0362  0.1828  0.9835
 7295TIP3    H243377   1.908   2.168  11.853 -1.0372 -0.5156 -0.2230
 7296TIP3   OH243378   1.981   1.320  13.523 -0.0790  0.6311  0.0246
 7296TIP3    H143379   1.955   1.257  13.590  1.2286 -0.1611 -0.1739
 7296TIP3    H243380   1.989   1.403  13.570  1.7027 -0.0856  1.0846
 7297TIP3   OH243381   2.989   0.734  12.996  0.6307  0.3370  0.5532
 7297TIP3    H143382   3.003   0.709  12.905 -1.7949  0.0885  0.2003
 7297TIP3    H243383   2.900   0.769  12.998  0.6160  0.2808  2.8566
 7298TIP3   OH243384   5.885   6.050   3.197 -0.4289 -0.1961 -0.0591
 7298TIP3    H143385   5.805   6.070   3.247 -1.4414 -2.2312 -0.7362
 7298TIP3    H243386   5.954   6.097   3.244 -2.0614  2.1585  0.1895
 7299TIP3   OH243387   1.997   1.000  16.641 -0.3956 -0.3658 -0.3776
 7299TIP3    H143388   1.930   1.023  16.706 -1.7290 -0.4230 -1.6657
 7299TIP3    H243389   1.974   0.912  16.613 -0.2596 -0.0977 -1.3852
 7300TIP3   OH243390   4.113   4.170   4.801 -0.6001 -0.4737 -0.2111
 7300TIP3    H143391   4.048   4.100   4.809 -0.8004 -0.3713 -0.8538
 7300TIP3    H243392   4.094   4.210   4.715 -0.2399  0.1120 -0.0216
 7301TIP3   OH243393   3.416   1.800   3.953 -0.4759  0.5813  0.1312
 7301TIP3    H143394   3.406   1.771   4.044 -0.6257 -0.5126 -0.2206
 7301TIP3    H243395   3.509   1.791   3.935 -0.1700  2.3242  0.6502
 7302TIP3   OH243396   4.410   1.848  14.740  0.1138 -0.3270 -0.1618
 7302TIP3    H143397   4.442   1.759  14.754 -1.7378 -0.9530  0.3361
 7302TIP3    H243398   4.368   1.845  14.653 -0.3243 -0.0673  0.0358
 7303TIP3   OH243399   2.797   2.039  15.606  0.5345 -0.5592 -0.0707
 7303TIP3    H143400   2.759   2.123  15.632  2.7582  0.4770  0.0626
 7303TIP3    H243401   2.771   1.979  15.675 -3.2456 -0.7185 -1.4125
 7304TIP3   OH243402   0.624   5.993   6.330  0.5627  0.3445  0.3140
 7304TIP3    H143403   0.555   5.997   6.263 -0.2152  1.8012  1.1572
 7304TIP3    H243404   0.662   6.080   6.331  2.0549 -0.2813  0.2821
 7305TIP3   OH243405   0.069   3.691  15.201 -0.4852 -0.1316  0.0290
 7305TIP3    H143406   0.027   3.773  15.174 -1.7564  0.0316  2.3033
 7305TIP3    H243407   0.020   3.623  15.154 -0.3725  0.3061 -0.7436
 7306TIP3   OH243408   1.718   3.248   0.085 -0.1159 -0.2894 -0.4027
 7306TIP3    H143409   1.773   3.255   0.163  1.3817  0.5260 -1.4866
 7306TIP3    H243410   1.677   3.161   0.092 -1.7736  0.6105  2.3525
 7307TIP3   OH243411   4.325   5.604  11.841 -0.4263  0.1702 -0.2356
 7307TIP3    H143412   4.398   5.556  11.879 -0.7154  0.9004  1.3423
 7307TIP3    H243413   4.306   5.559  11.759  0.8314 -0.9258  0.0479
 7308TIP3   OH243414   5.095   0.502  13.069  0.4967  0.2531  0.2983
 7308TIP3    H143415   5.184   0.484  13.040  1.2719  0.9632  2.0996
 7308TIP3    H243416   5.073   0.429  13.127 -0.1384  0.0497 -0.1810
 7309TIP3   OH243417   6.776   2.264  17.108 -0.3239  0.5880 -0.1784
 7309TIP3    H143418   6.847   2.328  17.107 -0.2273  0.4781 -1.0551
 7309TIP3    H243419   6.736   2.274  17.195  0.6597  0.7526  0.2741
 7310TIP3   OH243420   1.455   2.340  15.575  0.1902  0.0081  0.1188
 7310TIP3    H143421   1.480   2.376  15.490  1.5582 -0.4006  0.3238
 7310TIP3    H243422   1.395   2.405  15.612  0.9060  1.0103 -0.4409
 7311TIP3   OH243423   0.122   1.188  14.736 -0.1581  0.1559 -0.1849
 7311TIP3    H143424   0.179   1.158  14.665 -2.3087 -2.2984 -1.0082
 7311TIP3    H243425   0.088   1.272  14.706  3.2970  2.0213  0.5956
 7312TIP3   OH243426   4.469   4.768   2.391  0.4859 -0.1890 -0.3306
 7312TIP3    H143427   4.492   4.796   2.302  0.2089  0.3979 -0.2195
 7312TIP3    H243428   4.415   4.839   2.425  1.6288  0.2042  0.7612
 7313TIP3   OH243429   5.851   1.237   0.281  1.0052  0.1604 -0.7208
 7313TIP3    H143430   5.801   1.170   0.327 -0.9837  0.6312 -2.0807
 7313TIP3    H243431   5.921   1.189   0.236  1.5932 -0.5569  0.8924
 7314TIP3   OH243432   0.387   1.967   4.863 -0.5325  0.5446  0.2405
 7314TIP3    H143433   0.461   1.997   4.916  1.8848 -1.1594 -1.9264
 7314TIP3    H243434   0.370   1.878   4.895 -0.6714  0.3928 -0.2541
 7315TIP3   OH243435   1.019   6.350   1.837 -0.4918  0.3682 -0.0706
 7315TIP3    H143436   1.087   6.324   1.900 -0.6703 -0.3589 -0.1704
 7315TIP3    H243437   0.945   6.292   1.857 -0.3212 -0.3485 -1.3831
 7316TIP3   OH243438   3.604   4.458  10.878 -0.2389 -0.1564 -0.6184
 7316TIP3    H143439   3.537   4.434  10.942  0.1994 -0.8523 -0.4182
 7316TIP3    H243440   3.598   4.391  10.810 -1.5612  1.2546 -1.9926
 7317TIP3   OH243441   4.202   0.351   1.734 -0.3261  0.2919  0.0185
 7317TIP3    H143442   4.276   0.290   1.732  0.2574  1.0105 -1.5146
 7317TIP3    H243443   4.135   0.310   1.679 -0.4501  0.3989  0.0877
 7318TIP3   OH243444   4.651   2.496  11.474 -0.0082 -0.3998 -0.5841
 7318TIP3    H143445   4.616   2.581  11.502  1.0234 -0.2208  0.1908
 7318TIP3    H243446   4.697   2.515  11.392  0.6060 -0.1204 -0.1778
 7319TIP3   OH243447   3.282   3.248  11.677 -0.2647 -0.3212 -0.0717
 7319TIP3    H143448   3.215   3.245  11.745  0.4035  1.5163  0.7444
 7319TIP3    H243449   3.242   3.206  11.601 -2.7443  1.5615  0.0704
 7320TIP3   OH243450   1.789   6.177  11.562 -0.4984 -0.1283 -0.8431
 7320TIP3    H143451   1.787   6.082  11.574  2.0894 -0.0921  0.4791
 7320TIP3    H243452   1.698   6.200  11.543 -1.6652 -2.5886  1.1151
 7321TIP3   OH243453   1.733   4.261   2.542  0.1873 -0.4632  0.0052
 7321TIP3    H143454   1.776   4.182   2.510  0.3439 -0.8774  1.1783
 7321TIP3    H243455   1.640   4.249   2.521  0.3826 -0.3689 -0.9470
 7322TIP3   OH243456   6.445   4.547   1.333  0.0651 -0.0495  0.1706
 7322TIP3    H143457   6.498   4.522   1.257  0.6173  1.7087 -0.0585
 7322TIP3    H243458   6.447   4.469   1.389  1.2660 -0.7073 -0.7271
 7323TIP3   OH243459   4.892   6.124  16.362  0.2465 -0.2706  0.1256
 7323TIP3    H143460   4.840   6.050  16.394 -0.0368  1.1711  3.4092
 7323TIP3    H243461   4.981   6.091  16.359 -0.0159 -1.0474  0.5744
 7324TIP3   OH243462   2.815   2.952   2.287 -0.0365  0.0233  0.0477
 7324TIP3    H143463   2.727   2.986   2.302 -1.0513 -1.8185 -1.3012
 7324TIP3    H243464   2.849   2.936   2.375 -0.1211  2.7716  0.6911
 7325TIP3   OH243465   4.369   1.868  16.635  0.0899 -0.4673  0.0934
 7325TIP3    H143466   4.411   1.942  16.591 -1.4840 -0.7455 -2.0334
 7325TIP3    H243467   4.284   1.901  16.663 -0.1058 -1.1123  0.2810
 7326TIP3   OH243468   3.725   3.258   3.246  0.3925 -0.6836  0.6596
 7326TIP3    H143469   3.666   3.185   3.229 -1.4543  0.8189  0.2713
 7326TIP3    H243470   3.718   3.274   3.340 -1.5177  0.7941  0.3212
 7327TIP3   OH243471   4.762   5.100  13.757 -0.5982 -0.5433  0.0425
 7327TIP3    H143472   4.773   5.116  13.663 -2.4864 -0.2636 -0.1706
 7327TIP3    H243473   4.809   5.018  13.773 -0.4151 -0.6971 -1.1841
 7328TIP3   OH243474   2.599   6.139  16.439 -0.1742 -0.2740 -0.1063
 7328TIP3    H143475   2.541   6.095  16.500 -1.5359  0.5416 -0.7717
 7328TIP3    H243476   2.681   6.090  16.444 -1.0009 -1.6220  0.6453
 7329TIP3   OH243477   2.313   4.308   3.773  0.0595  0.2071  0.3079
 7329TIP3    H143478   2.269   4.341   3.852 -2.1927 -0.5100 -0.5968
 7329TIP3    H243479   2.296   4.374   3.706  0.4361 -0.0451 -0.0420
 7330TIP3   OH243480   1.246   3.991   5.643  0.3075  0.5018  1.0231
 7330TIP3    H143481   1.274   4.008   5.733  0.3182  0.5961  1.0017
 7330TIP3    H243482   1.234   4.078   5.605 -1.0835  0.4682  1.3557
 7331TIP3   OH243483   5.905   2.525  13.246 -0.5527  0.1357  0.0914
 7331TIP3    H143484   5.972   2.536  13.314  0.2528  2.6673 -0.9962
 7331TIP3    H243485   5.849   2.455  13.279  2.0492 -1.4578  1.5011
 7332TIP3   OH243486   5.113   3.418  11.591  0.4641  0.2833 -0.3303
 7332TIP3    H143487   5.082   3.329  11.609 -0.8612  0.4996 -1.3729
 7332TIP3    H243488   5.059   3.473  11.648  0.5832  0.4896 -0.4199
 7333TIP3   OH243489   4.141   4.697  12.113  0.2193 -0.3263 -0.1420
 7333TIP3    H143490   4.057   4.657  12.137 -0.3368 -0.1466 -1.7135
 7333TIP3    H243491   4.206   4.632  12.140 -0.4595 -0.7927  0.4259
 7334TIP3   OH243492   5.346   4.465  12.096 -0.2276  0.1708 -0.6049
 7334TIP3    H143493   5.432   4.494  12.067  0.7063 -1.5811  0.2524
 7334TIP3    H243494   5.309   4.420  12.020  0.4117 -0.6734 -0.4315
 7335TIP3   OH243495   2.258   2.246   6.191 -0.3698  0.4199 -0.4524
 7335TIP3    H143496   2.300   2.185   6.251  0.2190  0.9130 -0.3538
 7335TIP3    H243497   2.165   2.224   6.196 -0.0152 -1.7049 -1.8157
 7336TIP3   OH243498   4.496   2.834  14.302  0.0578  0.0341 -0.2091
 7336TIP3    H143499   4.468   2.862  14.215 -0.7388  1.0991  0.3687
 7336TIP3    H243500   4.509   2.916  14.351 -1.3951 -0.5450  1.2439
 7337TIP3   OH243501   2.468   1.003   2.228 -0.2559 -0.2428 -0.2194
 7337TIP3    H143502   2.501   0.945   2.160 -0.1676 -0.6920  0.1967
 7337TIP3    H243503   2.387   0.961   2.258 -1.2253  0.8373 -1.2190
 7338TIP3   OH243504   5.535   3.445  13.459  0.0638 -0.5792 -0.7538
 7338TIP3    H143505   5.459   3.496  13.487  2.1986  2.3304  0.2597
 7338TIP3    H243506   5.545   3.466  13.366  0.5582  0.3665 -0.4931
 7339TIP3   OH243507   5.412   4.838  11.113  0.5265 -0.3305 -0.0696
 7339TIP3    H143508   5.392   4.809  11.024 -0.5827  0.2808 -0.0264
 7339TIP3    H243509   5.472   4.912  11.100 -0.8808  0.8020 -0.4040
 7340TIP3   OH243510   5.656   0.399   0.827  0.0218  0.0589 -0.2083
 7340TIP3    H143511   5.628   0.385   0.736 -0.1427 -1.3648  0.0298
 7340TIP3    H243512   5.655   0.494   0.838 -0.9837  0.2202 -1.3774
 7341TIP3   OH243513   3.849   2.341   0.638  0.1264 -0.1438  0.3478
 7341TIP3    H143514   3.900   2.269   0.601 -1.0075  0.0976 -1.8501
 7341TIP3    H243515   3.760   2.326   0.608 -0.3021  1.7246  0.5246
 7342TIP3   OH243516   4.769   4.483  11.865 -0.5289  0.2115 -0.5271
 7342TIP3    H143517   4.773   4.405  11.921 -1.0504  1.2200  0.9626
 7342TIP3    H243518   4.712   4.457  11.793 -0.6569 -0.8020 -0.0827
 7343TIP3   OH243519   6.260   4.213  14.580 -0.3120  0.6473 -0.0251
 7343TIP3    H143520   6.310   4.220  14.499  0.1859  1.3168  0.3273
 7343TIP3    H243521   6.174   4.181  14.553 -0.0460  0.5579 -0.7757
 7344TIP3   OH243522   3.189   6.372  13.158  0.1451  0.0286 -0.4694
 7344TIP3    H143523   3.257   6.427  13.120  2.1431 -0.5195  2.0370
 7344TIP3    H243524   3.233   6.289  13.179 -1.0910 -0.1793  1.6846
 7345TIP3   OH243525   1.164   2.263  15.677  0.6552  0.4918  0.0769
 7345TIP3    H143526   1.256   2.287  15.677  0.7623  0.0985  0.4398
 7345TIP3    H243527   1.150   2.220  15.762  0.3408 -0.2040 -0.3165
 7346TIP3   OH243528   6.047   2.429   3.870 -0.2225 -0.5987  0.4749
 7346TIP3    H143529   6.006   2.351   3.832 -1.2169  0.8489 -1.5898
 7346TIP3    H243530   6.136   2.428   3.836 -0.4414 -0.4933 -0.1153
 7347TIP3   OH243531   6.243   4.615   5.476  0.1923  0.2472 -0.8164
 7347TIP3    H143532   6.274   4.699   5.443 -0.6299  0.7880 -0.2543
 7347TIP3    H243533   6.235   4.629   5.571 -1.0595 -0.0907 -0.8631
 7348TIP3   OH243534   1.174   2.395   4.254  0.0189  0.0581  0.0822
 7348TIP3    H143535   1.099   2.375   4.311 -0.0806 -0.3595 -0.1851
 7348TIP3    H243536   1.193   2.487   4.271  2.0322 -0.7746  3.1863
 7349TIP3   OH243537   6.110   6.392  16.557  0.0268  0.0730 -0.2521
 7349TIP3    H143538   6.038   6.331  16.540 -0.6321  0.9797 -0.7841
 7349TIP3    H243539   6.131   6.379  16.649 -0.3665 -0.6617 -0.2534
 7350TIP3   OH243540   0.870   0.600  14.437 -0.0638 -0.5372 -0.0405
 7350TIP3    H143541   0.896   0.518  14.481 -0.7382 -0.7415 -0.0063
 7350TIP3    H243542   0.943   0.620  14.379 -0.4708 -1.9316 -1.1024
 7351TIP3   OH243543   2.400   3.949  13.434 -0.2264 -0.0132 -0.1707
 7351TIP3    H143544   2.365   3.887  13.371  2.3912 -1.3411 -0.4603
 7351TIP3    H243545   2.400   4.033  13.389 -0.2910 -0.5521 -1.1888
 7352TIP3   OH243546   2.910   2.301   3.277  0.4435 -0.2125 -1.2561
 7352TIP3    H143547   2.929   2.386   3.237  0.0943  0.0011 -0.9721
 7352TIP3    H243548   2.824   2.312   3.318  1.0018 -0.2727 -0.0183
 7353TIP3   OH243549   3.102   6.563  13.341  0.6856  0.6395 -0.6299
 7353TIP3    H143550   3.120   6.515  13.260 -1.8476  0.1154 -0.9733
 7353TIP3    H243551   3.050   6.638  13.313 -1.9455 -0.5835  0.5810
 7354TIP3   OH243552   6.320   0.565  11.257  0.7669  0.1202 -0.3614
 7354TIP3    H143553   6.391   0.519  11.213  0.4626  0.7983 -1.6045
 7354TIP3    H243554   6.259   0.495  11.283  1.6257 -0.4131  0.2703
 7355TIP3   OH243555   2.994   5.484   4.511 -0.1693  0.5829  0.2318
 7355TIP3    H143556   3.023   5.514   4.426 -0.1980 -2.6108 -1.0295
 7355TIP3    H243557   3.067   5.433   4.546 -1.5074 -1.4267  0.2831
 7356TIP3   OH243558   6.753   0.867  12.337 -0.7752 -0.4490 -0.1202
 7356TIP3    H143559   6.774   0.873  12.243 -2.6011 -1.1109 -0.6251
 7356TIP3    H243560   6.819   0.807  12.372  1.9377  2.2159 -0.2392
 7357TIP3   OH243561   0.449   3.777  14.746 -0.1434  0.6912  0.1109
 7357TIP3    H143562   0.435   3.752  14.837  0.7810  0.1100  0.1032
 7357TIP3    H243563   0.525   3.835  14.749 -0.3374  0.9648 -0.2494
 7358TIP3   OH243564   6.152   5.081   0.288  0.1328  0.2859 -0.1425
 7358TIP3    H143565   6.143   5.115   0.377  2.0049 -0.2913  0.3020
 7358TIP3    H243566   6.152   5.159   0.233 -0.5961  0.6736  0.3867
 7359TIP3   OH243567   5.198   4.469  15.211 -0.3530  0.0763 -0.1265
 7359TIP3    H143568   5.271   4.529  15.195 -0.0015 -0.4070 -0.3750
 7359TIP3    H243569   5.121   4.525  15.218  0.0837  0.6195  0.4199
 7360TIP3   OH243570   5.151   1.001   0.979 -0.1808 -0.5749 -0.4263
 7360TIP3    H143571   5.142   1.022   1.072 -1.5654 -2.3609 -0.0862
 7360TIP3    H243572   5.158   1.086   0.935  1.6197  0.2834  1.3611
 7361TIP3   OH243573   1.432   2.921   1.347 -1.0498 -0.3843 -0.0280
 7361TIP3    H143574   1.460   2.996   1.295  1.5636 -1.4216 -0.2605
 7361TIP3    H243575   1.338   2.936   1.362 -0.8523  2.3552 -0.9361
 7362TIP3   OH243576   4.686   0.390  16.270 -0.1346 -0.7480 -0.1227
 7362TIP3    H143577   4.665   0.467  16.324 -0.6487 -1.2730  0.4435
 7362TIP3    H243578   4.781   0.385  16.272 -0.0593  0.1921 -0.6252
 7363TIP3   OH243579   1.638   0.466   3.496  0.3002 -0.1739 -0.3476
 7363TIP3    H143580   1.655   0.489   3.405 -3.3816  1.3128 -0.8506
 7363TIP3    H243581   1.604   0.376   3.493  1.3859 -0.5951 -0.2468
 7364TIP3   OH243582   0.570   3.005  13.322  0.3702 -1.4039 -0.6172
 7364TIP3    H143583   0.590   3.096  13.303 -0.5484 -1.2859 -1.0772
 7364TIP3    H243584   0.488   3.008  13.371  0.8936 -1.9262  0.3293
 7365TIP3   OH243585   3.089   0.521   0.524  0.0598 -0.1282 -0.0552
 7365TIP3    H143586   3.003   0.481   0.531  0.3399 -0.5424  1.3212
 7365TIP3    H243587   3.147   0.463   0.573  1.0727  0.3215 -0.6700
 7366TIP3   OH243588   1.059   6.216  15.040  0.6094 -0.2457  0.2903
 7366TIP3    H143589   1.130   6.174  15.089  1.5911  1.1857  0.1745
 7366TIP3    H243590   1.104   6.260  14.968 -0.2681  1.4771  0.7466
 7367TIP3   OH243591   1.618   5.767   5.651  0.4259 -0.2301 -0.2007
 7367TIP3    H143592   1.622   5.672   5.665 -0.9015 -0.4992 -1.4449
 7367TIP3    H243593   1.524   5.788   5.655  0.7264  1.0998  0.4251
 7368TIP3   OH243594   5.792   3.688  11.688  0.6759 -0.5096  0.3961
 7368TIP3    H143595   5.810   3.687  11.594 -1.0761 -0.0092  0.0314
 7368TIP3    H243596   5.793   3.781  11.711 -0.5955 -0.5161  0.5124
 7369TIP3   OH243597   0.738   6.235  13.965 -0.6029 -0.3239 -0.0342
 7369TIP3    H143598   0.819   6.191  13.994 -0.0611  0.2207 -0.6889
 7369TIP3    H243599   0.668   6.189  14.012  0.3085  1.7988  3.9116
 7370TIP3   OH243600   3.896   6.496   1.516  0.0722 -0.3582  0.7080
 7370TIP3    H143601   3.927   6.479   1.605  1.1562 -1.5635  0.1307
 7370TIP3    H243602   3.837   6.423   1.497  0.8391 -0.8166  0.0044
 7371TIP3   OH243603   1.027   2.072   0.360 -0.1686  0.0861 -0.3438
 7371TIP3    H143604   1.109   2.101   0.321 -1.2839 -0.1836 -3.1108
 7371TIP3    H243605   0.960   2.122   0.315 -1.5491  1.0087  2.5286
 7372TIP3   OH243606   5.116   6.133  15.189 -0.3787 -0.0252 -0.0470
 7372TIP3    H143607   5.042   6.092  15.235  0.3873  0.5316  1.7861
 7372TIP3    H243608   5.087   6.222  15.172 -1.3600 -0.7043 -2.4276
 7373TIP3   OH243609   6.059   5.017   1.093 -0.3360 -0.0668  0.5451
 7373TIP3    H143610   6.085   4.987   1.180  0.2929 -0.5611  0.1951
 7373TIP3    H243611   5.969   4.985   1.082 -0.3510 -0.1593  0.9311
 7374TIP3   OH243612   4.862   0.845   3.588 -0.1470 -0.5234  0.1507
 7374TIP3    H143613   4.874   0.892   3.670 -1.3977  0.7936 -0.3753
 7374TIP3    H243614   4.865   0.753   3.612  0.7505 -0.1809  1.4695
 7375TIP3   OH243615   1.610   5.812   3.643  0.4744  0.0128  0.0336
 7375TIP3    H143616   1.601   5.893   3.593 -0.6737  0.1750  0.4662
 7375TIP3    H243617   1.623   5.744   3.577 -0.5066  0.2960 -0.4792
 7376TIP3   OH243618   2.632   5.287  15.921 -0.1673 -0.4993  0.9278
 7376TIP3    H143619   2.661   5.264  16.009 -0.8877 -0.2164  1.2377
 7376TIP3    H243620   2.624   5.202  15.876 -0.2225 -0.6739  1.2637
 7377TIP3   OH243621   4.143   2.504  11.615  0.2574 -0.3422 -0.5667
 7377TIP3    H143622   4.081   2.525  11.545 -0.8709 -2.0267 -0.1195
 7377TIP3    H243623   4.215   2.458  11.570 -0.1643 -0.8698 -0.7055
 7378TIP3   OH243624   2.909   4.128   5.476  0.6582 -0.1386 -0.1779
 7378TIP3    H143625   2.846   4.128   5.548 -0.0898  0.6148 -0.8053
 7378TIP3    H243626   2.993   4.149   5.518 -0.1983  3.1685  0.1943
 7379TIP3   OH243627   3.324   3.901   3.472 -0.1440 -0.2697 -0.0850
 7379TIP3    H143628   3.238   3.860   3.459 -0.0301 -0.3017 -0.7269
 7379TIP3    H243629   3.375   3.877   3.395  0.2769  0.1851  0.0458
 7380TIP3   OH243630   2.779   3.533  15.239 -0.4934  0.5361  0.4891
 7380TIP3    H143631   2.809   3.517  15.329 -2.4914  0.5954  1.2133
 7380TIP3    H243632   2.850   3.584  15.199  1.4463 -1.3516  1.2897
 7381TIP3   OH243633   3.067   2.431   0.203  0.1612  1.0848 -0.5162
 7381TIP3    H143634   2.973   2.414   0.212  0.2270  0.4553 -0.9336
 7381TIP3    H243635   3.102   2.416   0.291 -0.2018  1.8671 -0.2295
 7382TIP3   OH243636   0.947   3.488  13.752  0.8908 -0.3108 -0.1586
 7382TIP3    H143637   0.991   3.544  13.688  0.1650  1.0678  0.5188
 7382TIP3    H243638   0.973   3.399  13.727  4.3605  0.3907  0.4136
 7383TIP3   OH243639   1.585   0.884   3.482 -0.6142 -0.1172  0.1092
 7383TIP3    H143640   1.578   0.844   3.396  0.4175  0.5187 -0.2896
 7383TIP3    H243641   1.497   0.918   3.500 -0.2550  2.1816 -1.9453
 7384TIP3   OH243642   6.418   6.687   1.399 -0.5949 -0.1137  0.2477
 7384TIP3    H143643   6.467   6.618   1.444  1.0078  0.2049 -0.9422
 7384TIP3    H243644   6.485   6.747   1.365 -1.8516  0.8934 -0.5677
 7385TIP3   OH243645   2.053   4.379   3.053  0.4730  0.1248  0.0442
 7385TIP3    H143646   2.126   4.434   3.023  1.4561 -0.4040  1.3875
 7385TIP3    H243647   2.077   4.290   3.025 -1.5337  0.3713 -2.9325
 7386TIP3   OH243648   1.141   4.700  15.410 -0.2259  0.2875  0.1163
 7386TIP3    H143649   1.203   4.728  15.477  0.9877  0.8116 -1.1765
 7386TIP3    H243650   1.148   4.605  15.410  2.8920  0.3800 -2.0048
 7387TIP3   OH243651   0.099   0.769  14.191 -0.2390 -0.1666 -0.2181
 7387TIP3    H143652   0.099   0.737  14.281  1.8318  1.5427  0.4763
 7387TIP3    H243653   0.141   0.699  14.140 -0.5910 -0.7589  0.2969
 7388TIP3   OH243654   1.397   6.229   2.946 -0.1465 -0.0681 -0.0276
 7388TIP3    H143655   1.425   6.304   2.999  0.6808 -0.7462  0.5452
 7388TIP3    H243656   1.323   6.261   2.895 -0.4681  0.8384  0.9664
 7389TIP3   OH243657   2.136   0.939  10.994  0.2788  0.1309 -0.0326
 7389TIP3    H143658   2.083   1.018  10.996 -0.3593 -0.2621 -0.9986
 7389TIP3    H243659   2.193   0.950  10.919 -0.7315 -0.8848 -0.9886
 7390TIP3   OH243660   5.642   2.275   2.588 -0.0843  0.8570  0.1159
 7390TIP3    H143661   5.555   2.316   2.582 -0.7525 -0.4467  0.3844
 7390TIP3    H243662   5.630   2.189   2.547  0.7940  0.2239  1.1481
 7391TIP3   OH243663   1.233   3.241   0.744  0.3503 -0.6967  0.4497
 7391TIP3    H143664   1.189   3.171   0.793  0.4479 -0.3493  1.0466
 7391TIP3    H243665   1.315   3.255   0.790  0.7751 -0.8541 -0.2454
 7392TIP3   OH243666   3.472   4.223  16.204 -0.2930 -0.0804 -0.3634
 7392TIP3    H143667   3.458   4.129  16.216 -0.9312 -0.0209 -0.6208
 7392TIP3    H243668   3.475   4.258  16.293 -2.8745  0.0521 -0.2564
 7393TIP3   OH243669   5.311   5.157   0.536  0.1731  0.6532 -0.4657
 7393TIP3    H143670   5.357   5.208   0.602 -0.9652  0.6978  0.3263
 7393TIP3    H243671   5.375   5.092   0.507  0.4167 -0.0243  1.4166
 7394TIP3   OH243672   3.313   1.947  10.448 -0.4001  0.4263  0.3327
 7394TIP3    H143673   3.281   2.037  10.455 -0.4625  0.5555 -1.3538
 7394TIP3    H243674   3.401   1.951  10.487  0.2745  1.6272 -1.1816
 7395TIP3   OH243675   3.963   2.777  15.020 -0.0522 -0.1747 -0.6044
 7395TIP3    H143676   4.005   2.693  15.005  0.6709 -0.0236  0.4937
 7395TIP3    H243677   4.032   2.833  15.055 -1.0305  0.2154  0.8200
 7396TIP3   OH243678   1.492   4.312   5.003  0.7985 -0.3247  0.4074
 7396TIP3    H143679   1.401   4.324   5.033  1.0450 -0.8112  1.3949
 7396TIP3    H243680   1.542   4.372   5.058  0.7352  2.6892 -2.5229
 7397TIP3   OH243681   4.194   1.947  15.564  0.2302 -0.5031  0.3763
 7397TIP3    H143682   4.128   1.904  15.510 -1.0827  0.9593  0.7062
 7397TIP3    H243683   4.212   1.885  15.634  0.3969 -1.5680 -0.5906
 7398TIP3   OH243684   1.303   5.166   0.888  0.0984  0.0176  0.0842
 7398TIP3    H143685   1.308   5.177   0.983 -0.4852 -1.0942  0.2612
 7398TIP3    H243686   1.385   5.121   0.865  0.8373  1.4143 -0.1437
 7399TIP3   OH243687   3.582   3.425   2.656 -0.2506  0.2705 -0.9419
 7399TIP3    H143688   3.514   3.471   2.607 -0.8172  2.4392  1.6629
 7399TIP3    H243689   3.560   3.440   2.748  1.9682 -1.7469  0.0260
 7400TIP3   OH243690   1.700   1.966  15.487 -0.3476 -0.4915 -0.1674
 7400TIP3    H143691   1.635   1.907  15.448 -2.4722  1.0746  0.7518
 7400TIP3    H243692   1.723   2.026  15.417 -2.0723  0.6221  0.1368
 7401TIP3   OH243693   0.859   2.683   4.095  0.5063 -0.3861  0.2046
 7401TIP3    H143694   0.812   2.758   4.059 -1.3599 -1.9503 -0.8369
 7401TIP3    H243695   0.797   2.643   4.156  1.5603 -0.9554  0.9356
 7402TIP3   OH243696   5.327   1.794   2.323 -0.4548 -0.0118  0.2732
 7402TIP3    H143697   5.290   1.855   2.259 -1.1312 -1.8544 -1.1790
 7402TIP3    H243698   5.395   1.845   2.368 -1.6918  2.1088 -0.1066
 7403TIP3   OH243699   4.641   4.445   2.752  0.1298 -0.8060  0.6157
 7403TIP3    H143700   4.577   4.374   2.758  1.4701 -1.9748  1.8620
 7403TIP3    H243701   4.595   4.515   2.707 -1.8641 -1.7874  1.0191
 7404TIP3   OH243702   1.557   6.189  13.821  0.3722 -0.5211 -0.0515
 7404TIP3    H143703   1.625   6.192  13.888  0.9466 -0.5516 -0.6341
 7404TIP3    H243704   1.487   6.244  13.857  1.7007  1.6207 -0.5267
 7405TIP3   OH243705   4.532   1.162  13.866 -0.7252 -0.0760 -0.2176
 7405TIP3    H143706   4.512   1.224  13.936 -2.3526  0.4929 -1.1273
 7405TIP3    H243707   4.597   1.206  13.812  1.6906 -1.1110  1.6596
 7406TIP3   OH243708   2.209   1.809  13.696 -0.1786  0.4701  0.7778
 7406TIP3    H143709   2.303   1.822  13.684  0.0401 -1.5811 -0.2770
 7406TIP3    H243710   2.201   1.774  13.785  0.1828 -0.1991  0.5566
 7407TIP3   OH243711   4.953   2.041   4.201 -0.0498 -0.0901  0.1402
 7407TIP3    H143712   5.004   2.022   4.122 -1.7933  0.0842 -1.0769
 7407TIP3    H243713   4.965   2.135   4.215  0.0116 -0.0622 -0.0944
 7408TIP3   OH243714   4.768   5.443  13.313 -0.5882 -0.4125 -0.7638
 7408TIP3    H143715   4.742   5.534  13.299  0.0987  0.0917  0.9780
 7408TIP3    H243716   4.826   5.423  13.240 -1.4402  0.2544 -1.6391
 7409TIP3   OH243717   6.117   1.238   3.900 -0.0750 -0.1228  0.4092
 7409TIP3    H143718   6.026   1.213   3.888  0.1205 -1.0446  0.7447
 7409TIP3    H243719   6.133   1.303   3.832 -0.3169 -1.7169 -1.2793
 7410TIP3   OH243720   1.381   3.007   0.176 -0.2847 -0.3836 -0.5595
 7410TIP3    H143721   1.397   3.006   0.271  1.8471  1.4226 -0.8267
 7410TIP3    H243722   1.445   2.945   0.141  0.9919  1.1164 -1.0035
 7411TIP3   OH243723   2.139   4.618  13.120 -0.6969  0.7998  0.5244
 7411TIP3    H143724   2.064   4.670  13.095 -0.5510 -0.5511 -3.3268
 7411TIP3    H243725   2.215   4.674  13.103 -0.6839  0.5824 -0.1681
 7412TIP3   OH243726   3.313   5.939   5.773 -0.0121 -0.2788  0.1992
 7412TIP3    H143727   3.249   5.999   5.735  1.3301  0.4852 -0.9543
 7412TIP3    H243728   3.370   5.994   5.826 -0.0664 -0.8923  0.9197
 7413TIP3   OH243729   2.852   2.847  17.036 -0.0316  0.0807 -0.3573
 7413TIP3    H143730   2.886   2.760  17.018  2.6336  1.0557 -0.5192
 7413TIP3    H243731   2.838   2.886  16.950 -2.1149 -0.4387 -0.3026
 7414TIP3   OH243732   5.505   5.063   2.770  0.5458  0.5420 -0.0203
 7414TIP3    H143733   5.569   5.079   2.701 -0.7328 -1.0609 -1.7047
 7414TIP3    H243734   5.544   4.994   2.823  1.1939  1.2182  0.3988
 7415TIP3   OH243735   2.905   4.429  16.102 -0.5647  0.4701 -0.6863
 7415TIP3    H143736   2.996   4.453  16.119 -0.2363 -1.3670  0.4075
 7415TIP3    H243737   2.911   4.356  16.041 -1.0912 -1.4698  1.4490
 7416TIP3   OH243738   0.874   6.291   2.538 -0.2698 -0.2426 -0.2638
 7416TIP3    H143739   0.821   6.273   2.615  0.0963 -1.2014 -0.2301
 7416TIP3    H243740   0.843   6.230   2.472  0.6881 -0.7333 -0.2803
 7417TIP3   OH243741   0.329   4.721  13.637  0.3316 -0.4340 -0.0944
 7417TIP3    H143742   0.278   4.651  13.678  0.6110  0.7247  2.4758
 7417TIP3    H243743   0.268   4.764  13.578 -0.8288 -0.8641  0.7583
 7418TIP3   OH243744   4.323   2.732   2.533 -0.3292  0.3637 -0.6116
 7418TIP3    H143745   4.339   2.825   2.548 -0.2989  0.0943  1.3080
 7418TIP3    H243746   4.408   2.690   2.545 -0.5759 -0.0315 -0.2087
 7419TIP3   OH243747   6.062   2.914  15.069 -0.3256  0.0419  0.4058
 7419TIP3    H143748   6.019   2.880  14.991  0.4377 -0.1986  0.0828
 7419TIP3    H243749   6.114   2.988  15.038  0.9447 -0.7993  0.4572
 7420TIP3   OH243750   3.057   2.389  15.211  0.5324 -0.9057 -0.2800
 7420TIP3    H143751   3.057   2.399  15.306 -0.0371 -1.2889 -0.2370
 7420TIP3    H243752   2.982   2.440  15.181 -0.1087 -1.8879 -0.3940
 7421TIP3   OH243753   3.864   2.140   6.081  0.4263 -0.4702 -0.6682
 7421TIP3    H143754   3.907   2.189   6.151 -0.0713  0.3840 -0.9377
 7421TIP3    H243755   3.828   2.063   6.124  0.3237 -0.0663 -0.0178
 7422TIP3   OH243756   6.523   1.812  11.396 -0.4397 -0.3867  0.1990
 7422TIP3    H143757   6.444   1.863  11.414 -0.0067  0.5018 -0.3966
 7422TIP3    H243758   6.490   1.724  11.377 -1.1911 -0.3453  1.2055
 7423TIP3   OH243759   3.438   3.717   2.966 -0.8571  0.2489 -0.4890
 7423TIP3    H143760   3.424   3.628   2.934 -0.1731 -0.0128 -0.0853
 7423TIP3    H243761   3.479   3.763   2.893 -0.1416 -0.0913 -0.3053
 7424TIP3   OH243762   4.279   6.580   0.114 -0.6813  0.2418 -0.3040
 7424TIP3    H143763   4.212   6.514   0.134 -1.2579  0.8000 -0.3760
 7424TIP3    H243764   4.332   6.584   0.193 -2.9812  2.4794  1.3024
 7425TIP3   OH243765   4.229   1.014  14.414 -0.4528 -0.2026  0.0142
 7425TIP3    H143766   4.305   1.060  14.378 -0.9825 -0.0235 -0.9097
 7425TIP3    H243767   4.219   0.937  14.357 -1.2858  0.0643 -0.2074
 7426TIP3   OH243768   4.565   5.702   1.350 -0.6769 -0.1272  0.2027
 7426TIP3    H143769   4.557   5.642   1.424 -1.3047  0.3420  0.5283
 7426TIP3    H243770   4.527   5.784   1.382 -0.8552  0.1121 -0.6094
 7427TIP3   OH243771   0.636   1.670  10.918  0.1342 -0.4043  0.2045
 7427TIP3    H143772   0.703   1.626  10.971 -0.0347 -0.3358  0.4767
 7427TIP3    H243773   0.564   1.607  10.915 -0.4194  0.1452  1.2421
 7428TIP3   OH243774   4.143   4.909   0.227  0.4847  0.5733 -0.0473
 7428TIP3    H143775   4.052   4.910   0.256 -0.3836  1.3205 -2.5309
 7428TIP3    H243776   4.139   4.935   0.135  2.9822 -1.5805 -0.8880
 7429TIP3   OH243777   2.811   2.208  15.213  0.5051  0.4498 -0.4325
 7429TIP3    H143778   2.885   2.267  15.200  0.9166  0.3783  1.3227
 7429TIP3    H243779   2.744   2.262  15.255  0.5332 -0.0886  0.3292
 7430TIP3   OH243780   1.016   3.606   5.018 -0.4706 -0.3494  0.1841
 7430TIP3    H143781   1.084   3.596   4.950  1.0018  2.5917  1.0487
 7430TIP3    H243782   0.941   3.642   4.971 -0.7231 -1.5873 -0.4128
 7431TIP3   OH243783   4.636   5.835   5.977  0.4436  0.1978 -0.2048
 7431TIP3    H143784   4.541   5.832   5.969  0.4966  0.6721 -1.0495
 7431TIP3    H243785   4.658   5.928   5.972  1.0688 -0.0029 -1.4950
 7432TIP3   OH243786   1.117   4.543  14.498 -0.2109 -0.4245  0.5325
 7432TIP3    H143787   1.188   4.603  14.480 -1.2056  0.1992 -1.5868
 7432TIP3    H243788   1.040   4.583  14.458 -1.4386 -1.8600  1.3193
 7433TIP3   OH243789   1.479   1.234   3.768 -0.2701  0.0339 -0.3483
 7433TIP3    H143790   1.506   1.198   3.683 -2.5476 -0.1200 -1.0905
 7433TIP3    H243791   1.441   1.159   3.814 -0.7352  0.4982  0.0325
 7434TIP3   OH243792   6.068   1.095  13.678  0.3491  0.1556  0.6621
 7434TIP3    H143793   5.976   1.117  13.694 -0.7376 -3.1040 -0.3623
 7434TIP3    H243794   6.112   1.116  13.761 -1.5868  0.4197  1.6939
 7435TIP3   OH243795   6.546   4.750  12.260  0.0984 -0.2923 -0.6899
 7435TIP3    H143796   6.622   4.798  12.295  0.2458 -0.5746 -0.6195
 7435TIP3    H243797   6.473   4.778  12.314  0.2664 -0.4800 -0.3606
 7436TIP3   OH243798   4.268   5.029  12.538  0.0373  0.4345  0.0548
 7436TIP3    H143799   4.354   5.070  12.525  0.9560 -0.8080  1.7567
 7436TIP3    H243800   4.274   4.947  12.490 -0.5458  0.7236 -0.5296
 7437TIP3   OH243801   2.027   0.147  15.287 -0.1225 -0.4827  0.1801
 7437TIP3    H143802   1.985   0.063  15.266 -0.4613 -1.1081  2.9280
 7437TIP3    H243803   2.036   0.146  15.382  2.3409  1.4864  0.0645
 7438TIP3   OH243804   2.749   1.864  12.731 -0.6024  0.7600 -0.5365
 7438TIP3    H143805   2.785   1.796  12.675  0.7109  0.0769  1.0721
 7438TIP3    H243806   2.717   1.818  12.808 -1.9407  1.7283 -0.4637
 7439TIP3   OH243807   4.804   3.769  15.758  0.2458  0.0134  0.6496
 7439TIP3    H143808   4.761   3.850  15.784  0.5600  0.1813  0.6499
 7439TIP3    H243809   4.766   3.703  15.816  0.0194  0.1672  0.6780
 7440TIP3   OH243810   2.534   5.479   0.536 -0.0230 -0.1882 -0.6943
 7440TIP3    H143811   2.553   5.385   0.534 -1.9586 -0.6048 -0.9677
 7440TIP3    H243812   2.587   5.516   0.465  1.0143 -1.0083 -0.3645
 7441TIP3   OH243813   0.599   6.765   0.434  0.0422  0.2571  0.3491
 7441TIP3    H143814   0.577   6.819   0.510 -1.0690 -3.0079  2.5272
 7441TIP3    H243815   0.517   6.754   0.387  0.0641 -0.2982  0.4387
 7442TIP3   OH243816   2.966   3.232  15.346 -0.2957  0.2754 -0.0542
 7442TIP3    H143817   2.924   3.249  15.430 -0.8572  2.3475 -0.7124
 7442TIP3    H243818   2.895   3.201  15.289  0.1503 -1.4861  0.2793
 7443TIP3   OH243819   5.641   2.961   2.098 -0.7311  0.0053  0.2133
 7443TIP3    H143820   5.686   2.921   2.023 -0.2323 -0.4257  0.7292
 7443TIP3    H243821   5.585   2.892   2.132 -0.8152  0.1422  0.3533
 7444TIP3   OH243822   4.182   6.082  11.778 -0.8822 -0.3495  0.4825
 7444TIP3    H143823   4.213   5.994  11.798  2.0701  0.3848 -0.3074
 7444TIP3    H243824   4.144   6.114  11.860  0.0470 -1.5612  1.4205
 7445TIP3   OH243825   3.177   3.016  12.145 -0.1772  0.0832  0.0430
 7445TIP3    H143826   3.147   3.038  12.233 -2.0868 -2.3794  0.1128
 7445TIP3    H243827   3.256   2.964  12.159 -0.6114 -0.5063  0.3252
 7446TIP3   OH243828   0.406   5.968   5.626  0.4828 -0.1473 -0.4299
 7446TIP3    H143829   0.395   5.995   5.535 -1.1233 -1.8425 -0.7915
 7446TIP3    H243830   0.414   5.872   5.622  0.7039 -0.2262  1.1879
 7447TIP3   OH243831   6.817   5.180   0.268  0.5345  0.1678  0.1495
 7447TIP3    H143832   6.850   5.268   0.288  0.7694  0.2800 -0.6911
 7447TIP3    H243833   6.872   5.150   0.195  0.5592 -0.7406  0.5213
 7448TIP3   OH243834   5.920   6.688   4.873 -0.3092 -0.0750 -0.3312
 7448TIP3    H143835   5.897   6.780   4.883 -1.7538 -0.1336 -2.4065
 7448TIP3    H243836   6.003   6.688   4.825  0.8096  0.1178  1.5444
 7449TIP3   OH243837   3.014   0.523   5.491  0.3872  0.0141  0.3502
 7449TIP3    H143838   2.980   0.505   5.403 -0.6811  2.0857  0.2835
 7449TIP3    H243839   2.951   0.584   5.529  2.4891  1.7203  1.3263
 7450TIP3   OH243840   4.229   0.492   1.002  0.2089  0.6591  0.6512
 7450TIP3    H143841   4.141   0.493   0.964  0.0766 -1.1899  0.8333
 7450TIP3    H243842   4.230   0.568   1.060 -1.5708  0.2890  1.2424
 7451TIP3   OH243843   0.317   4.525   4.881  0.1493  0.0509 -0.3323
 7451TIP3    H143844   0.319   4.615   4.850  0.0894 -0.3123 -1.4237
 7451TIP3    H243845   0.408   4.497   4.881 -0.0189 -0.7358 -2.6464
 7452TIP3   OH243846   5.640   3.019   4.546  0.3589  0.1652  0.1279
 7452TIP3    H143847   5.612   2.943   4.495  0.8617  0.0839 -0.0383
 7452TIP3    H243848   5.607   3.094   4.496 -0.9562  0.0449  0.7906
 7453TIP3   OH243849   0.912   2.670  12.061  0.0443 -0.3642 -0.0207
 7453TIP3    H143850   0.834   2.616  12.074 -0.0306 -0.2466  0.0239
 7453TIP3    H243851   0.878   2.760  12.058 -0.0014 -0.3982 -1.3802
 7454TIP3   OH243852   1.461   6.713   1.436  0.0883 -0.4285  0.4059
 7454TIP3    H143853   1.397   6.687   1.501 -1.1210  0.1795 -0.5039
 7454TIP3    H243854   1.415   6.707   1.352  1.2769 -0.1836 -0.3025
 7455TIP3   OH243855   3.183   1.783  11.051 -0.0720  0.7765  0.3298
 7455TIP3    H143856   3.274   1.751  11.055 -0.3129 -0.3512 -1.6207
 7455TIP3    H243857   3.187   1.871  11.088  2.2869  1.6514 -1.6993
 7456TIP3   OH243858   0.308   6.686   2.273 -0.4643 -0.5127  0.1212
 7456TIP3    H143859   0.220   6.717   2.251  0.1524 -0.4211 -2.4939
 7456TIP3    H243860   0.353   6.763   2.305 -1.0084 -0.3402  0.5006
 7457TIP3   OH243861   2.252   2.467  15.462 -0.8662 -0.0709  0.3787
 7457TIP3    H143862   2.180   2.529  15.472 -1.0254 -0.2173  0.1408
 7457TIP3    H243863   2.326   2.520  15.432 -1.1411 -0.0778 -0.3136
 7458TIP3   OH243864   0.105   5.633  12.119  0.0949 -0.0466 -0.0167
 7458TIP3    H143865   0.165   5.563  12.095 -1.5215 -1.3021 -0.5742
 7458TIP3    H243866   0.100   5.628  12.215  0.4117 -0.3187 -0.0117
 7459TIP3   OH243867   4.178   6.499   4.224  0.1596  0.3129  0.8243
 7459TIP3    H143868   4.218   6.542   4.148 -0.2668 -0.3276  0.2218
 7459TIP3    H243869   4.089   6.533   4.226 -0.0665 -0.2433  0.5653
 7460TIP3   OH243870   4.266   1.542   5.259 -0.1001  0.1444  0.1776
 7460TIP3    H143871   4.228   1.490   5.189  1.7694 -0.4581 -0.4597
 7460TIP3    H243872   4.356   1.510   5.267  0.3450  1.5592  1.5023
 7461TIP3   OH243873   0.081   6.293   0.325 -0.2312  0.2356 -0.5153
 7461TIP3    H143874  -0.006   6.303   0.362  0.2985  0.3773  0.7502
 7461TIP3    H243875   0.066   6.255   0.238 -1.7429  3.0536 -1.6470
 7462TIP3   OH243876   2.068   2.752  15.091  0.1959  0.5798  0.5625
 7462TIP3    H143877   2.146   2.735  15.143  0.0739  3.3128  1.8587
 7462TIP3    H243878   2.092   2.824  15.033 -1.2889  1.3905  0.8913
 7463TIP3   OH243879   2.232   4.355  11.160  0.5792 -0.7132  0.8454
 7463TIP3    H143880   2.160   4.350  11.097 -0.8108  1.5105  2.1187
 7463TIP3    H243881   2.199   4.310  11.238  0.7190 -0.0756  1.2829
 7464TIP3   OH243882   2.251   0.416  11.942  0.2863  0.1749  0.3488
 7464TIP3    H143883   2.272   0.491  11.886  0.4589 -1.4894 -1.9705
 7464TIP3    H243884   2.172   0.442  11.989 -0.6062  1.2469 -1.6159
 7465TIP3   OH243885   2.748   1.964  13.075  0.0212  0.0458  0.3492
 7465TIP3    H143886   2.706   1.979  13.159 -1.4191  1.2183 -0.5213
 7465TIP3    H243887   2.714   2.034  13.018  0.9131 -0.7251 -1.2187
 7466TIP3   OH243888   5.813   2.594   3.202 -0.2996  1.1288  0.2979
 7466TIP3    H143889   5.862   2.593   3.284 -0.1539  2.6474  0.2629
 7466TIP3    H243890   5.861   2.655   3.146 -0.4651  0.2111 -0.8799
 7467TIP3   OH243891   5.819   1.958  13.471  0.2353  0.0610 -0.5440
 7467TIP3    H143892   5.826   1.867  13.442  0.3610  0.5382 -2.1138
 7467TIP3    H243893   5.773   1.953  13.554  0.9005 -1.4918 -0.2414
 7468TIP3   OH243894   2.300   6.652   5.947 -0.3298 -0.2326 -0.5168
 7468TIP3    H143895   2.311   6.606   6.030  0.1319 -0.5443 -0.7475
 7468TIP3    H243896   2.230   6.715   5.964 -1.3851 -1.4087 -0.3566
 7469TIP3   OH243897   2.767   1.791   0.296  0.2160  0.1997  0.2676
 7469TIP3    H143898   2.860   1.769   0.292 -0.1713 -1.4433 -0.6501
 7469TIP3    H243899   2.729   1.749   0.219 -1.3047  0.7619  0.6723
 7470TIP3   OH243900   1.664   6.640  13.643  0.1755 -0.0753 -0.2087
 7470TIP3    H143901   1.579   6.636  13.687  0.2581  2.3466  0.3074
 7470TIP3    H243902   1.651   6.703  13.573  1.9238  1.6393  0.9082
 7471TIP3   OH243903   2.423   2.271  16.308  0.3238  0.2085 -0.0339
 7471TIP3    H143904   2.330   2.294  16.310  0.6637  1.5812  0.8186
 7471TIP3    H243905   2.437   2.218  16.386  0.5472  1.2295  0.6319
 7472TIP3   OH243906   2.107   5.170  14.138 -0.0745 -0.0161  0.7058
 7472TIP3    H143907   2.161   5.220  14.076  0.0333  0.0580  0.8590
 7472TIP3    H243908   2.086   5.089  14.092 -2.0156  1.0423 -0.3903
 7473TIP3   OH243909   3.251   5.755  13.956  0.5765  0.4747  0.1250
 7473TIP3    H143910   3.212   5.675  13.992  1.9960 -0.0427  0.5859
 7473TIP3    H243911   3.321   5.778  14.017 -0.0672  2.3418  0.2290
 7474TIP3   OH243912   0.995   0.475   2.509 -0.4110 -0.2035 -0.3868
 7474TIP3    H143913   0.917   0.436   2.468 -1.7393  0.9198  0.9591
 7474TIP3    H243914   0.964   0.559   2.544  1.6692  0.7481 -0.6870
 7475TIP3   OH243915   0.771   1.860   1.180  1.0865  0.3922 -0.4947
 7475TIP3    H143916   0.752   1.766   1.188  0.1492  0.6730  1.1775
 7475TIP3    H243917   0.785   1.889   1.270 -0.4675  2.1926 -0.7563
 7476TIP3   OH243918   3.248   6.379  12.793  0.1852 -0.3632 -0.3410
 7476TIP3    H143919   3.206   6.311  12.847 -0.5148  0.0614 -0.3403
 7476TIP3    H243920   3.334   6.343  12.773 -0.6406 -1.8454 -1.4593
 7477TIP3   OH243921   3.505   1.277  10.929 -0.2285 -0.1309  0.1226
 7477TIP3    H143922   3.590   1.232  10.935 -0.3564 -0.4271 -0.2427
 7477TIP3    H243923   3.444   1.208  10.901 -0.4725  0.2203 -0.2123
 7478TIP3   OH243924   4.789   4.859  11.226 -0.3876 -0.4659 -0.2052
 7478TIP3    H143925   4.853   4.930  11.238 -1.0147  0.0074  0.4179
 7478TIP3    H243926   4.842   4.781  11.213  0.3187  0.0618 -0.5720
 7479TIP3   OH243927   2.776   2.323  15.694 -0.3917 -0.1030  0.1787
 7479TIP3    H143928   2.849   2.286  15.743  0.3095  1.2383  0.1731
 7479TIP3    H243929   2.700   2.311  15.751  0.0295 -0.4624  0.6751
 7480TIP3   OH243930   6.185   6.074  16.976 -0.0795 -0.1471 -0.7174
 7480TIP3    H143931   6.136   6.066  17.058 -0.2638  1.4505 -0.6342
 7480TIP3    H243932   6.143   6.011  16.917  0.4615 -1.7873  0.5673
 7481TIP3   OH243933   0.198   3.997  11.529 -0.2668 -0.4727 -0.0728
 7481TIP3    H143934   0.112   3.957  11.532  0.1713 -1.4199  0.3479
 7481TIP3    H243935   0.206   4.045  11.611 -0.1817 -0.8570  0.1477
 7482TIP3   OH243936   3.058   2.397  16.102 -0.0348  0.6604  0.7161
 7482TIP3    H143937   3.053   2.306  16.072 -0.5699  1.0121 -0.2728
 7482TIP3    H243938   2.967   2.421  16.120  0.1600  0.8328  1.5195
 7483TIP3   OH243939   6.670   6.390  15.036 -0.0217  0.6090 -0.1097
 7483TIP3    H143940   6.683   6.301  15.068  0.6799  1.1357  1.1345
 7483TIP3    H243941   6.700   6.387  14.945 -0.8819 -0.6287 -0.3835
 7484TIP3   OH243942   0.657   2.370  16.957  0.1931 -0.5031  0.1865
 7484TIP3    H143943   0.647   2.441  17.021  0.3116  1.1642 -1.5698
 7484TIP3    H243944   0.750   2.372  16.934  0.0391 -0.6828 -0.4729
 7485TIP3   OH243945   6.507   5.662   2.153  0.0004 -0.1779  0.0089
 7485TIP3    H143946   6.450   5.668   2.230 -0.9138  0.6633 -0.7075
 7485TIP3    H243947   6.594   5.682   2.186 -0.4333  0.5236  0.7578
 7486TIP3   OH243948   4.002   0.158   4.942  0.1179 -0.3041  0.0450
 7486TIP3    H143949   4.092   0.189   4.937  1.0270 -2.8670 -2.0057
 7486TIP3    H243950   3.973   0.153   4.851 -2.0778  0.2886  0.6461
 7487TIP3   OH243951   6.526   0.835  10.450 -0.6025  0.0508  0.4361
 7487TIP3    H143952   6.542   0.917  10.496  0.6391  0.3869 -0.5743
 7487TIP3    H243953   6.519   0.859  10.358  2.0106 -1.1947 -0.1700
 7488TIP3   OH243954   2.397   3.087  15.106 -0.1393 -0.1349  0.1924
 7488TIP3    H143955   2.455   3.095  15.030  0.2077 -1.9244  0.2411
 7488TIP3    H243956   2.374   3.178  15.127  2.0905  0.5989 -0.2441
 7489TIP3   OH243957   5.589   5.576  13.642 -0.2656  0.2191  0.1920
 7489TIP3    H143958   5.528   5.530  13.700 -0.6239  0.9429  0.4006
 7489TIP3    H243959   5.670   5.583  13.693 -0.1805 -0.2301  0.1303
 7490TIP3   OH243960   6.760   1.520  11.163  0.2584 -0.7959 -0.3071
 7490TIP3    H143961   6.687   1.576  11.137  0.3650  0.0338  1.1024
 7490TIP3    H243962   6.838   1.568  11.134  0.4365  0.6334  2.2013
 7491TIP3   OH243963   3.656   6.783   5.136  0.4790  0.9389  0.0850
 7491TIP3    H143964   3.564   6.808   5.125 -0.0312 -0.6395  0.4809
 7491TIP3    H243965   3.690   6.843   5.203 -1.1726 -0.4637  2.3074
 7492TIP3   OH243966   2.420   5.922  16.304  0.8926 -0.4894  0.0157
 7492TIP3    H143967   2.374   5.920  16.220  0.3058 -0.5369  0.3309
 7492TIP3    H243968   2.376   5.856  16.358  1.1179 -0.3050  0.4342
 7493TIP3   OH243969   3.949   4.061   5.822  0.8228 -0.3146 -0.3271
 7493TIP3    H143970   4.037   4.077   5.788  1.5163 -0.8800  1.1224
 7493TIP3    H243971   3.963   4.028   5.911 -0.7936 -1.6274 -0.5018
 7494TIP3   OH243972   3.991   1.427   5.777 -0.1309 -0.3209  0.3822
 7494TIP3    H143973   3.969   1.517   5.753 -0.0513 -0.2969  0.3985
 7494TIP3    H243974   3.925   1.402   5.841 -0.8637 -0.6791 -0.4945
 7495TIP3   OH243975   4.680   2.613   6.280  1.2824 -0.0688  0.1201
 7495TIP3    H143976   4.607   2.650   6.230  1.5719 -0.9131 -0.9785
 7495TIP3    H243977   4.692   2.673   6.354 -0.9478 -0.2879  0.7069
 7496TIP3   OH243978   1.466   4.496   1.018 -0.1638 -0.0034 -0.1564
 7496TIP3    H143979   1.539   4.552   0.989  0.8247 -1.4367 -0.5508
 7496TIP3    H243980   1.508   4.422   1.061 -1.5190  0.8727  2.9821
 7497TIP3   OH243981   1.370   5.935  11.653 -0.4122 -0.3038  0.2895
 7497TIP3    H143982   1.283   5.921  11.691 -1.0838  0.1923 -0.9765
 7497TIP3    H243983   1.406   6.009  11.701 -1.7476  1.1179 -0.7785
 7498TIP3   OH243984   2.073   4.778  10.877  0.2538 -0.7822 -0.0565
 7498TIP3    H143985   1.988   4.746  10.907 -0.0818 -0.7892 -0.9866
 7498TIP3    H243986   2.055   4.866  10.845  0.4129 -1.1205 -1.0946
 7499TIP3   OH243987   5.461   5.556  15.141 -0.1280  0.5627  0.1004
 7499TIP3    H143988   5.485   5.630  15.197  0.8796 -0.2626  0.7900
 7499TIP3    H243989   5.534   5.548  15.079 -1.1387  1.3465 -1.2604
 7500TIP3   OH243990   1.567   3.883  16.352  0.4125  0.0003 -0.5869
 7500TIP3    H143991   1.563   3.975  16.328 -2.8099  0.8591  2.3199
 7500TIP3    H243992   1.660   3.864  16.362  1.2322  2.5015 -2.5440
 7501TIP3   OH243993   3.067   2.791  16.814 -0.5268  0.0571  0.1965
 7501TIP3    H143994   3.000   2.857  16.796  0.2407  0.5422 -1.0519
 7501TIP3    H243995   3.018   2.715  16.846 -1.7864  0.1033 -1.4769
 7502TIP3   OH243996   4.666   6.716   2.641 -0.5168 -0.2743 -0.2740
 7502TIP3    H143997   4.759   6.699   2.650 -0.8576 -2.3945 -0.3281
 7502TIP3    H243998   4.641   6.761   2.722  0.3052 -0.8498  0.3040
 7503TIP3   OH243999   6.133   3.899   0.454  0.3256  0.1151  0.4023
 7503TIP3    H144000   6.135   3.978   0.400 -1.7210  1.8339  2.6436
 7503TIP3    H244001   6.045   3.863   0.441  0.0961  0.0809  1.8827
 7504TIP3   OH244002   1.618   3.567  16.925 -0.1092 -0.1335 -0.2797
 7504TIP3    H144003   1.537   3.618  16.926  0.2771  0.4743  0.5140
 7504TIP3    H244004   1.632   3.547  16.832 -2.1082 -1.8089 -0.3125
 7505TIP3   OH244005   0.059   4.550  13.537  0.2605 -0.1371  0.6148
 7505TIP3    H144006  -0.002   4.607  13.585 -1.0344 -0.1755 -0.9163
 7505TIP3    H244007   0.081   4.481  13.600 -0.9894  0.0779  1.3249
 7506TIP3   OH244008   2.504   3.032   2.062 -0.4092 -0.1142  0.5862
 7506TIP3    H144009   2.479   3.071   2.146 -0.4369  0.1115  0.4744
 7506TIP3    H244010   2.599   3.044   2.057 -0.0178 -2.2851  1.6850
 7507TIP3   OH244011   2.132   2.573   5.773 -0.1964  0.4221 -0.3356
 7507TIP3    H144012   2.154   2.496   5.720 -1.9528  0.7643 -1.6845
 7507TIP3    H244013   2.090   2.536   5.851 -0.0967 -0.0277 -0.4888
 7508TIP3   OH244014   4.529   4.508   4.734 -0.3337 -0.6098 -0.4694
 7508TIP3    H144015   4.487   4.580   4.687 -1.6042 -0.7030  0.4720
 7508TIP3    H244016   4.484   4.504   4.818  3.3236  0.9738  1.7794
 7509TIP3   OH244017   6.234   5.511   3.587 -0.3710  0.0528  0.2972
 7509TIP3    H144018   6.328   5.518   3.571 -0.3137 -1.7726 -0.4121
 7509TIP3    H244019   6.206   5.435   3.535 -2.0270 -0.1184  1.3459
 7510TIP3   OH244020   3.112   1.154   4.483 -0.5144 -1.0233 -0.4974
 7510TIP3    H144021   3.066   1.237   4.471  0.7166 -0.0310  1.1955
 7510TIP3    H244022   3.042   1.089   4.492 -1.5734  0.1909  0.4453
 7511TIP3   OH244023   2.917   1.005  11.146 -0.3732  0.4929 -0.1830
 7511TIP3    H144024   2.846   1.024  11.085 -0.6165  1.0573  0.2662
 7511TIP3    H244025   2.903   0.914  11.172 -1.1382  0.7097  0.1774
 7512TIP3   OH244026   6.657   4.284  16.487 -0.3873 -0.8631 -0.1040
 7512TIP3    H144027   6.604   4.206  16.503  0.1019 -1.3980 -1.0150
 7512TIP3    H244028   6.604   4.356  16.521 -1.5619 -1.4139 -0.7083
 7513TIP3   OH244029   0.595   5.041  16.049  0.0928  0.3618 -0.2334
 7513TIP3    H144030   0.566   5.085  15.969  0.2368 -2.0423 -1.7074
 7513TIP3    H244031   0.528   4.975  16.066  0.3091  0.5143  1.4157
 7514TIP3   OH244032   5.212   3.393  11.876  0.0033  0.0030 -0.2151
 7514TIP3    H144033   5.209   3.322  11.941 -0.3465  0.0456 -0.1794
 7514TIP3    H244034   5.128   3.438  11.886 -0.3913 -0.4809 -1.2512
 7515TIP3   OH244035   1.590   5.051   4.100  0.2431  0.3541  0.0207
 7515TIP3    H144036   1.538   4.985   4.053 -0.6131 -0.2168  1.6740
 7515TIP3    H244037   1.676   5.046   4.060  0.0715 -1.4384 -0.2465
 7516TIP3   OH244038   4.356   2.879  16.352 -0.6342  0.1363  0.0807
 7516TIP3    H144039   4.348   2.787  16.380  1.1548 -0.1496 -0.2671
 7516TIP3    H244040   4.388   2.874  16.262 -0.0624  1.1046  0.2177
 7517TIP3   OH244041   2.417   6.168   4.835 -0.3224 -0.0415 -0.1219
 7517TIP3    H144042   2.467   6.242   4.800 -3.0093  1.9261 -0.0867
 7517TIP3    H244043   2.343   6.159   4.775 -0.9302 -1.6452  0.8210
 7518TIP3   OH244044   4.902   1.212  12.007 -0.0104  0.6158  0.3712
 7518TIP3    H144045   4.876   1.202  11.915  0.3132 -0.3213  0.3701
 7518TIP3    H244046   4.958   1.289  12.008  1.3683 -0.3371 -0.5286
 7519TIP3   OH244047   5.543   0.392   4.581 -0.2043 -0.2426  0.1983
 7519TIP3    H144048   5.610   0.363   4.518 -0.5577 -0.7214  0.0326
 7519TIP3    H244049   5.571   0.480   4.607  0.6882 -0.5773  0.4129
 7520TIP3   OH244050   0.360   6.439  12.141 -0.1188 -0.3824 -0.5232
 7520TIP3    H144051   0.347   6.376  12.070  0.6363 -0.6287 -0.4531
 7520TIP3    H244052   0.392   6.518  12.098 -0.6108 -0.1977 -0.5584
 7521TIP3   OH244053   4.422   4.560  14.620 -0.1716 -0.1412  1.2928
 7521TIP3    H144054   4.370   4.628  14.663  0.2831  0.1174  1.4494
 7521TIP3    H244055   4.498   4.608  14.585 -1.2784 -0.0460 -1.1712
 7522TIP3   OH244056   4.714   6.336   3.815  0.1448 -0.3169 -0.4443
 7522TIP3    H144057   4.625   6.324   3.780  0.4022 -1.9143 -0.6495
 7522TIP3    H244058   4.722   6.268   3.882  0.2367  1.6430  1.6559
 7523TIP3   OH244059   0.191   1.026  11.602 -0.3779 -0.1190  0.3005
 7523TIP3    H144060   0.158   1.058  11.686  0.6409  1.4169  0.1498
 7523TIP3    H244061   0.234   0.943  11.623 -1.4125 -0.4984  1.0335
 7524TIP3   OH244062   1.189   1.803  11.096 -0.3764 -0.1880  0.0189
 7524TIP3    H144063   1.273   1.847  11.111 -0.8507  0.4648  0.8732
 7524TIP3    H244064   1.158   1.781  11.184 -0.7581 -1.0822 -0.3299
 7525TIP3   OH244065   1.121   1.765  11.377  0.1060 -0.2627  0.4620
 7525TIP3    H144066   1.056   1.831  11.352 -0.1393 -0.7090 -0.0920
 7525TIP3    H244067   1.179   1.811  11.439 -1.2199 -0.1093  1.6206
 7526TIP3   OH244068   3.282   3.438  14.026 -0.2559 -0.0942  0.0417
 7526TIP3    H144069   3.303   3.509  14.086  1.2878 -0.7701  0.3558
 7526TIP3    H244070   3.355   3.436  13.965 -2.3381  1.3555 -2.7186
 7527TIP3   OH244071   2.207   3.625  15.668  0.3299 -0.9085  0.6786
 7527TIP3    H144072   2.223   3.578  15.750  0.6114 -2.7995 -0.3964
 7527TIP3    H244073   2.136   3.576  15.626  0.3711 -0.1438 -0.3280
 7528TIP3   OH244074   4.247   0.114  16.678 -0.6579 -0.2499 -0.2350
 7528TIP3    H144075   4.222   0.080  16.592 -2.2609 -1.5320  0.6946
 7528TIP3    H244076   4.268   0.206  16.661 -0.7309 -0.5179 -2.0181
 7529TIP3   OH244077   3.657   2.183   4.311  0.0638 -0.0102 -0.3064
 7529TIP3    H144078   3.663   2.152   4.221  1.0083 -0.5107 -0.0910
 7529TIP3    H244079   3.740   2.156   4.351  0.5580  1.9985  0.1490
 7530TIP3   OH244080   2.978   5.716  14.485  0.6265 -0.4017  0.0264
 7530TIP3    H144081   3.020   5.730  14.400  1.8967 -1.4523  0.4462
 7530TIP3    H244082   2.917   5.789  14.494  0.4805 -0.2612 -1.7676
 7531TIP3   OH244083   6.670   3.247  12.017 -0.5132  0.4409  0.1546
 7531TIP3    H144084   6.593   3.266  12.071  0.3701  0.5763  1.4067
 7531TIP3    H244085   6.663   3.308  11.943 -2.2238 -0.3739 -0.4173
 7532TIP3   OH244086   0.871   5.196   1.076  0.7259 -0.1662  0.3770
 7532TIP3    H144087   0.915   5.277   1.051 -0.9194  0.7445  0.3054
 7532TIP3    H244088   0.893   5.135   1.005  0.3075  0.8403 -0.6488
 7533TIP3   OH244089   2.168   3.443  15.864 -0.7984  0.1290  0.0436
 7533TIP3    H144090   2.075   3.427  15.881 -0.6273 -0.2952  0.5871
 7533TIP3    H244091   2.210   3.358  15.874 -0.1468  0.5507  1.1605
 7534TIP3   OH244092   6.317   3.270  14.555 -0.7223 -0.3439 -0.8880
 7534TIP3    H144093   6.301   3.246  14.646  0.2247  1.9198 -0.0495
 7534TIP3    H244094   6.297   3.190  14.506 -1.5984 -1.5398  1.2330
 7535TIP3   OH244095   5.642   3.343  12.825 -0.4766 -0.2291 -0.1813
 7535TIP3    H144096   5.695   3.269  12.854 -3.2926 -2.2893  0.1940
 7535TIP3    H244097   5.653   3.345  12.730  2.3603  1.2561  0.0800
 7536TIP3   OH244098   3.063   0.213   5.444  0.3035 -0.0160  0.1258
 7536TIP3    H144099   2.969   0.231   5.439  0.6204  1.4039 -2.3910
 7536TIP3    H244100   3.093   0.266   5.518 -0.6311  0.9743 -0.1636
 7537TIP3   OH244101   6.531   3.813   4.659 -0.0415 -0.8010 -0.0716
 7537TIP3    H144102   6.585   3.755   4.605  0.0067 -1.3065  0.5098
 7537TIP3    H244103   6.593   3.864   4.710 -0.0406 -3.0438  2.3745
 7538TIP3   OH244104   2.415   0.552   0.969 -0.8456  0.2163  0.0722
 7538TIP3    H144105   2.339   0.558   1.027 -2.1268 -0.1058 -1.4766
 7538TIP3    H244106   2.430   0.458   0.960 -2.4765  0.0911 -2.2487
 7539TIP3   OH244107   1.947   3.148  14.101  0.6301 -0.7922 -0.1082
 7539TIP3    H144108   1.961   3.241  14.081 -1.7097 -0.4036 -0.3165
 7539TIP3    H244109   1.960   3.103  14.018 -0.6713 -0.2745 -0.6291
 7540TIP3   OH244110   3.280   5.731  12.503 -0.2798  0.4069 -0.1484
 7540TIP3    H144111   3.235   5.695  12.579 -0.1652  2.1394  0.7710
 7540TIP3    H244112   3.373   5.732  12.528  0.0046 -0.7190 -1.0469
 7541TIP3   OH244113   4.656   1.949   3.203  0.6232  0.1051  0.4055
 7541TIP3    H144114   4.645   2.043   3.190  4.9383  0.9740  1.5815
 7541TIP3    H244115   4.719   1.922   3.136  0.2889 -1.7556  0.7762
 7542TIP3   OH244116   3.707   6.415   1.194  0.1674  0.2662  0.2589
 7542TIP3    H144117   3.769   6.364   1.142  1.3273  1.7279  0.1604
 7542TIP3    H244118   3.756   6.491   1.223 -1.9138  2.1676 -0.9002
 7543TIP3   OH244119   4.172   5.325   4.300 -0.0923  0.0604  0.0096
 7543TIP3    H144120   4.108   5.338   4.230  1.5107  1.1575 -1.3512
 7543TIP3    H244121   4.243   5.385   4.278  2.2445 -2.3796  0.4242
 7544TIP3   OH244122   6.600   5.436   2.829 -0.1711 -0.1046 -0.4043
 7544TIP3    H144123   6.678   5.380   2.822 -0.6100 -0.8454  0.4625
 7544TIP3    H244124   6.630   5.522   2.799  0.9353 -0.4275 -0.2840
 7545TIP3   OH244125   0.704   0.844   2.960 -0.0770  0.9934 -0.8901
 7545TIP3    H144126   0.623   0.837   3.010  0.8752  3.1352  1.1697
 7545TIP3    H244127   0.703   0.934   2.926  0.7684  0.5810 -2.0617
 7546TIP3   OH244128   6.796   1.861  11.846  0.0834 -0.0463 -0.3044
 7546TIP3    H144129   6.796   1.937  11.787  0.0408  0.8774  0.8550
 7546TIP3    H244130   6.770   1.788  11.790 -0.7520  0.9379 -1.2542
 7547TIP3   OH244131   0.869   3.708   5.912 -0.1868 -0.0280 -0.3689
 7547TIP3    H144132   0.819   3.766   5.970 -0.5454  0.0987 -0.8001
 7547TIP3    H244133   0.960   3.721   5.939 -0.3008  0.4398 -0.1940
 7548TIP3   OH244134   3.593   4.223   0.522 -0.0703  0.1283 -0.0166
 7548TIP3    H144135   3.515   4.228   0.467 -0.3543 -1.1039  0.2378
 7548TIP3    H244136   3.607   4.129   0.535 -1.6391  0.2484  4.2096
 7549TIP3   OH244137   4.533   6.559  14.291 -0.2873  0.0627 -0.1819
 7549TIP3    H144138   4.500   6.577  14.203 -1.4263 -1.3835 -0.0830
 7549TIP3    H244139   4.525   6.642  14.338  0.2644  0.8347 -1.3936
 7550TIP3   OH244140   5.136   5.086  15.692  0.1310 -0.5279  0.6462
 7550TIP3    H144141   5.158   5.077  15.784  0.2272 -2.0040  0.5132
 7550TIP3    H244142   5.220   5.087  15.647  0.1461  1.6272  0.6426
 7551TIP3   OH244143   2.901   5.490   1.548  0.0141 -0.2035  0.3565
 7551TIP3    H144144   2.919   5.403   1.513  0.4114  1.1285 -3.2220
 7551TIP3    H244145   2.814   5.511   1.515 -0.5819  0.3772  2.1772
 7552TIP3   OH244146   2.111   0.842  15.312 -0.4736 -0.6520 -0.2996
 7552TIP3    H144147   2.060   0.851  15.393 -0.5428  0.0217 -0.4112
 7552TIP3    H244148   2.097   0.925  15.266  2.8993  0.7868  0.9019
 7553TIP3   OH244149   4.964   5.070   2.032 -0.3142  0.2485 -0.3686
 7553TIP3    H144150   4.960   4.979   2.060 -0.9725  0.0933 -0.9551
 7553TIP3    H244151   5.056   5.095   2.046 -0.1760 -0.4352 -0.0126
 7554TIP3   OH244152   3.263   0.675   2.230  0.6067  0.7772  0.1419
 7554TIP3    H144153   3.274   0.704   2.320 -0.1172  1.0619  0.1400
 7554TIP3    H244154   3.240   0.754   2.181  1.7301  0.7673 -0.4383
 7555TIP3   OH244155   1.335   0.454   1.585  0.3232  0.1288  0.3083
 7555TIP3    H144156   1.253   0.480   1.543 -0.4130 -1.7827  0.4443
 7555TIP3    H244157   1.323   0.361   1.604  2.6121 -0.2350  0.1908
 7556TIP3   OH244158   3.166   5.473  14.051  0.0137 -0.1881  0.1937
 7556TIP3    H144159   3.160   5.465  14.146  0.4094 -1.9427  0.0941
 7556TIP3    H244160   3.237   5.413  14.026  0.1156  0.4642 -1.1827
 7557TIP3   OH244161   2.475   1.332  10.466 -0.1932  0.1303 -0.2133
 7557TIP3    H144162   2.532   1.314  10.540 -0.2574 -1.3825 -0.5110
 7557TIP3    H244163   2.468   1.428  10.464  2.1001  0.3505 -0.0133
 7558TIP3   OH244164   2.359   1.522  16.687 -0.2423 -0.3467 -0.3702
 7558TIP3    H144165   2.304   1.514  16.610 -1.3265 -1.0127  0.4411
 7558TIP3    H244166   2.434   1.465  16.669 -0.5273 -0.5622 -0.9033
 7559TIP3   OH244167   3.264   6.643   3.766 -0.0884  0.2445 -0.5077
 7559TIP3    H144168   3.317   6.666   3.842 -0.9221  0.3292  0.0608
 7559TIP3    H244169   3.183   6.694   3.777 -1.3763 -1.7888  0.0106
 7560TIP3   OH244170   6.762   3.663  14.845  0.4656 -0.2824 -0.0553
 7560TIP3    H144171   6.785   3.591  14.904  1.3891 -1.0804 -1.3057
 7560TIP3    H244172   6.829   3.729  14.861 -0.8612  0.7171  1.6899
 7561TIP3   OH244173   1.351   2.555  14.300  0.1206 -0.5027  0.3468
 7561TIP3    H144174   1.374   2.462  14.300  2.3430 -0.0266 -1.2397
 7561TIP3    H244175   1.255   2.556  14.302  0.0605 -2.7727  1.8000
 7562TIP3   OH244176   6.471   5.359  13.416 -0.8713  0.2109  0.2519
 7562TIP3    H144177   6.458   5.323  13.328  1.1594 -0.3640  0.1454
 7562TIP3    H244178   6.476   5.453  13.402  0.9103  0.0414 -0.4978
 7563TIP3   OH244179   6.797   3.147   3.646 -0.0948 -0.4787 -0.1321
 7563TIP3    H144180   6.727   3.208   3.671  0.5725  0.3742 -0.3052
 7563TIP3    H244181   6.752   3.063   3.633 -0.9265 -0.1929  0.7810
 7564TIP3   OH244182   1.812   1.662  15.731  0.4946 -0.0106 -0.2758
 7564TIP3    H144183   1.838   1.587  15.677 -1.2825 -1.6829  1.0554
 7564TIP3    H244184   1.723   1.683  15.702 -0.0231 -0.1571  1.1106
 7565TIP3   OH244185   3.379   0.412   2.895  0.1924  0.3074  0.1259
 7565TIP3    H144186   3.378   0.497   2.853 -0.7174  0.1902 -0.1209
 7565TIP3    H244187   3.374   0.431   2.989  0.8945  0.5403  0.1184
 7566TIP3   OH244188   2.139   2.415  13.279 -0.1468 -0.3754 -0.0554
 7566TIP3    H144189   2.101   2.475  13.214  0.7524 -1.6447 -1.8292
 7566TIP3    H244190   2.225   2.453  13.298 -0.3319 -0.1050  0.2403
 7567TIP3   OH244191   0.084   4.952  10.858 -0.3994 -0.1312 -0.1965
 7567TIP3    H144192   0.090   5.027  10.798  0.4242 -0.4068 -0.4674
 7567TIP3    H244193   0.016   4.897  10.821 -1.6718  0.9061  0.4981
 7568TIP3   OH244194   0.853   5.446   2.991  0.9028 -0.6923  0.5386
 7568TIP3    H144195   0.770   5.419   3.030  0.4059 -0.8812 -0.6118
 7568TIP3    H244196   0.842   5.539   2.972  0.2293 -1.0953 -1.2874
 7569TIP3   OH244197   6.535   0.456  12.755 -0.0335  0.2961 -0.1911
 7569TIP3    H144198   6.610   0.515  12.759 -0.2071  0.4541  1.2684
 7569TIP3    H244199   6.540   0.416  12.668 -0.2638  2.9133 -1.4977
 7570TIP3   OH244200   6.413   5.370  12.866 -0.7873  0.2681  0.0926
 7570TIP3    H144201   6.390   5.278  12.883 -2.5317  0.4335 -1.0833
 7570TIP3    H244202   6.329   5.415  12.866  0.0054  1.7980  0.1371
 7571TIP3   OH244203   0.386   5.413   5.683  0.0387 -0.3752  0.2443
 7571TIP3    H144204   0.415   5.396   5.773 -0.2751 -0.1324  0.3938
 7571TIP3    H244205   0.361   5.327   5.648  0.9788 -0.5961  0.0967
 7572TIP3   OH244206   6.327   2.584   0.646 -0.1218  0.2761 -0.0184
 7572TIP3    H144207   6.420   2.563   0.653 -0.4349 -2.1166 -1.6802
 7572TIP3    H244208   6.296   2.589   0.737  1.4293  0.1444  0.5406
 7573TIP3   OH244209   3.112   4.430   0.831  0.3129 -0.3965 -0.2762
 7573TIP3    H144210   3.055   4.455   0.759 -1.0105 -0.3542  0.7412
 7573TIP3    H244211   3.195   4.407   0.790 -0.6227 -1.0379 -1.8632
 7574TIP3   OH244212   2.705   3.914   1.695  0.0373  0.3839  0.0715
 7574TIP3    H144213   2.705   4.007   1.674 -0.5994  0.1287 -1.1797
 7574TIP3    H244214   2.749   3.872   1.620  0.4086 -0.3081  0.6658
 7575TIP3   OH244215   0.707   1.530   1.222 -0.2377 -0.0109 -0.5423
 7575TIP3    H144216   0.702   1.556   1.314  0.5261 -1.4036 -0.0709
 7575TIP3    H244217   0.615   1.523   1.195 -0.4866  2.5663 -0.5784
 7576TIP3   OH244218   3.384   5.474  13.495  0.5328 -0.2627  0.0252
 7576TIP3    H144219   3.289   5.484  13.503  0.4547  0.1907 -1.2216
 7576TIP3    H244220   3.405   5.516  13.411  1.6463 -1.5578 -0.3699
 7577TIP3   OH244221   4.766   5.561   3.220 -0.8619  0.1554  0.0789
 7577TIP3    H144222   4.720   5.576   3.303  2.0251 -0.3883  1.9219
 7577TIP3    H244223   4.788   5.467   3.221  0.6037  0.4580 -0.4821
 7578TIP3   OH244224   3.424   0.962   3.650 -0.1140  0.2149 -0.7849
 7578TIP3    H144225   3.405   0.888   3.707  0.4116 -0.1426 -1.0643
 7578TIP3    H244226   3.457   0.922   3.569 -0.3695  0.7335 -1.1517
 7579TIP3   OH244227   4.226   1.983   6.610 -1.0817 -0.2810  0.4545
 7579TIP3    H144228   4.152   1.927   6.584 -1.8614  0.2067  1.5523
 7579TIP3    H244229   4.195   2.072   6.594 -0.4794 -0.0946  0.3129
 7580TIP3   OH244230   2.168   1.717   1.489 -0.5499  0.3428  0.1862
 7580TIP3    H144231   2.215   1.685   1.413 -0.9272  1.5272 -0.5823
 7580TIP3    H244232   2.225   1.698   1.563 -0.1705 -0.8084 -0.3848
 7581TIP3   OH244233   5.803   3.429  16.114 -0.2996 -0.5238  0.0322
 7581TIP3    H144234   5.732   3.379  16.155 -0.4536 -0.0571  0.3422
 7581TIP3    H244235   5.805   3.511  16.163 -1.5669  0.7416 -1.9136
 7582TIP3   OH244236   0.918   0.393  14.201  0.3027  0.5833  0.1307
 7582TIP3    H144237   0.862   0.358  14.271 -0.7383  1.4234 -0.2492
 7582TIP3    H244238   0.858   0.411  14.129  1.3388 -0.1136 -0.9449
 7583TIP3   OH244239   6.702   2.018   5.322  0.2119  0.1125 -0.3441
 7583TIP3    H144240   6.669   2.093   5.371 -1.4889 -0.7888 -0.0666
 7583TIP3    H244241   6.772   1.982   5.377  0.3407  0.8649 -0.0045
 7584TIP3   OH244242   0.239   5.913   4.310  0.3028 -0.2875  0.4669
 7584TIP3    H144243   0.236   5.925   4.215 -0.1975  0.3246  0.5475
 7584TIP3    H244244   0.164   5.856   4.329  0.6597 -0.7652  0.4501
 7585TIP3   OH244245   5.697   0.264  15.937  0.2674 -0.1517 -0.3777
 7585TIP3    H144246   5.620   0.314  15.909  0.4778  0.3222 -0.1263
 7585TIP3    H244247   5.771   0.319  15.914  0.4148  0.8307  2.1068
 7586TIP3   OH244248   0.499   0.850  11.953 -0.3791  0.2270 -0.1730
 7586TIP3    H144249   0.530   0.803  12.030  0.5948 -0.4960 -0.9821
 7586TIP3    H244250   0.518   0.791  11.879 -1.0667  0.9984 -0.9962
 7587TIP3   OH244251   3.025   4.420   3.151 -0.0480  0.3483 -0.0844
 7587TIP3    H144252   3.108   4.451   3.186  1.1069 -1.7583 -0.8443
 7587TIP3    H244253   2.989   4.364   3.220  1.2798 -2.2044 -1.3774
 7588TIP3   OH244254   4.501   1.613  12.660 -0.4118  0.7945  0.0067
 7588TIP3    H144255   4.405   1.617  12.671 -0.4396  0.8028 -0.2428
 7588TIP3    H244256   4.513   1.581  12.571 -0.1820  0.3257  0.2033
 7589TIP3   OH244257   1.836   5.767   2.429  0.0038 -0.2296  0.0757
 7589TIP3    H144258   1.932   5.766   2.424  0.1255  1.4269  1.2004
 7589TIP3    H244259   1.816   5.703   2.498  0.2859 -0.6554 -0.2315
 7590TIP3   OH244260   2.706   4.225   3.027  0.1895  0.3571  0.4521
 7590TIP3    H144261   2.720   4.307   3.074 -1.1086  0.6143  0.4325
 7590TIP3    H244262   2.695   4.251   2.936  0.3042  0.1065  0.3674
 7591TIP3   OH244263   6.518   2.931   6.622 -0.3553  0.6250  0.2361
 7591TIP3    H144264   6.455   2.996   6.594 -0.7056  0.1780 -0.0208
 7591TIP3    H244265   6.593   2.982   6.655 -0.3622  1.1472 -0.5478
 7592TIP3   OH244266   0.693   2.428   1.409 -0.3526  0.0037 -0.0610
 7592TIP3    H144267   0.611   2.402   1.366 -0.5091  1.8035 -0.9389
 7592TIP3    H244268   0.676   2.517   1.439  1.9950  1.3736 -2.3648
 7593TIP3   OH244269   4.321   4.198  16.643 -0.7237 -0.0258  0.1069
 7593TIP3    H144270   4.324   4.230  16.553 -1.2218 -0.0484  0.0806
 7593TIP3    H244271   4.234   4.160  16.652 -0.2279 -1.2047  0.1921
 7594TIP3   OH244272   2.818   3.657  13.046  0.3381  0.4131 -0.9280
 7594TIP3    H144273   2.850   3.619  12.964  0.3196  1.3094 -1.3600
 7594TIP3    H244274   2.803   3.582  13.103  0.2629 -0.2266 -1.7770
 7595TIP3   OH244275   6.134   3.777  14.951 -0.2333  0.2099 -0.1906
 7595TIP3    H144276   6.045   3.770  14.984 -0.6018  2.2053 -0.6412
 7595TIP3    H244277   6.178   3.835  15.014  0.1946  0.7707 -0.9977
 7596TIP3   OH244278   2.671   4.115  12.007 -0.2442 -0.1781 -0.2370
 7596TIP3    H144279   2.677   4.182  12.074  1.0002  0.6624 -1.1507
 7596TIP3    H244280   2.655   4.033  12.055 -5.0573  1.0610  0.7837
 7597TIP3   OH244281   1.142   5.488  16.533 -0.1574  0.2432  0.3447
 7597TIP3    H144282   1.217   5.443  16.570  1.6689  1.4737 -1.6132
 7597TIP3    H244283   1.124   5.442  16.451  0.4514  1.7421 -0.6849
 7598TIP3   OH244284   6.580   0.121   2.621 -0.4039  0.3030  0.1912
 7598TIP3    H144285   6.564   0.033   2.587  0.3116 -0.7253  2.3699
 7598TIP3    H244286   6.494   0.150   2.651 -0.2999 -0.5502  1.3920
 7599TIP3   OH244287   3.999   6.203  15.643  0.1775  0.3570  0.3896
 7599TIP3    H144288   3.914   6.232  15.677  0.8727  0.1962  2.4149
 7599TIP3    H244289   4.021   6.267  15.575 -1.4631  0.4959 -0.0581
 7600TIP3   OH244290   3.331   4.867  16.780 -0.5810 -0.2942 -0.4521
 7600TIP3    H144291   3.324   4.865  16.685 -0.9157  0.2758 -0.4434
 7600TIP3    H244292   3.405   4.810  16.800 -1.1557 -1.2531 -0.9800
 7601TIP3   OH244293   3.435   5.567   6.423  0.1619  0.3513  0.0291
 7601TIP3    H144294   3.426   5.637   6.488  0.3479 -0.6387  1.1718
 7601TIP3    H244295   3.524   5.534   6.437  0.2464  0.2088 -0.8275
 7602TIP3   OH244296   1.203   0.853  14.008 -0.3291 -0.0517 -0.4065
 7602TIP3    H144297   1.190   0.763  14.038  1.0840 -0.0260  0.3579
 7602TIP3    H244298   1.292   0.875  14.036 -1.0033  1.9475  0.3400
 7603TIP3   OH244299   6.804   0.015   0.014 -0.5136 -0.7191  0.4367
 7603TIP3    H144300   6.782  -0.060  -0.042  0.7900  0.1962 -1.4371
 7603TIP3    H244301   6.851  -0.022   0.088  0.8630 -1.7354 -0.8915
 7604TIP3   OH244302   2.096   4.256  16.222  0.0603 -0.3197 -0.0131
 7604TIP3    H144303   2.008   4.222  16.205 -1.1830  1.5548  2.1570
 7604TIP3    H244304   2.151   4.215  16.155 -2.7105 -0.3217 -2.4622
 7605TIP3   OH244305   3.582   1.917   1.854 -0.7147  0.2602 -0.4080
 7605TIP3    H144306   3.614   1.875   1.934 -0.2624 -0.1563 -0.7981
 7605TIP3    H244307   3.497   1.876   1.837  0.2027 -1.3405 -1.3916
 7606TIP3   OH244308   4.055   5.895   0.040  0.0434 -0.3209 -0.8310
 7606TIP3    H144309   4.029   5.982   0.069 -0.3758 -0.7201  0.0264
 7606TIP3    H244310   4.012   5.885  -0.045  0.1052  0.3071 -0.9448
 7607TIP3   OH244311   6.162   3.301   0.362 -0.9620 -0.4731  0.2367
 7607TIP3    H144312   6.220   3.329   0.434 -0.7929 -0.1195 -0.0341
 7607TIP3    H244313   6.191   3.213   0.340  1.7597  0.8819 -2.1814
 7608TIP3   OH244314   0.467   5.571  13.960 -0.1875 -0.1222  0.0143
 7608TIP3    H144315   0.376   5.569  13.930  0.0825  0.3091 -0.8584
 7608TIP3    H244316   0.515   5.517  13.897  0.2729  0.1907  0.0888
 7609TIP3   OH244317   0.677   2.334  16.214  0.3243  0.5568  0.5676
 7609TIP3    H144318   0.633   2.257  16.178  1.1516 -0.1505  1.0332
 7609TIP3    H244319   0.619   2.407  16.193 -0.0209 -0.0638 -0.7018
 7610TIP3   OH244320   1.832   0.600   0.850  0.2564  0.3133  0.0381
 7610TIP3    H144321   1.918   0.642   0.839  0.0872  0.2955 -1.5036
 7610TIP3    H244322   1.829   0.533   0.782  0.1878 -1.7135  1.9268
 7611TIP3   OH244323   1.022   1.463  14.272 -0.2014 -0.1690 -0.5703
 7611TIP3    H144324   1.046   1.554  14.258  0.0463 -0.1072  0.1906
 7611TIP3    H244325   1.095   1.413  14.236 -0.0500 -0.0466 -0.4366
 7612TIP3   OH244326   0.833   0.460  13.629  0.3633 -0.3639 -0.0249
 7612TIP3    H144327   0.831   0.477  13.723  0.7243 -0.3233 -0.0254
 7612TIP3    H244328   0.743   0.437  13.607  0.0115  0.8051  0.1168
 7613TIP3   OH244329   2.152   1.918   2.994  0.2246 -0.1003 -0.0439
 7613TIP3    H144330   2.107   1.996   2.962 -0.0857  1.3504  3.4563
 7613TIP3    H244331   2.245   1.939   2.984  0.1715  1.3086  1.8828
 7614TIP3   OH244332   3.945   3.286   3.868  0.2540  0.0672  0.4017
 7614TIP3    H144333   4.019   3.320   3.817 -0.1203  1.7959  0.9413
 7614TIP3    H244334   3.871   3.338   3.839 -0.6336 -1.1617  0.3861
 7615TIP3   OH244335   0.913   2.240   1.078  0.3267  0.4308  0.5359
 7615TIP3    H144336   0.889   2.162   1.030  1.5075 -0.8264  1.8939
 7615TIP3    H244337   0.913   2.213   1.170  0.6821  2.0410  1.0501
 7616TIP3   OH244338   0.799   1.485   2.319  0.4716  0.3549 -0.0246
 7616TIP3    H144339   0.724   1.532   2.356  0.4626 -1.1880  2.1209
 7616TIP3    H244340   0.874   1.517   2.368  1.0102  0.7548 -1.0865
 7617TIP3   OH244341   3.798   2.367   5.382  0.3295 -0.0615 -0.3724
 7617TIP3    H144342   3.828   2.437   5.440 -1.3547  0.8052 -0.4749
 7617TIP3    H244343   3.859   2.295   5.397  0.9591  0.7497  1.1684
 7618TIP3   OH244344   0.001   1.309  15.809  0.1780 -0.1031  0.3061
 7618TIP3    H144345   0.036   1.244  15.748  0.6843  1.0902 -0.7158
 7618TIP3    H244346  -0.077   1.343  15.765 -0.1176 -0.0536  0.8628
 7619TIP3   OH244347   2.711   2.604  13.764  0.7879 -0.4048 -0.4463
 7619TIP3    H144348   2.785   2.545  13.780  0.1246 -1.0999  0.1750
 7619TIP3    H244349   2.698   2.649  13.848 -1.4203 -2.5618  0.4921
 7620TIP3   OH244350   6.150   5.925  13.553  0.4348  0.1540 -0.5819
 7620TIP3    H144351   6.160   6.019  13.564  3.2470 -0.1624  0.4420
 7620TIP3    H244352   6.132   5.891  13.640 -0.7287 -0.2758 -0.9672
 7621TIP3   OH244353   4.560   3.162   6.437  0.7520 -0.5846  0.3322
 7621TIP3    H144354   4.634   3.110   6.405  1.6378  1.1561 -0.5667
 7621TIP3    H244355   4.598   3.248   6.457 -1.2619  0.9196 -1.7865
 7622TIP3   OH244356   2.935   5.522  15.043  0.2389  0.1126 -1.4144
 7622TIP3    H144357   2.987   5.463  14.988 -0.7123 -2.4488  0.2325
 7622TIP3    H244358   2.845   5.512  15.010  0.0838  0.8243 -1.2370
 7623TIP3   OH244359   3.095   4.796  16.915  0.1986 -0.4008  0.0298
 7623TIP3    H144360   3.120   4.803  17.007 -0.4926 -0.6216  0.2440
 7623TIP3    H244361   3.174   4.818  16.866  0.5415 -0.1758  0.6780
 7624TIP3   OH244362   1.010   2.259   0.789 -0.1916 -0.2418 -0.1674
 7624TIP3    H144363   0.966   2.199   0.849 -0.7991 -0.3189 -0.6799
 7624TIP3    H244364   0.951   2.266   0.714  1.3202 -1.5135 -1.5498
 7625TIP3   OH244365   4.320   1.587   2.303 -0.2476 -0.0860 -0.1303
 7625TIP3    H144366   4.327   1.547   2.389  3.4997 -2.8153 -1.4308
 7625TIP3    H244367   4.253   1.536   2.257 -0.6159 -0.1296  0.4568
 7626TIP3   OH244368   4.766   1.409  15.442  0.0276 -0.1023 -0.4064
 7626TIP3    H144369   4.856   1.423  15.413  0.8462  1.4960  2.4614
 7626TIP3    H244370   4.729   1.497  15.452 -0.1508 -0.4048  2.9614
 7627TIP3   OH244371   1.060   6.420   3.014 -0.2920 -0.4541 -0.1676
 7627TIP3    H144372   1.078   6.366   2.937  0.8909 -0.5292  0.1414
 7627TIP3    H244373   0.996   6.484   2.984  0.6119 -0.0942 -1.3961
 7628TIP3   OH244374   0.221   3.196  12.941  0.1187 -0.1465  0.1084
 7628TIP3    H144375   0.261   3.281  12.959  0.8258 -0.4224 -0.1245
 7628TIP3    H244376   0.189   3.203  12.851  1.1745 -0.4925 -0.3071
 7629TIP3   OH244377   6.688   5.712  13.137 -0.2517 -0.5476 -0.5019
 7629TIP3    H144378   6.752   5.783  13.146 -1.2593  0.2282  1.0800
 7629TIP3    H244379   6.644   5.729  13.054  0.1130  0.1676 -0.5590
 7630TIP3   OH244380   0.649   0.899   1.967 -0.1903 -0.6297 -0.2333
 7630TIP3    H144381   0.734   0.855   1.974  0.9195  1.3630 -0.2503
 7630TIP3    H244382   0.638   0.943   2.052  0.4640  1.8190 -1.3054
 7631TIP3   OH244383   5.102   3.011  16.545 -0.4816  0.1368 -0.2200
 7631TIP3    H144384   5.157   2.973  16.613  0.5616  2.6768  0.4697
 7631TIP3    H244385   5.117   2.955  16.468 -0.5630 -1.9186  1.1817
 7632TIP3   OH244386   2.173   3.309  14.703  0.3851  0.2562  0.5053
 7632TIP3    H144387   2.238   3.364  14.747  0.6111 -0.0200  0.5200
 7632TIP3    H244388   2.106   3.370  14.673  1.2613  0.7043 -0.5950
 7633TIP3   OH244389   0.694   2.285  11.173  0.0551  0.0864  0.0790
 7633TIP3    H144390   0.722   2.293  11.082 -0.4738 -3.1189 -0.4833
 7633TIP3    H244391   0.612   2.335  11.177 -0.3128 -0.3413 -1.4387
 7634TIP3   OH244392   5.721   0.600  11.557 -0.4019  0.1719 -0.0107
 7634TIP3    H144393   5.696   0.508  11.559 -0.3615  0.1306 -0.9491
 7634TIP3    H244394   5.814   0.599  11.533 -1.2467  0.5270 -3.8997
 7635TIP3   OH244395   3.652   4.206  11.646 -0.3219  0.0299 -0.2913
 7635TIP3    H144396   3.628   4.283  11.596  0.8547  0.8836  0.4306
 7635TIP3    H244397   3.747   4.207  11.651 -0.3663  0.8599  3.1955
 7636TIP3   OH244398   2.453   0.307  16.015  0.3162  0.2360  0.3846
 7636TIP3    H144399   2.402   0.387  16.001  0.3905  0.2864  0.4020
 7636TIP3    H244400   2.483   0.282  15.927 -1.0364 -0.6649  0.1316
 7637TIP3   OH244401   4.297   2.084  17.007 -0.0294 -0.3903 -0.7892
 7637TIP3    H144402   4.215   2.042  17.033 -0.5460  1.3718  0.6369
 7637TIP3    H244403   4.327   2.129  17.086  1.2061  0.7371 -1.8579
 7638TIP3   OH244404   0.890   2.182  12.243  0.7647 -0.1205 -0.2984
 7638TIP3    H144405   0.952   2.255  12.240 -1.3568  1.7512 -1.5149
 7638TIP3    H244406   0.852   2.178  12.155 -0.7493 -1.2906  0.3496
 7639TIP3   OH244407   3.472   3.936  10.621  0.1687 -0.5393 -0.0384
 7639TIP3    H144408   3.378   3.943  10.602 -0.3554 -1.0933  2.0390
 7639TIP3    H244409   3.514   3.994  10.558 -1.4998 -0.7897 -1.4629
 7640TIP3   OH244410   2.210   2.612  14.639  0.0802  0.2821 -0.0278
 7640TIP3    H144411   2.210   2.697  14.595  0.6795  0.2376 -0.1241
 7640TIP3    H244412   2.139   2.618  14.702  0.0131  0.7979 -0.1462
 7641TIP3   OH244413   6.826   1.670  13.270  0.2523  0.0435  0.1159
 7641TIP3    H144414   6.915   1.650  13.301  0.2965 -0.3194 -0.2438
 7641TIP3    H244415   6.770   1.650  13.344  0.2608 -1.6905 -0.2998
 7642TIP3   OH244416   2.183   3.899   4.104  0.5730 -0.0532  0.0890
 7642TIP3    H144417   2.273   3.932   4.111  0.9741 -0.6837 -1.6137
 7642TIP3    H244418   2.179   3.829   4.169  2.1579 -1.6979 -1.4729
 7643TIP3   OH244419   6.099   3.060  16.947  1.0794 -0.4567  0.4410
 7643TIP3    H144420   6.024   3.094  16.899  1.9437  0.0033 -0.6499
 7643TIP3    H244421   6.175   3.088  16.895  2.0666  0.0531  2.0877
 7644TIP3   OH244422   6.814   0.569   3.163  0.5101 -0.1738 -0.1326
 7644TIP3    H144423   6.817   0.475   3.184  1.2390 -0.6921 -2.2660
 7644TIP3    H244424   6.888   0.582   3.102  0.4893  1.8194  0.2033
 7645TIP3   OH244425   6.466   3.187  12.938  0.3289 -0.1651 -0.3390
 7645TIP3    H144426   6.447   3.222  12.852  0.3472  0.8662  0.0646
 7645TIP3    H244427   6.447   3.093  12.931  0.1177 -0.0498 -1.3876
 7646TIP3   OH244428   2.173   0.900  12.479  0.7088 -0.3755  0.1365
 7646TIP3    H144429   2.195   0.837  12.410  1.4143 -0.7174  0.6594
 7646TIP3    H244430   2.251   0.954  12.488  0.2322  0.3566 -0.0638
 7647TIP3   OH244431   3.619   2.768   4.617 -0.1305  0.3512  0.9284
 7647TIP3    H144432   3.650   2.717   4.542 -0.2689  2.0224 -0.3189
 7647TIP3    H244433   3.523   2.766   4.610 -0.1472  0.4183  1.1232
 7648TIP3   OH244434   2.758   4.498   3.116 -0.1996 -0.1459  0.0297
 7648TIP3    H144435   2.844   4.482   3.154 -0.1898  2.8404  1.5964
 7648TIP3    H244436   2.711   4.548   3.183 -2.8148 -0.7783 -1.1926
 7649TIP3   OH244437   1.585   4.298  15.933 -0.6045  0.4511  0.1429
 7649TIP3    H144438   1.567   4.220  15.985 -0.2809 -0.6860 -1.4134
 7649TIP3    H244439   1.679   4.311  15.941 -0.1418 -1.1071 -1.9535
 7650TIP3   OH244440   3.305   4.664  15.657 -0.7606  0.7991  0.6638
 7650TIP3    H144441   3.305   4.746  15.608  0.2339 -0.2603 -1.2110
 7650TIP3    H244442   3.390   4.661  15.699 -0.9289  0.8725  1.0151
 7651TIP3   OH244443   4.123   4.145   0.134 -0.5174  0.0766 -0.0225
 7651TIP3    H144444   4.171   4.217   0.175  3.7962 -2.8485  0.8124
 7651TIP3    H244445   4.100   4.177   0.047  1.1698  2.5270  0.3391
 7652TIP3   OH244446   6.397   6.411  11.202  0.2227 -0.1661  0.1050
 7652TIP3    H144447   6.384   6.429  11.295  3.1450  0.9647  0.4004
 7652TIP3    H244448   6.446   6.329  11.200 -2.0812 -1.6105 -0.6442
 7653TIP3   OH244449   0.589   5.734  15.240  0.0129 -0.2074 -0.7142
 7653TIP3    H144450   0.541   5.775  15.312 -3.2278 -1.2178 -2.1209
 7653TIP3    H244451   0.603   5.805  15.178  0.9809  0.2225 -0.0383
 7654TIP3   OH244452   1.978   0.275  15.761 -0.1371 -0.2219 -0.3756
 7654TIP3    H144453   1.885   0.297  15.758 -0.6318 -2.1746 -0.7857
 7654TIP3    H244454   2.019   0.335  15.698 -1.1022  0.6208 -0.2324
 7655TIP3   OH244455   1.005   0.193   0.554 -0.1307  0.3879  0.0839
 7655TIP3    H144456   0.955   0.112   0.539  1.3871 -0.7307  0.8162
 7655TIP3    H244457   1.026   0.192   0.647 -2.4477  3.0995  0.7711
 7656TIP3   OH244458   2.773   0.455   4.383  0.1715  0.4813 -0.4386
 7656TIP3    H144459   2.814   0.399   4.449 -2.2677 -0.2648  0.5505
 7656TIP3    H244460   2.739   0.529   4.432  1.9213  2.1070 -1.5155
 7657TIP3   OH244461   0.660   4.397   3.064  0.2203  0.0005 -0.8896
 7657TIP3    H144462   0.727   4.330   3.069  0.5747  0.3477 -0.9659
 7657TIP3    H244463   0.620   4.384   2.978  0.8117  0.3815 -1.2273
 7658TIP3   OH244464   3.700   0.574  13.700 -0.5150  0.1098  0.2853
 7658TIP3    H144465   3.767   0.598  13.636 -1.7038  2.3302 -0.2539
 7658TIP3    H244466   3.650   0.504  13.659  0.2722 -0.2104 -0.1345
 7659TIP3   OH244467   1.169   2.439  14.054 -0.5778  0.0642 -0.4476
 7659TIP3    H144468   1.116   2.387  14.115  2.1919 -0.4728  1.6940
 7659TIP3    H244469   1.197   2.377  13.987  0.0270 -0.4550  0.2731
 7660TIP3   OH244470   2.205   0.810  15.949 -0.4152  0.1082 -0.0919
 7660TIP3    H144471   2.184   0.751  16.021 -0.7866  1.0977  0.6187
 7660TIP3    H244472   2.129   0.806  15.891  0.1392 -1.1596 -0.7727
 7661TIP3   OH244473   6.280   3.052  12.119 -0.1526 -0.0943  0.2433
 7661TIP3    H144474   6.324   3.044  12.034  0.5654  0.3938  0.5571
 7661TIP3    H244475   6.245   2.965  12.136 -0.3627 -0.1785 -0.5821
 7662TIP3   OH244476   3.165   1.456  11.321  0.5497 -0.1556 -0.6852
 7662TIP3    H144477   3.127   1.370  11.305  0.9186 -0.3077 -0.7736
 7662TIP3    H244478   3.242   1.459  11.264 -0.3791  0.8985 -1.9480
 7663TIP3   OH244479   6.292   5.901  12.143 -0.3232  0.0423 -0.1403
 7663TIP3    H144480   6.365   5.901  12.081 -0.0089 -1.1412  0.1967
 7663TIP3    H244481   6.333   5.914  12.228 -0.6491  0.6920 -0.0814
 7664TIP3   OH244482   2.522   2.351  12.231 -0.4981  0.2043  0.5710
 7664TIP3    H144483   2.524   2.279  12.293 -1.2862 -1.0285 -0.7750
 7664TIP3    H244484   2.464   2.416  12.270 -0.7198 -0.4078  1.2648
 7665TIP3   OH244485   3.472   2.610   5.386 -0.4529  0.1440 -0.3209
 7665TIP3    H144486   3.392   2.662   5.386 -0.5867 -0.0612 -0.3840
 7665TIP3    H244487   3.518   2.637   5.306 -0.0531  0.8768  0.1389
 7666TIP3   OH244488   1.936   3.195   4.377 -0.0520 -0.1171  0.0220
 7666TIP3    H144489   1.962   3.118   4.326 -1.5926 -1.6837  1.4657
 7666TIP3    H244490   1.968   3.176   4.465 -3.5370 -0.9282  1.2632
 7667TIP3   OH244491   6.389   0.960  13.861  0.4207 -0.3236  0.3086
 7667TIP3    H144492   6.472   0.940  13.904  0.7738  1.2612  0.4375
 7667TIP3    H244493   6.414   0.975  13.769 -0.2206 -2.9794 -0.3747
 7668TIP3   OH244494   3.310   5.197  11.361 -0.5745  0.0811  0.6220
 7668TIP3    H144495   3.284   5.206  11.452 -1.0115 -1.0346  0.6127
 7668TIP3    H244496   3.364   5.118  11.358 -1.3433 -0.4356 -0.2385
 7669TIP3   OH244497   4.762   6.334  13.313  0.1320  0.2556 -0.6433
 7669TIP3    H144498   4.700   6.264  13.331  0.2418  0.3989  0.3674
 7669TIP3    H244499   4.831   6.292  13.260  0.3228 -0.4674  0.1538
 7670TIP3   OH244500   5.331   6.093   5.455  0.8430 -0.1124 -0.1729
 7670TIP3    H144501   5.245   6.058   5.433  0.9909  0.3669 -1.5725
 7670TIP3    H244502   5.350   6.055   5.541 -0.5451 -0.6075 -0.0533
 7671TIP3   OH244503   3.826   4.162  13.154 -0.0708 -0.5304  0.8848
 7671TIP3    H144504   3.873   4.180  13.235  0.4136 -1.4278  0.8153
 7671TIP3    H244505   3.742   4.207  13.164  0.8849  1.3649  0.8932
 7672TIP3   OH244506   4.362   6.484   2.107  0.0667  0.3495 -0.1167
 7672TIP3    H144507   4.347   6.484   2.202 -1.5106 -1.5090 -0.2946
 7672TIP3    H244508   4.375   6.576   2.085  0.4602  0.8277  1.8993
 7673TIP3   OH244509   4.125   1.461  13.926  0.6757 -0.5842 -0.0557
 7673TIP3    H144510   4.128   1.547  13.968  0.8390 -0.4777 -0.2837
 7673TIP3    H244511   4.061   1.412  13.977 -1.1899  0.4138 -1.3371
 7674TIP3   OH244512   3.686   6.212  16.947 -0.1989 -0.0117  0.0773
 7674TIP3    H144513   3.774   6.199  16.909 -0.8463 -0.3082 -1.4053
 7674TIP3    H244514   3.627   6.176  16.881 -1.4075 -0.6730  1.4837
 7675TIP3   OH244515   2.516   0.668   4.011 -0.1503 -0.1050  0.3570
 7675TIP3    H144516   2.424   0.691   4.022 -0.6108 -2.3628  1.9632
 7675TIP3    H244517   2.564   0.736   4.058 -1.0391  0.5776  0.2926
 7676TIP3   OH244518   0.006   5.667   6.082  0.1057 -0.2875  0.3707
 7676TIP3    H144519  -0.046   5.714   6.017  1.6582  2.3295  0.8231
 7676TIP3    H244520  -0.057   5.632   6.144 -1.2345  0.2373 -0.6600
 7677TIP3   OH244521   1.670   1.201   6.050 -0.2276 -0.2642  0.2453
 7677TIP3    H144522   1.688   1.238   6.137  0.5943 -0.3596  0.1286
 7677TIP3    H244523   1.581   1.228   6.030 -0.4001 -0.1740  1.0899
 7678TIP3   OH244524   0.188   6.081   2.769 -0.0764  0.0633  0.0299
 7678TIP3    H144525   0.098   6.084   2.800 -0.2596 -0.0769 -0.4786
 7678TIP3    H244526   0.236   6.140   2.828 -0.3512 -0.4472  0.7694
 7679TIP3   OH244527   1.363   0.780   2.088  0.6835  0.1859 -0.3451
 7679TIP3    H144528   1.415   0.837   2.031  1.1968  0.4473  0.3774
 7679TIP3    H244529   1.297   0.742   2.029  1.2624  0.3695 -1.1299
 7680TIP3   OH244530   0.957   2.024   1.485  0.0005  0.1130  0.3511
 7680TIP3    H144531   0.988   1.980   1.565  2.0320  1.4817  0.3931
 7680TIP3    H244532   1.031   2.018   1.424  0.0546  2.6219  0.0548
 7681TIP3   OH244533   2.756   2.955  15.653  0.4713 -0.0701 -0.5334
 7681TIP3    H144534   2.807   2.903  15.714 -1.8807 -0.6100  1.1010
 7681TIP3    H244535   2.818   3.021  15.620  2.6651 -1.8461 -0.1970
 7682TIP3   OH244536   0.463   3.455  14.420 -0.2553  0.0148 -0.1127
 7682TIP3    H144537   0.382   3.490  14.457 -0.9471 -0.2415 -1.3246
 7682TIP3    H244538   0.520   3.531  14.411 -0.7220  0.3681 -0.1313
 7683TIP3   OH244539   5.085   2.359   6.698  0.3748 -0.2826 -0.0060
 7683TIP3    H144540   5.015   2.402   6.746  1.1570  2.2953 -1.0235
 7683TIP3    H244541   5.164   2.373   6.750  0.9704  1.2696 -1.2412
 7684TIP3   OH244542   6.367   1.206  10.054 -0.2083  0.5161 -0.6186
 7684TIP3    H144543   6.457   1.211  10.088 -0.1290  0.6698 -0.8462
 7684TIP3    H244544   6.334   1.295  10.060 -0.8429  0.2123  0.7746
 7685TIP3   OH244545   0.043   0.456   1.639 -0.1285 -0.2790  0.0585
 7685TIP3    H144546   0.091   0.532   1.605 -0.5276 -0.1753 -0.2828
 7685TIP3    H244547   0.111   0.394   1.665  0.1774 -0.4401 -1.1095
 7686TIP3   OH244548   2.940   5.480  16.389  0.1100 -0.2762  0.4863
 7686TIP3    H144549   2.923   5.534  16.466  0.2834  1.1154 -0.4144
 7686TIP3    H244550   2.875   5.508  16.325  2.0137  1.0109 -1.0202
 7687TIP3   OH244551   6.684   5.920   0.029 -0.7030  0.1768  0.3912
 7687TIP3    H144552   6.679   6.011   0.056  0.2750  0.5999 -0.8040
 7687TIP3    H244553   6.612   5.909  -0.033 -0.4121  0.3050  0.0347
 7688TIP3   OH244554   1.879   6.309  14.785 -0.0839 -0.0900  0.2640
 7688TIP3    H144555   1.854   6.270  14.701 -2.3297 -2.1573  1.7534
 7688TIP3    H244556   1.949   6.252  14.818 -1.1118 -0.9800  0.9767
 7689TIP3   OH244557   6.026   5.761   4.202 -0.0738  0.1112  0.6451
 7689TIP3    H144558   6.115   5.792   4.183 -0.0595 -0.7766 -0.9170
 7689TIP3    H244559   6.032   5.722   4.289  1.4864 -1.3859 -0.0732
 7690TIP3   OH244560   0.547   1.821  14.908  0.3358  0.1423 -0.2953
 7690TIP3    H144561   0.635   1.821  14.944  0.2546  0.9262 -0.0771
 7690TIP3    H244562   0.491   1.845  14.982 -0.0857 -0.5549 -0.3795
 7691TIP3   OH244563   5.268   0.631   2.411 -0.2279  0.2771  0.2590
 7691TIP3    H144564   5.358   0.597   2.412  0.8862  2.8732  1.8899
 7691TIP3    H244565   5.272   0.706   2.351 -1.0739  0.9077  0.9651
 7692TIP3   OH244566   3.417   4.146   5.048 -0.3677 -0.0739 -0.0260
 7692TIP3    H144567   3.426   4.239   5.026 -1.8224  0.2832  0.7571
 7692TIP3    H244568   3.329   4.139   5.086  0.6563 -1.3027  2.3076
 7693TIP3   OH244569   2.238   0.474  12.301  0.1724  0.8004 -0.2594
 7693TIP3    H144570   2.287   0.509  12.376  0.7164  0.5543 -0.4889
 7693TIP3    H244571   2.305   0.430  12.248 -0.5808 -1.1800  0.3560
 7694TIP3   OH244572   4.974   5.981  14.835 -0.0024 -0.2837  0.3212
 7694TIP3    H144573   4.920   6.057  14.858 -1.0539 -0.8182 -0.2849
 7694TIP3    H244574   5.042   6.016  14.777 -1.0536  0.0714 -0.7375
 7695TIP3   OH244575   3.050   5.116   6.119  0.1737 -0.5583 -0.1185
 7695TIP3    H144576   3.065   5.023   6.102 -1.2697 -0.9724  0.6804
 7695TIP3    H244577   3.035   5.120   6.214  1.6272  0.7099  0.0920
 7696TIP3   OH244578   1.373   2.949   0.935 -0.2588  0.1491 -0.0675
 7696TIP3    H144579   1.283   2.983   0.940 -0.2416  0.0574  0.9274
 7696TIP3    H244580   1.389   2.939   0.841 -1.4245 -0.1999 -0.2436
 7697TIP3   OH244581   2.617   2.172  16.164  0.6739  0.3688  0.8230
 7697TIP3    H144582   2.616   2.078  16.180  0.7459  0.2617  0.2455
 7697TIP3    H244583   2.536   2.205  16.203  0.0456 -0.1242 -0.0337
 7698TIP3   OH244584   1.595   3.083   2.486  0.0535 -0.1034 -0.4077
 7698TIP3    H144585   1.586   3.027   2.409  1.4703  1.8466 -2.1266
 7698TIP3    H244586   1.689   3.079   2.508 -0.2596 -0.3043  0.9935
 7699TIP3   OH244587   0.939   3.683  11.893  0.1835 -0.2148 -0.8164
 7699TIP3    H144588   0.904   3.670  11.805 -0.9420 -1.7633 -0.1855
 7699TIP3    H244589   0.991   3.604  11.910 -1.1249 -0.8337  0.5583
 7700TIP3   OH244590   4.700   6.444  13.978 -0.2424  0.8764 -0.1380
 7700TIP3    H144591   4.753   6.383  14.029 -0.1179  0.2219 -1.0232
 7700TIP3    H244592   4.762   6.508  13.945 -0.2191  0.9048 -0.0404
 7701TIP3   OH244593   3.164   5.597  16.813  0.5863  0.1840  0.5226
 7701TIP3    H144594   3.257   5.617  16.826  0.8339 -1.0511  0.8132
 7701TIP3    H244595   3.163   5.536  16.739  0.2554 -1.5576  1.8881
 7702TIP3   OH244596   6.204   5.557   1.001  0.2708  0.4631 -0.2343
 7702TIP3    H144597   6.134   5.553   0.936 -1.9475  0.7509  1.9638
 7702TIP3    H244598   6.210   5.649   1.024  0.6957  0.3082  0.2817
 7703TIP3   OH244599   3.838   5.934  14.316 -0.3329  0.2206 -0.1361
 7703TIP3    H144600   3.750   5.903  14.334 -0.1069 -0.0802  0.4785
 7703TIP3    H244601   3.826   6.026  14.291 -0.8668  0.0341 -0.5727
 7704TIP3   OH244602   6.059   4.267  12.035 -0.1495  0.1548  0.0723
 7704TIP3    H144603   6.024   4.179  12.048  4.3515 -1.8603  0.6356
 7704TIP3    H244604   6.086   4.269  11.943 -1.3685  1.5222 -0.2948
 7705TIP3   OH244605   1.116   5.605  14.337 -0.6719 -0.3265 -0.7549
 7705TIP3    H144606   1.204   5.628  14.308 -0.3967  0.4999  0.6159
 7705TIP3    H244607   1.065   5.599  14.257  0.0822  1.6384 -1.4425
 7706TIP3   OH244608   3.804   5.438   3.930  0.3226  0.2610  0.5978
 7706TIP3    H144609   3.722   5.408   3.892 -0.3870  1.8930  0.7550
 7706TIP3    H244610   3.853   5.474   3.855  0.5464  0.0380  0.6353
 7707TIP3   OH244611   3.166   1.305  14.322  0.2352 -0.0428 -0.2949
 7707TIP3    H144612   3.079   1.338  14.344 -0.4044 -0.9849 -1.3294
 7707TIP3    H244613   3.171   1.219  14.362  0.0512 -0.6697 -1.5559
 7708TIP3   OH244614   3.477   6.188  11.899  0.2351  0.0493  0.0620
 7708TIP3    H144615   3.459   6.253  11.968  0.7575  0.5929 -0.3048
 7708TIP3    H244616   3.391   6.171  11.860 -0.8810 -3.2617  3.3623
 7709TIP3   OH244617   2.380   2.155   5.752 -0.6384  0.3745  0.0545
 7709TIP3    H144618   2.388   2.110   5.836 -1.1732  1.1520  0.5393
 7709TIP3    H244619   2.396   2.087   5.687  0.2388 -0.1400  0.7866
 7710TIP3   OH244620   3.150   6.769  11.333  0.6030 -0.4757 -0.6519
 7710TIP3    H144621   3.195   6.839  11.285 -0.4830 -0.1171 -1.1789
 7710TIP3    H244622   3.102   6.814  11.402 -1.5278 -0.4342 -2.0559
 7711TIP3   OH244623   4.387   6.171  13.925  0.2656  0.0244  0.0339
 7711TIP3    H144624   4.443   6.138  13.856 -0.4473 -1.1387 -0.0178
 7711TIP3    H244625   4.433   6.150  14.006 -0.6281 -2.1449  0.0584
 7712TIP3   OH244626   6.291   1.669   2.261 -0.1895 -0.4975 -0.0932
 7712TIP3    H144627   6.260   1.669   2.351  1.1298 -0.4421  0.3892
 7712TIP3    H244628   6.381   1.701   2.267  0.3157 -1.6083 -1.2841
 7713TIP3   OH244629   0.146   2.683   4.507  0.1304 -0.0982  0.7308
 7713TIP3    H144630   0.105   2.677   4.593  0.8799  0.4897  1.1493
 7713TIP3    H244631   0.179   2.773   4.503 -2.9299  1.0645 -1.5995
 7714TIP3   OH244632   4.959   3.486  15.827 -0.2638  0.4418 -0.1614
 7714TIP3    H144633   4.864   3.486  15.839 -0.4492 -0.8369 -1.3026
 7714TIP3    H244634   4.980   3.395  15.806  1.1868  0.7559 -0.1767
 7715TIP3   OH244635   2.074   4.969  12.201  0.2510 -0.0939 -0.2935
 7715TIP3    H144636   2.117   4.965  12.116  1.3168 -0.0616  0.2247
 7715TIP3    H244637   2.070   4.878  12.231 -1.8555 -0.3438 -1.1844
 7716TIP3   OH244638   6.272   2.386  12.811  0.7032  0.4368 -0.1174
 7716TIP3    H144639   6.352   2.435  12.789  1.6371 -1.1834 -0.5072
 7716TIP3    H244640   6.300   2.295  12.816 -0.7349  0.0437  1.8510
 7717TIP3   OH244641   3.059   0.324   1.830 -0.0358 -0.1193  0.5169
 7717TIP3    H144642   3.093   0.347   1.744  0.0059 -0.4048  0.4570
 7717TIP3    H244643   2.998   0.395   1.851  0.6745  0.4619  0.6760
 7718TIP3   OH244644   6.295   5.243   3.815 -0.2841  0.9880  0.3152
 7718TIP3    H144645   6.283   5.174   3.880 -0.4382  0.4427 -0.2782
 7718TIP3    H244646   6.209   5.252   3.774  0.2855 -0.1315 -1.2207
 7719TIP3   OH244647   5.756   5.078   0.872  0.1398 -0.2576 -0.1644
 7719TIP3    H144648   5.795   5.153   0.917 -2.2944 -0.2785  2.2588
 7719TIP3    H244649   5.786   5.002   0.923 -0.4180 -0.5546 -0.2716
 7720TIP3   OH244650   2.295   5.737  15.029  0.3678  0.7085 -0.4423
 7720TIP3    H144651   2.262   5.822  15.001 -0.3805  0.6375  0.2126
 7720TIP3    H244652   2.236   5.674  14.989 -0.5138  0.5929  0.9876
 7721TIP3   OH244653   3.737   6.398   2.171  0.2056  0.6617 -0.3996
 7721TIP3    H144654   3.651   6.440   2.161  0.2078  0.3637 -2.0071
 7721TIP3    H244655   3.800   6.464   2.142  0.9490  2.1378  3.8443
 7722TIP3   OH244656   2.810   6.552  14.258  0.2534 -0.3593 -0.0831
 7722TIP3    H144657   2.905   6.551  14.247  0.4284  0.1985  1.2147
 7722TIP3    H244658   2.782   6.464  14.235  0.7748  0.0778 -2.7422
 7723TIP3   OH244659   4.878   0.837  16.875 -0.3502 -0.2936 -0.1656
 7723TIP3    H144660   4.833   0.780  16.937 -3.0862 -0.7923 -2.4022
 7723TIP3    H244661   4.942   0.885  16.928 -1.1937 -2.0249  2.6224
 7724TIP3   OH244662   0.770   4.830   0.166 -0.2735  0.3106 -0.2500
 7724TIP3    H144663   0.744   4.764   0.230  0.3535  0.7956  0.5183
 7724TIP3    H244664   0.708   4.819   0.094  0.2444 -1.5786 -0.4613
 7725TIP3   OH244665   2.403   1.445  10.200 -0.0815  0.0807 -0.4202
 7725TIP3    H144666   2.462   1.488  10.138  1.4074 -1.2747  0.0045
 7725TIP3    H244667   2.434   1.472  10.286 -1.3155  0.8893 -0.2052
 7726TIP3   OH244668   0.583   2.610  16.348  0.2433  0.3666  0.3513
 7726TIP3    H144669   0.494   2.608  16.313  0.5658 -2.5509 -0.6431
 7726TIP3    H244670   0.571   2.615  16.443 -1.1745 -2.0152  0.4062
 7727TIP3   OH244671   5.318   0.355  11.042  0.3040 -0.5196  0.0820
 7727TIP3    H144672   5.289   0.397  10.962 -1.5425 -1.3117  0.2875
 7727TIP3    H244673   5.287   0.412  11.112  3.3546  1.0626  0.2909
 7728TIP3   OH244674   3.128   2.265   5.800 -0.3021  0.3405 -0.3404
 7728TIP3    H144675   3.189   2.279   5.874 -1.2474  0.2336  0.4779
 7728TIP3    H244676   3.185   2.264   5.723  0.6911  0.6983  0.3563
 7729TIP3   OH244677   3.094   6.315   5.017  0.0295  0.0969  0.3970
 7729TIP3    H144678   3.157   6.249   5.045 -0.7159 -0.1746  1.4895
 7729TIP3    H244679   3.109   6.324   4.923 -0.0843 -1.9182  0.1394
 7730TIP3   OH244680   1.977   3.919   1.936  0.4451  0.4458 -0.1437
 7730TIP3    H144681   2.060   3.916   1.890  0.5961 -0.3154  0.1649
 7730TIP3    H244682   1.994   3.878   2.020 -0.9111 -2.5822 -1.1776
 7731TIP3   OH244683   2.627   5.567  15.284 -0.2203 -0.5834  0.1212
 7731TIP3    H144684   2.566   5.527  15.346  1.2394 -2.6379  0.3510
 7731TIP3    H244685   2.633   5.659  15.310 -0.8345 -1.0594  2.0442
 7732TIP3   OH244686   0.943   2.902  10.095 -0.1043  0.3049  0.2473
 7732TIP3    H144687   0.991   2.821  10.107 -1.5832 -0.4710  1.2362
 7732TIP3    H244688   0.975   2.960  10.164 -0.8046 -0.3284  1.1230
 7733TIP3   OH244689   3.101   0.282   0.270  0.2537  0.3488 -0.0787
 7733TIP3    H144690   3.137   0.193   0.271  1.6715  0.8345 -1.8479
 7733TIP3    H244691   3.169   0.336   0.309  0.1789  0.9060 -0.7117
 7734TIP3   OH244692   0.463   1.442  15.655 -0.2962  0.7156  0.3314
 7734TIP3    H144693   0.475   1.377  15.586  1.2569  2.1907 -0.8799
 7734TIP3    H244694   0.476   1.393  15.736  0.2928 -0.6002 -0.5171
 7735TIP3   OH244695   1.877   2.440   4.986  0.2324  0.5324  0.4833
 7735TIP3    H144696   1.880   2.398   4.899 -1.4944  0.1436  0.5586
 7735TIP3    H244697   1.815   2.513   4.974  0.8384  1.1583  1.1257
 7736TIP3   OH244698   0.670   4.235  11.043 -0.1530 -0.3840 -0.4993
 7736TIP3    H144699   0.743   4.214  10.986 -0.3771  1.3262 -1.4975
 7736TIP3    H244700   0.709   4.244  11.130  0.2534 -2.6367 -0.3824
 7737TIP3   OH244701   2.149   4.250  11.389  0.3221  0.1383  1.0893
 7737TIP3    H144702   2.077   4.221  11.444  0.0221 -1.5621 -0.1061
 7737TIP3    H244703   2.186   4.326  11.434 -2.4194  1.3006  1.5459
 7738TIP3   OH244704   6.644   4.273   0.396 -0.0342  0.5373  0.2531
 7738TIP3    H144705   6.598   4.240   0.319 -0.0210 -0.4646  0.6559
 7738TIP3    H244706   6.585   4.340   0.432 -0.7071 -0.0015  0.1789
 7739TIP3   OH244707   0.854   2.304   5.626  0.0804  0.1572  0.1881
 7739TIP3    H144708   0.858   2.277   5.534 -0.0251  2.5511 -0.5989
 7739TIP3    H244709   0.923   2.254   5.669  1.3606  0.2936 -1.5983
 7740TIP3   OH244710   5.557   5.775  11.218  0.1152  0.1969  0.1838
 7740TIP3    H144711   5.584   5.835  11.288 -1.6617  0.3661  0.7575
 7740TIP3    H244712   5.628   5.711  11.213  0.6398  0.6231  1.6144
 7741TIP3   OH244713   0.693   6.765  14.298 -0.1810  0.0890 -0.1428
 7741TIP3    H144714   0.786   6.743  14.297  0.0753  1.0160  1.1990
 7741TIP3    H244715   0.685   6.839  14.238  0.3344  1.3219  1.2477
 7742TIP3   OH244716   2.019   3.191  12.131 -0.1111 -0.7760  0.0157
 7742TIP3    H144717   2.066   3.165  12.210  1.3040  0.1076 -0.4978
 7742TIP3    H244718   2.075   3.257  12.091 -0.5853 -1.5246 -1.9712
 7743TIP3   OH244719   4.909   2.770   1.261 -0.1044 -0.1637 -0.5041
 7743TIP3    H144720   4.820   2.739   1.247 -1.6870  3.3121  0.7618
 7743TIP3    H244721   4.920   2.768   1.356  1.5746 -1.3730 -0.6769
 7744TIP3   OH244722   0.671   1.615   5.065 -0.5497 -0.9036  0.0373
 7744TIP3    H144723   0.674   1.664   4.983 -0.1488 -1.6805 -0.4182
 7744TIP3    H244724   0.757   1.575   5.073 -0.4543 -0.5383  1.0336
 7745TIP3   OH244725   6.138   4.859  12.217  0.3977 -0.3232 -0.4421
 7745TIP3    H144726   6.101   4.777  12.251 -1.0404  0.0085 -1.1552
 7745TIP3    H244727   6.190   4.893  12.290 -1.1000 -0.5643  0.7977
 7746TIP3   OH244728   1.819   4.064   5.709 -0.3967  0.1505  0.5003
 7746TIP3    H144729   1.790   4.023   5.628  1.5000  0.2430 -0.2656
 7746TIP3    H244730   1.825   3.991   5.771  2.1337 -0.6915 -0.6204
 7747TIP3   OH244731   5.485   4.864   5.791 -0.1485 -0.0464 -0.6258
 7747TIP3    H144732   5.456   4.904   5.873  1.2838 -0.5366  0.1602
 7747TIP3    H244733   5.560   4.809   5.816  0.3291 -0.2027 -2.2627
 7748TIP3   OH244734   4.222   3.194   3.878 -0.8210  0.1332 -0.0221
 7748TIP3    H144735   4.315   3.197   3.854 -0.8469  0.6858 -0.0697
 7748TIP3    H244736   4.194   3.106   3.853 -0.2376 -0.1415  0.2692
 7749TIP3   OH244737   3.198   1.542  11.717 -0.0628  0.2028  0.0936
 7749TIP3    H144738   3.103   1.545  11.706 -0.0742  0.1242  0.1696
 7749TIP3    H244739   3.219   1.449  11.723  0.0412  0.2116 -0.1143
 7750TIP3   OH244740   5.381   3.804   2.276  0.2887 -0.0649  0.6098
 7750TIP3    H144741   5.383   3.778   2.184  0.2146  1.5757  0.1095
 7750TIP3    H244742   5.407   3.726   2.324  0.2742 -0.9663 -0.7964
 7751TIP3   OH244743   4.024   5.935   0.374 -0.1567  0.4417  0.0897
 7751TIP3    H144744   4.026   5.997   0.447 -0.6373 -1.4871  1.8256
 7751TIP3    H244745   3.993   5.987   0.300 -1.2751  2.1028  1.6380
 7752TIP3   OH244746   6.538   1.677   5.434  0.1981  0.8242  0.1904
 7752TIP3    H144747   6.525   1.737   5.361 -2.3808  0.9058  0.6252
 7752TIP3    H244748   6.450   1.656   5.464  1.0954  1.5195  3.8890
 7753TIP3   OH244749   4.709   1.365   2.396  0.6520  0.0415  0.0166
 7753TIP3    H144750   4.645   1.355   2.326  1.2592  3.5651 -1.2920
 7753TIP3    H244751   4.660   1.354   2.477 -0.6330 -1.5082 -0.9213
 7754TIP3   OH244752   4.534   4.465  16.630 -0.0537  0.5080  0.1523
 7754TIP3    H144753   4.615   4.467  16.681  0.6260  5.3743 -0.5988
 7754TIP3    H244754   4.467   4.435  16.691  1.9520 -1.9582  1.2952
 7755TIP3   OH244755   1.482   2.190  13.941  0.3055  0.0542 -0.1992
 7755TIP3    H144756   1.539   2.125  13.900 -0.5627 -0.2007 -1.0423
 7755TIP3    H244757   1.406   2.195  13.883 -0.7645  0.0165  1.1433
 7756TIP3   OH244758   2.965   0.598   0.029 -0.3303 -0.1400  0.3509
 7756TIP3    H144759   3.009   0.586  -0.055 -0.7377 -1.8927  0.3508
 7756TIP3    H244760   2.931   0.511   0.051 -1.3245  0.5557  1.7190
 7757TIP3   OH244761   1.315   5.005   4.879  0.1612  0.3225 -0.2417
 7757TIP3    H144762   1.359   5.064   4.818 -0.0176  0.2850 -0.4091
 7757TIP3    H244763   1.243   5.057   4.915 -0.6959 -0.1223 -1.2301
 7758TIP3   OH244764   4.713   3.250  14.198 -0.4865  0.6239  0.1812
 7758TIP3    H144765   4.754   3.178  14.246 -0.0336  0.0284 -1.0591
 7758TIP3    H244766   4.641   3.278  14.254 -0.5568 -0.6817  0.7785
 7759TIP3   OH244767   0.764   5.795   6.112  0.1089  0.0112  0.5122
 7759TIP3    H144768   0.837   5.794   6.049  0.4431  2.0516  0.7890
 7759TIP3    H244769   0.806   5.811   6.196 -0.6074  0.8872  0.7162
 7760TIP3   OH244770   4.547   4.236  16.802 -0.0582 -0.2623 -0.0850
 7760TIP3    H144771   4.521   4.274  16.886 -0.0041 -0.6009  0.0899
 7760TIP3    H244772   4.466   4.205  16.763  0.0216 -0.9718  0.2855
 7761TIP3   OH244773   2.321   0.154  15.386 -0.4082  0.2756  0.1542
 7761TIP3    H144774   2.264   0.168  15.461 -1.3945 -0.1859 -0.4841
 7761TIP3    H244775   2.269   0.100  15.326  0.3635  0.6007 -0.8430
 7762TIP3   OH244776   0.554   3.415  12.688 -0.5499  0.3275  0.3740
 7762TIP3    H144777   0.461   3.392  12.680 -0.6169 -0.0227  1.8776
 7762TIP3    H244778   0.560   3.458  12.773  0.4854  1.3744 -0.1977
 7763TIP3   OH244779   6.841   4.222  16.733 -0.2657 -0.0402 -0.6170
 7763TIP3    H144780   6.783   4.146  16.736 -0.8992  0.4665  0.5144
 7763TIP3    H244781   6.789   4.294  16.768  0.8891  0.5392 -0.0304
 7764TIP3   OH244782   4.736   6.371   5.630  0.2960 -0.2794  0.1352
 7764TIP3    H144783   4.812   6.424   5.653 -0.0457  0.1334  0.3251
 7764TIP3    H244784   4.666   6.435   5.614 -0.0304 -0.6572  0.0369
 7765TIP3   OH244785   3.724   1.894  13.760 -0.6265 -0.4145  0.2725
 7765TIP3    H144786   3.679   1.978  13.765  0.8297  0.4208 -0.1438
 7765TIP3    H244787   3.679   1.846  13.691 -0.5708  0.5869 -0.4631
 7766TIP3   OH244788   2.347   4.932  10.947  0.0522  0.7890  0.2455
 7766TIP3    H144789   2.376   5.022  10.937 -1.2125  1.2549  0.6027
 7766TIP3    H244790   2.269   4.926  10.892  0.3605 -0.2093 -0.1032
 7767TIP3   OH244791   3.032   4.824  16.021  0.2685  0.1929  0.8521
 7767TIP3    H144792   3.126   4.818  16.040 -0.1458 -0.6793  2.9255
 7767TIP3    H244793   2.991   4.826  16.108 -1.7136 -0.9471 -0.0115
 7768TIP3   OH244794   6.523   6.804  15.326  0.2476 -0.6639 -0.0261
 7768TIP3    H144795   6.521   6.896  15.353 -0.2614 -0.6194 -0.2189
 7768TIP3    H244796   6.613   6.776  15.346  0.2578 -0.2725  0.5194
 7769TIP3   OH244797   3.411   4.370  14.367 -0.2254  0.5339 -0.1649
 7769TIP3    H144798   3.384   4.450  14.323 -1.2021  0.2044 -0.1924
 7769TIP3    H244799   3.467   4.399  14.439 -1.8321  1.3899  0.8061
 7770TIP3   OH244800   5.431   1.097   1.110  0.1512  0.2432 -0.1866
 7770TIP3    H144801   5.494   1.164   1.137 -0.3137  1.3154 -1.6241
 7770TIP3    H244802   5.441   1.092   1.015 -1.0858 -0.4389 -0.2957
 7771TIP3   OH244803   2.141   6.733  11.945 -0.3855 -0.7563 -0.5043
 7771TIP3    H144804   2.213   6.698  11.998 -1.3292 -0.6267  0.9120
 7771TIP3    H244805   2.160   6.826  11.937 -1.1553 -0.4117  1.2138
 7772TIP3   OH244806   1.119   2.273  14.760 -0.6533 -0.7616  0.2968
 7772TIP3    H144807   1.190   2.314  14.712  0.0733 -2.8758 -0.5439
 7772TIP3    H244808   1.158   2.246  14.843 -1.0098 -0.1814  0.6607
 7773TIP3   OH244809   3.915   4.304  15.726 -0.0484  0.8028  0.0676
 7773TIP3    H144810   3.974   4.317  15.652 -0.6278 -1.4009 -0.8747
 7773TIP3    H244811   3.966   4.251  15.787 -0.2914  0.8330  0.2973
 7774TIP3   OH244812   0.788   2.403  14.233  0.2325 -0.2025  0.3080
 7774TIP3    H144813   0.871   2.380  14.274 -0.2221  0.2881  1.5330
 7774TIP3    H244814   0.783   2.498  14.239 -0.1133 -0.1697 -0.3655
 7775TIP3   OH244815   3.970   3.724  15.984 -0.3281 -0.2927 -0.4488
 7775TIP3    H144816   3.995   3.816  15.988 -0.1106 -0.3874  2.0807
 7775TIP3    H244817   3.875   3.725  15.972 -0.6339  0.3664  1.6205
 7776TIP3   OH244818   4.581   1.499   6.192 -0.2849  0.1057  0.2951
 7776TIP3    H144819   4.548   1.571   6.245  1.4391  0.6878  0.6536
 7776TIP3    H244820   4.543   1.421   6.231  0.0091  0.6172  1.6791
 7777TIP3   OH244821   1.625   4.643   3.200  0.3604  0.2663  0.1762
 7777TIP3    H144822   1.609   4.726   3.155 -2.3374  0.9491  2.1837
 7777TIP3    H244823   1.719   4.644   3.219  1.0827  1.1632 -2.9012
 7778TIP3   OH244824   2.364   2.200  13.103 -0.0209  0.3044  0.2067
 7778TIP3    H144825   2.362   2.295  13.090 -1.0927  0.1284 -1.1976
 7778TIP3    H244826   2.274   2.172  13.086  0.2444 -0.9487  0.7681
 7779TIP3   OH244827   2.217   4.797  15.412 -0.0802 -0.1733 -0.0847
 7779TIP3    H144828   2.227   4.857  15.487  0.0285  0.5190 -0.6371
 7779TIP3    H244829   2.169   4.722  15.447  1.5527 -0.7066  1.1159
 7780TIP3   OH244830   5.788   4.272  12.508 -0.2650  0.5720 -0.1688
 7780TIP3    H144831   5.868   4.276  12.454  0.0858  0.1203  0.3015
 7780TIP3    H244832   5.771   4.363  12.532 -0.8080  0.8703 -1.5720
 7781TIP3   OH244833   3.313   3.051   0.121  0.0698 -0.0102  0.5918
 7781TIP3    H144834   3.339   3.143   0.124 -1.1067  0.3538  0.0903
 7781TIP3    H244835   3.297   3.027   0.213 -0.1952  0.4620  0.6721
 7782TIP3   OH244836   3.173   1.731  13.126  0.5599 -0.2861 -0.1419
 7782TIP3    H144837   3.265   1.758  13.136  0.3129 -0.2806  3.2261
 7782TIP3    H244838   3.178   1.643  13.089  2.0130 -0.6466  0.8067
 7783TIP3   OH244839   2.665   4.809  14.911 -0.0576 -0.2469 -0.0962
 7783TIP3    H144840   2.675   4.755  14.989 -0.3654  0.5765  0.5331
 7783TIP3    H244841   2.739   4.869  14.914  0.3903 -0.7455 -0.8916
 7784TIP3   OH244842   6.773   6.138   2.835  0.0241 -0.1640 -0.0428
 7784TIP3    H144843   6.692   6.114   2.789 -0.4106 -2.1074  1.5703
 7784TIP3    H244844   6.756   6.226   2.868 -1.5996 -0.6427  0.5220
 7785TIP3   OH244845   3.324   4.686  14.569 -0.3281  0.5641  0.0236
 7785TIP3    H144846   3.405   4.660  14.614  0.4482  1.4220 -0.8277
 7785TIP3    H244847   3.254   4.661  14.629  0.4618 -1.5270  0.1837
 7786TIP3   OH244848   2.290   5.548  13.665 -0.3675 -0.2004  0.6763
 7786TIP3    H144849   2.224   5.598  13.712 -0.5467  1.4917 -1.2441
 7786TIP3    H244850   2.244   5.470  13.633 -1.6331  1.2027 -1.0716
 7787TIP3   OH244851   1.666   6.278  11.018  0.3811 -0.8107 -0.0368
 7787TIP3    H144852   1.740   6.333  11.042  0.3349 -0.5520 -0.4844
 7787TIP3    H244853   1.703   6.214  10.957  0.0629 -0.1509 -0.9296
 7788TIP3   OH244854   4.787   1.301  16.013  0.3692  0.2233  0.1107
 7788TIP3    H144855   4.881   1.317  16.001  0.5945 -0.1748  1.2666
 7788TIP3    H244856   4.776   1.292  16.107 -0.9008  0.6306  0.0138
 7789TIP3   OH244857   4.434   4.265  14.025 -0.2110 -0.0351  0.5424
 7789TIP3    H144858   4.473   4.221  13.950  0.3286 -1.1747  1.4495
 7789TIP3    H244859   4.418   4.355  13.995  3.7873  0.7920  0.2672
 7790TIP3   OH244860   1.855   4.458  15.577  0.1123  0.3917 -0.5232
 7790TIP3    H144861   1.904   4.401  15.636 -0.6325 -1.1147 -1.2935
 7790TIP3    H244862   1.787   4.497  15.632  0.4508  0.3138 -0.0402
 7791TIP3   OH244863   0.542   4.411  10.899  0.2443 -0.1553  0.0028
 7791TIP3    H144864   0.584   4.339  10.947  1.0892 -0.9589 -1.8335
 7791TIP3    H244865   0.616   4.460  10.862 -0.3150 -1.1562 -2.6761
 7792TIP3   OH244866   2.630   5.202   5.900 -0.0727 -0.3871  0.1716
 7792TIP3    H144867   2.712   5.151   5.904  0.4729  0.4101 -0.4627
 7792TIP3    H244868   2.568   5.143   5.858  1.3051  0.3243 -3.2496
 7793TIP3   OH244869   4.575   2.357  13.801  0.4430  0.5200  0.2930
 7793TIP3    H144870   4.524   2.294  13.749 -0.6209  1.3516  0.2883
 7793TIP3    H244871   4.665   2.346  13.771  0.7460 -2.6560  1.9389
 7794TIP3   OH244872   5.156   1.852   0.862  0.7983  0.4217 -0.1628
 7794TIP3    H144873   5.199   1.807   0.936  1.1750  0.8938 -0.0854
 7794TIP3    H244874   5.228   1.894   0.816  0.3983  1.3434  0.0440
 7795TIP3   OH244875   5.155   2.364  13.098 -0.9835  0.3270  0.2370
 7795TIP3    H144876   5.117   2.404  13.019  1.2280  0.4455 -0.8558
 7795TIP3    H244877   5.183   2.277  13.070 -0.8406  0.0878  1.1025
 7796TIP3   OH244878   5.010   0.015  12.659  0.1024  0.2019  0.2852
 7796TIP3    H144879   4.941  -0.048  12.637  0.6330  0.1019 -1.2468
 7796TIP3    H244880   5.084  -0.039  12.686  0.2360  0.1909 -0.0832
 7797TIP3   OH244881   4.480   5.668  14.543 -0.0998  0.1604 -0.2207
 7797TIP3    H144882   4.512   5.747  14.586  0.5705  0.2746 -0.9078
 7797TIP3    H244883   4.391   5.690  14.515 -0.0486  0.5411 -0.0881
 7798TIP3   OH244884   4.482   1.397  16.214 -0.3116 -0.2640  0.3569
 7798TIP3    H144885   4.495   1.491  16.211  0.8072 -0.4093 -2.0533
 7798TIP3    H244886   4.571   1.361  16.213 -0.7293 -1.3367  0.3391
 7799TIP3   OH244887   5.430   0.801  12.370 -0.0238 -0.8254  0.9272
 7799TIP3    H144888   5.349   0.751  12.386  0.4740 -1.5789  1.1542
 7799TIP3    H244889   5.462   0.823  12.457  0.7944 -1.8294  0.8999
 7800TIP3   OH244890   6.579   3.200   3.890  0.0993 -0.2814  0.1504
 7800TIP3    H144891   6.526   3.181   3.967 -0.0208 -0.7122 -0.0367
 7800TIP3    H244892   6.645   3.262   3.921 -0.8652  0.7125  0.2507
 7801TIP3   OH244893   4.931   4.426   4.408  1.2327 -0.4087  0.0365
 7801TIP3    H144894   4.869   4.470   4.467  3.0704  1.2147  0.8665
 7801TIP3    H244895   4.946   4.489   4.337  1.7799 -0.8425 -0.2412
 7802TIP3   OH244896   2.493   1.518  16.323  0.3202  0.1119  0.5495
 7802TIP3    H144897   2.443   1.439  16.303  1.6704 -0.7790  0.5749
 7802TIP3    H244898   2.558   1.490  16.388  0.5294  1.3517  0.9043
 7803TIP3   OH244899   6.570   2.240   5.437 -0.1893  0.4972  0.0455
 7803TIP3    H144900   6.562   2.231   5.532  0.0786 -1.7591 -0.0895
 7803TIP3    H244901   6.591   2.333   5.424 -0.4722  0.9234  2.1535
 7804TIP3   OH244902   4.293   0.964  11.292 -0.1821  0.4324  0.1854
 7804TIP3    H144903   4.328   0.880  11.263 -0.8956 -0.8315  2.7379
 7804TIP3    H244904   4.213   0.975  11.241 -0.5364 -0.8831  0.4209
 7805TIP3   OH244905   4.832   0.978   1.624 -0.4030 -0.1893  0.2581
 7805TIP3    H144906   4.880   1.060   1.617 -0.2258 -0.2873  0.3070
 7805TIP3    H244907   4.869   0.936   1.702  1.7049 -1.7314 -1.4228
 7806TIP3   OH244908   0.458   5.311  14.263 -0.1737  0.2691  0.3955
 7806TIP3    H144909   0.538   5.262  14.247 -0.2638  0.1703  0.2481
 7806TIP3    H244910   0.466   5.341  14.354 -0.7467 -1.2145  0.9776
 7807TIP3   OH244911   5.656   2.795  14.442  0.2148  0.4101 -0.2688
 7807TIP3    H144912   5.692   2.753  14.520  0.6782  1.7022  0.2532
 7807TIP3    H244913   5.731   2.840  14.403 -0.7049  2.9501  0.6878
 7808TIP3   OH244914   5.666   5.849   0.477 -0.0202 -0.4828 -0.5243
 7808TIP3    H144915   5.646   5.764   0.438  1.3805 -1.4391  0.7566
 7808TIP3    H244916   5.735   5.885   0.421 -1.3615  0.3436 -1.7073
 7809TIP3   OH244917   4.353   4.147  15.069  0.6294  0.3664 -0.3030
 7809TIP3    H144918   4.382   4.058  15.049 -0.9410 -0.3796  0.5042
 7809TIP3    H244919   4.371   4.159  15.162 -1.5612 -0.1771  0.2677
 7810TIP3   OH244920   2.947   2.852   1.473  0.5048  0.4114 -0.3078
 7810TIP3    H144921   2.919   2.936   1.438  1.2156  0.8276  0.0900
 7810TIP3    H244922   2.939   2.861   1.568  0.3783 -0.0431 -0.2735
 7811TIP3   OH244923   1.143   2.534  12.004 -0.1772 -0.3496 -0.1663
 7811TIP3    H144924   1.115   2.551  11.915  0.8922  0.1340 -0.4274
 7811TIP3    H244925   1.079   2.578  12.059 -0.6179 -0.3228 -0.7021
 7812TIP3   OH244926   6.095   4.196  15.423 -0.3913  0.1649 -0.2112
 7812TIP3    H144927   6.099   4.264  15.491 -0.7488  0.1337 -0.1538
 7812TIP3    H244928   6.033   4.231  15.359 -1.5621 -0.6434  0.4419
 7813TIP3   OH244929   3.846   4.016  14.231  0.4589 -0.2476 -0.1687
 7813TIP3    H144930   3.909   3.949  14.205  1.5954  0.8370 -0.2489
 7813TIP3    H244931   3.883   4.098  14.200  0.1249  0.6800  1.7568
 7814TIP3   OH244932   6.779   4.635  13.178  0.4049  0.1775  0.4073
 7814TIP3    H144933   6.702   4.685  13.207  0.9469  0.3450  1.6227
 7814TIP3    H244934   6.767   4.548  13.216 -0.1718 -0.4340 -1.0986
 7815TIP3   OH244935   2.368   0.291   4.090  0.1271  0.1815  0.0677
 7815TIP3    H144936   2.387   0.268   4.182  0.5164  0.0281 -0.0465
 7815TIP3    H244937   2.446   0.261   4.042 -0.0099  0.3993 -0.2923
 7816TIP3   OH244938   1.447   4.743  13.510 -0.4814  0.6490 -0.1891
 7816TIP3    H144939   1.508   4.703  13.448  0.4003  0.7416  0.5994
 7816TIP3    H244940   1.474   4.835  13.514  1.2507  0.1278  2.3391
 7817TIP3   OH244941   0.918   0.538  11.475 -0.0575 -0.3025  0.6286
 7817TIP3    H144942   0.943   0.498  11.558 -1.4076 -1.9192  0.2912
 7817TIP3    H244943   0.955   0.481  11.408 -0.2278  0.1865  0.1077
 7818TIP3   OH244944   3.388   2.224   5.049 -0.2115  0.1431  0.7092
 7818TIP3    H144945   3.333   2.275   4.990  0.8292  0.5340  0.0353
 7818TIP3    H244946   3.331   2.201   5.122 -1.6988 -0.8124 -0.6902
 7819TIP3   OH244947   0.170   3.655  16.227 -0.0437  0.3808  0.1100
 7819TIP3    H144948   0.257   3.636  16.261  0.1361 -0.7513 -0.9181
 7819TIP3    H244949   0.139   3.727  16.281  1.7327  1.1669  0.1580
 7820TIP3   OH244950   1.237   2.172   0.028 -0.1814  0.3329 -0.3117
 7820TIP3    H144951   1.272   2.139   0.111 -0.9261  1.1594  0.3469
 7820TIP3    H244952   1.149   2.135   0.023 -0.2410  0.5112 -0.5947
 7821TIP3   OH244953   0.085   4.802   3.426 -0.5063 -0.1637  0.0186
 7821TIP3    H144954   0.163   4.757   3.459 -0.6602  0.2622  1.0000
 7821TIP3    H244955   0.117   4.885   3.392 -0.2044 -1.0090 -1.9069
 7822TIP3   OH244956   0.896   6.760   5.599 -0.2773  0.2660 -0.2052
 7822TIP3    H144957   0.879   6.839   5.548 -0.0681 -0.7222 -1.8729
 7822TIP3    H244958   0.954   6.789   5.669  1.6253  1.2274 -2.0636
 7823TIP3   OH244959   6.691   4.069  11.470 -0.2170  0.3148  0.4729
 7823TIP3    H144960   6.715   4.056  11.562  0.7107 -2.4318 -0.0722
 7823TIP3    H244961   6.607   4.025  11.460 -0.4374  0.8223  0.0524
 7824TIP3   OH244962   6.516   0.515  15.414 -0.2682 -0.0747 -0.1949
 7824TIP3    H144963   6.522   0.488  15.323 -0.0428 -0.5199 -0.0535
 7824TIP3    H244964   6.603   0.495  15.451  0.1768  1.5891 -0.2695
 7825TIP3   OH244965   3.696   2.801   2.847  0.4161 -0.6633  0.5768
 7825TIP3    H144966   3.740   2.842   2.921 -0.4359  1.0488  0.1947
 7825TIP3    H244967   3.627   2.748   2.885  1.9443 -2.3356  1.1189
 7826TIP3   OH244968   2.392   4.768  16.358  0.1165 -0.0725 -0.0982
 7826TIP3    H144969   2.427   4.679  16.361 -0.8865 -0.4447  1.2968
 7826TIP3    H244970   2.355   4.783  16.444 -1.4917  0.9827 -0.9242
 7827TIP3   OH244971   4.479   6.068  12.519  0.5263  0.1899 -0.5004
 7827TIP3    H144972   4.422   6.008  12.470  1.2586 -0.4512 -0.5873
 7827TIP3    H244973   4.563   6.022  12.525  0.5671  0.4203  1.0306
 7828TIP3   OH244974   6.811   2.939   1.350 -0.7059  0.2612  0.2495
 7828TIP3    H144975   6.805   2.895   1.435 -1.1791  0.0793  0.1250
 7828TIP3    H244976   6.893   2.907   1.312  0.1328  1.2657  1.1452
 7829TIP3   OH244977   6.182   5.719   0.661 -0.0799 -0.2447  0.1418
 7829TIP3    H144978   6.177   5.724   0.566  1.1369 -0.5921  0.0461
 7829TIP3    H244979   6.208   5.629   0.679 -0.0450 -0.1112  0.7860
 7830TIP3   OH244980   0.033   6.785   2.286  0.0906  0.1400 -0.4933
 7830TIP3    H144981   0.041   6.838   2.206 -0.6713  1.1481  0.0851
 7830TIP3    H244982   0.048   6.847   2.357 -2.7295  0.0401  0.2907
 7831TIP3   OH244983   0.878   0.764   3.139 -0.1816 -0.2896  0.4442
 7831TIP3    H144984   0.832   0.787   3.058  1.7106  1.8698 -0.1338
 7831TIP3    H244985   0.954   0.714   3.109  0.6274  0.6789  0.8321
 7832TIP3   OH244986   3.599   1.157  11.212 -0.5535  0.2834  0.2954
 7832TIP3    H144987   3.658   1.210  11.265 -1.1320  0.0753  1.1578
 7832TIP3    H244988   3.655   1.117  11.146 -0.1043  2.0015 -0.4155
 7833TIP3   OH244989   6.833   2.828  17.081 -0.2308  0.1693 -1.0201
 7833TIP3    H144990   6.868   2.778  17.155 -0.7782  0.3012 -0.6673
 7833TIP3    H244991   6.841   2.769  17.006  1.4274  0.4511 -1.1120
 7834TIP3   OH244992   2.508   5.785   2.254 -0.2175 -0.0380  1.0414
 7834TIP3    H144993   2.436   5.833   2.215  0.9966 -0.2547 -1.6753
 7834TIP3    H244994   2.473   5.697   2.269 -0.7060  0.0295  0.3435
 7835TIP3   OH244995   3.759   4.620  14.552  0.4308 -0.1847  0.9736
 7835TIP3    H144996   3.790   4.632  14.641 -1.4625  0.3548  1.6243
 7835TIP3    H244997   3.715   4.703  14.531 -1.8093 -1.3609  0.7291
 7836TIP3   OH244998   2.653   6.233   5.095 -0.6396  0.2408  0.0525
 7836TIP3    H144999   2.651   6.142   5.125  0.1279  0.5124  0.9868
 7836TIP3    H245000   2.708   6.231   5.017 -0.3527 -0.0538  0.2574
 7837TIP3   OH245001   6.201   0.662   4.892  0.1318 -0.0661  0.6589
 7837TIP3    H145002   6.244   0.740   4.929  2.6515 -0.4978 -1.0867
 7837TIP3    H245003   6.182   0.686   4.801  2.6758 -1.9667 -0.4966
 7838TIP3   OH245004   3.072   0.198  12.546  0.8557 -0.3097 -0.1162
 7838TIP3    H145005   3.164   0.177  12.529  0.7210 -0.4725 -0.6565
 7838TIP3    H245006   3.070   0.223  12.639  1.8411  1.7862 -0.5922
 7839TIP3   OH245007   3.618   1.397  15.987 -0.8744 -0.0047  0.4240
 7839TIP3    H145008   3.693   1.339  15.974 -0.4103  0.5169  0.6909
 7839TIP3    H245009   3.621   1.457  15.912 -1.8509 -0.8310 -0.3070
 7840TIP3   OH245010   1.694   0.761  16.451 -0.3898  1.0631  0.4640
 7840TIP3    H145011   1.778   0.776  16.496 -0.4794  0.5344  0.8096
 7840TIP3    H245012   1.710   0.686  16.394 -1.0679 -0.0852  1.7297
 7841TIP3   OH245013   5.748   1.310   2.257  0.2952  0.0946  0.0395
 7841TIP3    H145014   5.684   1.272   2.197  0.6301 -1.2433  0.5162
 7841TIP3    H245015   5.695   1.338   2.332  0.1412 -0.0303 -0.0222
 7842TIP3   OH245016   2.168   3.981  16.015  0.1084 -0.0317 -0.5205
 7842TIP3    H145017   2.077   3.963  16.037 -0.1450 -0.2982 -1.7030
 7842TIP3    H245018   2.214   3.899  16.034  0.2824  0.3725  0.9104
 7843TIP3   OH245019   0.879   6.488  14.951  0.1992 -0.1022 -0.1103
 7843TIP3    H145020   0.860   6.442  15.032  2.1209 -1.8445 -0.5614
 7843TIP3    H245021   0.969   6.463  14.930  0.9427  2.9300 -1.0676
 7844TIP3   OH245022   6.048   3.851  10.575 -0.7312  0.0674  0.3299
 7844TIP3    H145023   6.033   3.798  10.497  0.9419 -0.0805  0.0787
 7844TIP3    H245024   6.103   3.796  10.631  2.0538  1.8398 -0.4252
 7845TIP3   OH245025   3.574   0.317   3.065  0.1218 -0.1138 -0.3525
 7845TIP3    H145026   3.547   0.395   3.114  2.6250  2.0106 -2.0473
 7845TIP3    H245027   3.583   0.347   2.975  2.4402 -1.9881 -0.8430
 7846TIP3   OH245028   3.535   2.585   4.426  0.5221  0.4576  0.1840
 7846TIP3    H145029   3.542   2.506   4.373 -2.2648  0.7556 -0.7815
 7846TIP3    H245030   3.556   2.656   4.365  0.9411  0.5895  0.4812
 7847TIP3   OH245031   5.591   3.695   2.782 -0.6778  0.0396 -0.2322
 7847TIP3    H145032   5.561   3.703   2.873  0.3804  1.5760  0.0241
 7847TIP3    H245033   5.684   3.675   2.788 -1.1092 -2.5852 -1.0278
 7848TIP3   OH245034   1.587   3.586   4.814 -0.5516 -0.0927 -0.1395
 7848TIP3    H145035   1.602   3.636   4.734 -0.0891  0.1997  0.1296
 7848TIP3    H245036   1.631   3.502   4.799  3.2712  1.4131  1.3777
 7849TIP3   OH245037   0.689   2.547  11.460 -0.2437 -0.1029 -0.5038
 7849TIP3    H145038   0.635   2.480  11.502  0.3607 -0.1516  0.2012
 7849TIP3    H245039   0.769   2.501  11.435 -0.0723  0.2256 -0.5634
 7850TIP3   OH245040   0.492   4.301   5.463 -0.3061 -0.2858 -0.0444
 7850TIP3    H145041   0.498   4.291   5.558 -0.0614 -0.5364 -0.0849
 7850TIP3    H245042   0.400   4.324   5.447  0.0322  1.5254  0.3991
 7851TIP3   OH245043   6.136   5.013   4.018 -0.0890 -0.8876  0.8513
 7851TIP3    H145044   6.192   4.943   3.986 -0.0869 -0.5656  0.1126
 7851TIP3    H245045   6.058   5.009   3.963  1.3365  1.8476 -1.6706
 7852TIP3   OH245046   4.218   5.535   0.116 -0.1863 -0.0157  0.3226
 7852TIP3    H145047   4.148   5.601   0.122 -1.3238 -1.3081  2.4191
 7852TIP3    H245048   4.287   5.579   0.067 -2.9069  0.8714 -3.1568
 7853TIP3   OH245049   4.808   0.381  11.800 -0.1152 -0.1239  0.0183
 7853TIP3    H145050   4.789   0.341  11.715  1.2480 -1.0949  0.1338
 7853TIP3    H245051   4.883   0.438  11.783  0.0681 -0.2074  0.5272
 7854TIP3   OH245052   1.634   3.898   0.893 -0.0533 -0.1675  0.4130
 7854TIP3    H145053   1.715   3.922   0.937  1.3215 -2.6773 -0.5367
 7854TIP3    H245054   1.591   3.836   0.952  0.1878 -1.0562 -0.3225
 7855TIP3   OH245055   3.399   2.667   3.687  0.2242 -0.6471 -0.0168
 7855TIP3    H145056   3.490   2.664   3.717  0.6537 -1.9115 -1.3399
 7855TIP3    H245057   3.395   2.602   3.617 -1.9090 -1.2519  0.5915
 7856TIP3   OH245058   5.023   3.350   1.356  0.1418  0.2409 -0.0754
 7856TIP3    H145059   5.037   3.332   1.449  2.8279  0.0228 -0.4436
 7856TIP3    H245060   4.981   3.436   1.354  0.5398  0.4882  1.3399
 7857TIP3   OH245061   5.441   1.499  12.711 -0.2489 -0.5956  0.0804
 7857TIP3    H145062   5.533   1.504  12.686  0.1026 -0.5730  1.2841
 7857TIP3    H245063   5.421   1.587  12.743 -0.5734 -0.7088  0.1863
 7858TIP3   OH245064   4.739   1.034  12.778  0.0490 -0.0706  0.0748
 7858TIP3    H145065   4.732   0.940  12.765 -0.6612 -0.0757  0.4135
 7858TIP3    H245066   4.682   1.072  12.711  0.4181  0.1172 -0.1294
 7859TIP3   OH245067   3.312   1.155   5.167  0.0030 -0.1456 -0.3331
 7859TIP3    H145068   3.394   1.179   5.211  0.4875 -1.0193 -0.7254
 7859TIP3    H245069   3.313   1.059   5.164  0.6496 -0.1698 -3.3245
 7860TIP3   OH245070   0.284   3.784   0.573 -0.5969  0.8324 -0.2834
 7860TIP3    H145071   0.320   3.821   0.653  1.4129  2.3057 -1.7444
 7860TIP3    H245072   0.220   3.849   0.543 -2.9153 -0.6821  1.0924
 7861TIP3   OH245073   3.350   4.256   1.648  0.1719  0.1443  0.0237
 7861TIP3    H145074   3.266   4.272   1.691  0.6136 -0.4347  1.1604
 7861TIP3    H245075   3.358   4.326   1.584 -1.1087  0.2928 -0.0072
 7862TIP3   OH245076   1.456   2.505   4.489  0.0938  0.0888  0.3003
 7862TIP3    H145077   1.377   2.553   4.464 -0.3925 -1.4459 -1.3125
 7862TIP3    H245078   1.528   2.566   4.473 -0.5127  0.3660 -1.5685
 7863TIP3   OH245079   2.494   2.809  12.965 -0.1355  0.1269  0.1124
 7863TIP3    H145080   2.514   2.766  12.882  2.5719 -0.3287  0.9199
 7863TIP3    H245081   2.534   2.895  12.959 -0.9731  0.5574  0.4990
 7864TIP3   OH245082   6.703   4.159   5.359 -0.1918  0.0086  0.0501
 7864TIP3    H145083   6.762   4.118   5.423 -1.6719 -0.2426  1.3294
 7864TIP3    H245084   6.660   4.085   5.316 -2.0220  0.1266  1.5486
 7865TIP3   OH245085   4.383   0.255   3.015 -0.0446  0.5401 -0.0380
 7865TIP3    H145086   4.353   0.317   2.949  0.8772 -0.7181 -1.7044
 7865TIP3    H245087   4.320   0.183   3.010 -0.7915  1.0433  1.4966
 7866TIP3   OH245088   0.113   1.592  15.035 -0.2986 -0.1497  0.8039
 7866TIP3    H145089   0.092   1.602  14.942  0.4234 -0.5517  0.5925
 7866TIP3    H245090   0.076   1.507  15.059  0.0404 -0.3171  0.7332
 7867TIP3   OH245091   3.385   6.171   4.727  0.2857 -0.0985 -0.7538
 7867TIP3    H145092   3.302   6.144   4.688  0.3639  0.1313 -1.0850
 7867TIP3    H245093   3.370   6.262   4.753  0.5542  0.0757 -1.1813
 7868TIP3   OH245094   3.664   3.268   4.954  0.5268  0.3567 -0.1965
 7868TIP3    H145095   3.693   3.346   5.001  1.6162 -1.1407  1.7503
 7868TIP3    H245096   3.732   3.254   4.888  0.4747  0.8730 -0.3672
 7869TIP3   OH245097   2.206   1.733  16.044  0.1173  0.6003  0.1569
 7869TIP3    H145098   2.196   1.640  16.024 -0.1410  0.2494  1.7440
 7869TIP3    H245099   2.210   1.736  16.140  0.2390  2.2162  0.1238
 7870TIP3   OH245100   6.122   2.075   4.178 -0.4284 -0.3634 -0.1533
 7870TIP3    H145101   6.134   2.021   4.257 -1.9453  0.4602  0.6829
 7870TIP3    H245102   6.032   2.108   4.185  0.3195  1.9643 -0.8320
 7871TIP3   OH245103   0.400   3.535  13.805  0.0426  0.0592 -0.0619
 7871TIP3    H145104   0.379   3.498  13.891  2.1328  0.7261  0.8097
 7871TIP3    H245105   0.357   3.621  13.805 -1.7171 -0.7846 -0.5821
 7872TIP3   OH245106   1.865   5.952   5.594  0.4541  0.4477 -0.1089
 7872TIP3    H145107   1.798   5.907   5.644  0.2937  0.3009 -0.4539
 7872TIP3    H245108   1.942   5.950   5.651  0.0015  1.1642  0.5430
 7873TIP3   OH245109   3.004   1.750  15.821  0.5247  0.2821  0.0925
 7873TIP3    H145110   2.933   1.700  15.779  1.7651 -1.0894 -0.4706
 7873TIP3    H245111   3.025   1.700  15.899  2.6941 -0.9187 -1.1726
 7874TIP3   OH245112   0.706   6.175   4.795 -0.5459 -0.1540  0.1535
 7874TIP3    H145113   0.684   6.250   4.740 -0.4207  1.3797  2.1130
 7874TIP3    H245114   0.788   6.142   4.759 -1.7420 -0.8761 -2.1575
 7875TIP3   OH245115   5.351   1.903   0.652  0.5552 -0.1782 -0.0317
 7875TIP3    H145116   5.395   1.930   0.571 -0.8236  2.6223  0.0496
 7875TIP3    H245117   5.287   1.837   0.624  0.1888  0.6594 -1.2169
 7876TIP3   OH245118   6.011   5.497   3.855 -0.1690 -0.2443 -0.1899
 7876TIP3    H145119   5.938   5.552   3.828 -0.8694 -1.0139  0.1027
 7876TIP3    H245120   6.014   5.428   3.789 -0.0151 -0.4805  0.0631
 7877TIP3   OH245121   2.401   2.329  15.697  0.7721  0.2430  0.0327
 7877TIP3    H145122   2.480   2.383  15.697  0.5871  0.5556  1.3727
 7877TIP3    H245123   2.362   2.344  15.611  0.9960  1.8725  0.1754
 7878TIP3   OH245124   1.439   1.926   1.577  0.5770 -0.3366 -0.4925
 7878TIP3    H145125   1.512   1.877   1.616  1.9164  1.2989 -0.8664
 7878TIP3    H245126   1.406   1.868   1.508 -0.3809 -2.3209  1.4828
 7879TIP3   OH245127   1.023   4.335   6.046  0.2129  0.1780 -0.1032
 7879TIP3    H145128   1.086   4.298   5.983  0.8538  0.1450  0.5370
 7879TIP3    H245129   1.060   4.313   6.131 -1.6689 -1.6026  0.3456
 7880TIP3   OH245130   0.632   3.042   0.352 -0.0943  0.4472 -0.0550
 7880TIP3    H145131   0.606   3.097   0.277 -1.0602  1.1720  0.7757
 7880TIP3    H245132   0.563   2.975   0.357 -0.5841  0.9895  0.7545
 7881TIP3   OH245133   0.523   6.545   3.736 -0.2078  0.3117  0.0650
 7881TIP3    H145134   0.538   6.451   3.723 -0.9039  0.1296  0.4768
 7881TIP3    H245135   0.511   6.580   3.648 -0.3649 -0.0639 -0.0677
 7882TIP3   OH245136   4.601   1.860   3.876 -0.4248  0.0323 -0.0689
 7882TIP3    H145137   4.562   1.777   3.905 -2.9810  1.3927  0.7291
 7882TIP3    H245138   4.599   1.855   3.780  0.2864 -1.1484 -0.0399
 7883TIP3   OH245139   5.980   0.082  14.966  0.2728  0.2286  1.1577
 7883TIP3    H145140   6.067   0.098  15.002  1.0679 -1.4748  0.0928
 7883TIP3    H245141   5.944   0.012  15.020  0.6811 -0.9467 -0.0367
 7884TIP3   OH245142   1.426   6.104  15.898  0.2377  0.3748  0.3679
 7884TIP3    H145143   1.332   6.097  15.882 -0.0407  2.2828  1.0010
 7884TIP3    H245144   1.433   6.130  15.990  1.4977 -1.7364  0.9562
 7885TIP3   OH245145   2.354   0.034   0.384 -0.6891 -0.1458 -0.1744
 7885TIP3    H145146   2.297   0.065   0.455  0.9663  1.2842  0.6143
 7885TIP3    H245147   2.331   0.089   0.309 -1.0789 -0.3028 -0.1711
 7886TIP3   OH245148   2.225   3.135   4.220  0.0812  0.3817  0.3191
 7886TIP3    H145149   2.279   3.081   4.277 -0.7010  0.7403  1.4367
 7886TIP3    H245150   2.136   3.106   4.237 -0.0883 -1.0349 -2.3692
 7887TIP3   OH245151   1.961   1.928  12.443 -0.6211 -0.1444  0.1855
 7887TIP3    H145152   1.917   1.847  12.466  0.7520 -1.3798 -1.3380
 7887TIP3    H245153   2.023   1.904  12.374  0.5794  1.9903  0.4156
 7888TIP3   OH245154   4.276   5.325  14.008  0.4015  0.4387  0.2633
 7888TIP3    H145155   4.301   5.246  14.055 -1.7093 -0.4326  0.0572
 7888TIP3    H245156   4.253   5.388  14.076 -2.4420 -0.7478  0.5820
 7889TIP3   OH245157   4.182   6.345   5.062  0.0411 -0.3281 -0.4589
 7889TIP3    H145158   4.269   6.378   5.081  0.3713 -1.6983  0.6103
 7889TIP3    H245159   4.172   6.268   5.119 -2.3883  0.5839  0.5197
 7890TIP3   OH245160   3.274   6.221  16.552  0.3686  0.2195  0.3600
 7890TIP3    H145161   3.349   6.164  16.535  1.0914  1.6352 -1.4767
 7890TIP3    H245162   3.236   6.186  16.633  2.2091 -1.3449  0.6298
 7891TIP3   OH245163   1.948   5.148  10.958 -0.1911 -0.5897 -0.0558
 7891TIP3    H145164   1.866   5.129  10.912  0.1908 -0.8268 -0.6442
 7891TIP3    H245165   1.968   5.068  11.007 -0.6656 -0.2915  0.6371
 7892TIP3   OH245166   0.794   3.029   4.674  0.4018 -0.0236 -0.2169
 7892TIP3    H145167   0.811   2.992   4.587  1.8089  1.6772 -0.7393
 7892TIP3    H245168   0.861   3.097   4.684 -1.7031  2.0163  0.8686
 7893TIP3   OH245169   1.420   6.503   1.666  0.2955  0.4186 -0.5395
 7893TIP3    H145170   1.470   6.421   1.661  1.0116  0.8181 -0.0705
 7893TIP3    H245171   1.329   6.476   1.651  0.4300 -0.5762  0.2962
 7894TIP3   OH245172   0.765   4.609  13.347  0.3657  0.3543 -0.5968
 7894TIP3    H145173   0.700   4.538  13.350  0.1197  0.6172  1.0427
 7894TIP3    H245174   0.726   4.674  13.288 -1.4030  0.9716  1.1501
 7895TIP3   OH245175   4.880   5.221   4.159  0.6057 -0.1385  0.8319
 7895TIP3    H145176   4.814   5.153   4.172 -0.3497  0.6467  0.1899
 7895TIP3    H245177   4.893   5.259   4.245  1.3696 -1.3092  1.2631
 7896TIP3   OH245178   5.393   4.965  11.740 -0.1309 -0.2705 -0.2158
 7896TIP3    H145179   5.488   4.955  11.731 -0.0090  0.8604 -0.3241
 7896TIP3    H245180   5.382   5.028  11.812 -0.8647 -2.0205  1.2868
 7897TIP3   OH245181   2.524   3.736   3.461  0.0250  0.3983  0.0083
 7897TIP3    H145182   2.511   3.828   3.483  1.4347  0.7957 -0.7252
 7897TIP3    H245183   2.570   3.699   3.536 -1.5401 -0.0214  0.8084
 7898TIP3   OH245184   5.152   1.712  13.182  0.3611 -0.2724 -0.4567
 7898TIP3    H145185   5.158   1.795  13.230  0.1961 -0.5414  0.0372
 7898TIP3    H245186   5.058   1.695  13.175  0.3525  0.1335 -1.5339
 7899TIP3   OH245187   5.571   0.360   0.544  0.1756 -0.0597  0.2786
 7899TIP3    H145188   5.566   0.265   0.533  0.4980 -0.0397 -0.0400
 7899TIP3    H245189   5.630   0.389   0.474 -0.3774  0.4424  0.0219
 7900TIP3   OH245190   6.463   3.042  15.214 -0.0634  0.3233 -0.1701
 7900TIP3    H145191   6.557   3.054  15.202 -0.0098 -1.2882 -2.0567
 7900TIP3    H245192   6.443   3.082  15.298  1.9695  2.3118 -0.5394
 7901TIP3   OH245193   1.399   5.338   6.589  0.2294  0.2761  0.4244
 7901TIP3    H145194   1.392   5.410   6.527 -3.2611  1.8849  2.3444
 7901TIP3    H245195   1.346   5.267   6.550 -0.0884  0.4558  0.5219
 7902TIP3   OH245196   2.020   1.910   2.428  0.2481  0.3749  0.7123
 7902TIP3    H145197   1.949   1.860   2.389 -0.3163 -0.6453  2.8633
 7902TIP3    H245198   1.975   1.980   2.476  0.9038  1.5175 -0.2799
 7903TIP3   OH245199   4.007   1.218  12.392 -0.1832  0.5434 -0.4974
 7903TIP3    H145200   3.944   1.274  12.437 -0.6731  0.6835 -1.3420
 7903TIP3    H245201   4.035   1.269  12.316 -2.0172 -0.9943 -2.3327
 7904TIP3   OH245202   4.531   2.388  14.895  0.0269  0.2332  0.0335
 7904TIP3    H145203   4.485   2.435  14.964 -0.0119 -0.7058  0.6674
 7904TIP3    H245204   4.524   2.445  14.818 -1.7222  0.3664  0.2471
 7905TIP3   OH245205   3.666   3.784   5.381 -0.2300 -0.4552  0.0281
 7905TIP3    H145206   3.642   3.873   5.354 -2.0745 -1.2381 -1.0716
 7905TIP3    H245207   3.592   3.755   5.433 -0.3545 -1.9018 -0.9212
 7906TIP3   OH245208   4.883   5.699   1.444 -0.5956 -0.7899 -0.1648
 7906TIP3    H145209   4.936   5.698   1.524 -0.7422 -1.3492 -0.0718
 7906TIP3    H245210   4.947   5.714   1.374 -0.4708 -0.2607  0.0586
 7907TIP3   OH245211   0.706   5.383  13.385  0.0042  0.0124  0.1665
 7907TIP3    H145212   0.617   5.365  13.355 -0.4902  2.8539 -0.3306
 7907TIP3    H245213   0.717   5.477  13.374  2.9206 -0.1640  0.7065
 7908TIP3   OH245214   5.128   5.791   1.357 -0.4212  0.0237  0.0142
 7908TIP3    H145215   5.189   5.862   1.380 -0.4056 -0.0766  0.2842
 7908TIP3    H245216   5.170   5.712   1.390  0.1710 -0.2814 -1.3966
 7909TIP3   OH245217   2.494   5.246   4.993 -0.8923 -0.1885  0.3798
 7909TIP3    H145218   2.492   5.198   4.911 -0.0264 -0.4024  0.4728
 7909TIP3    H245219   2.468   5.335   4.970 -0.5907 -0.2315 -0.1342
 7910TIP3   OH245220   5.335   3.793  16.811 -0.0285  0.1838  0.6520
 7910TIP3    H145221   5.252   3.831  16.842 -0.8545  0.6537 -1.8861
 7910TIP3    H245222   5.332   3.702  16.838 -1.5329  0.1351  0.3957
 7911TIP3   OH245223   6.703   6.210   0.994  0.2839  0.3654  0.6033
 7911TIP3    H145224   6.766   6.281   0.987  0.6269  0.1246  1.1509
 7911TIP3    H245225   6.652   6.230   1.073 -0.8039  0.9266 -0.2097
 7912TIP3   OH245226   5.186   4.006   0.625  0.3325 -0.0890 -0.0311
 7912TIP3    H145227   5.188   4.056   0.544  1.1932 -0.9723 -0.5769
 7912TIP3    H245228   5.108   3.950   0.617  0.7263 -0.5760 -0.5073
 7913TIP3   OH245229   0.248   2.744  11.234 -0.1684  0.2594  0.1860
 7913TIP3    H145230   0.238   2.675  11.300  0.7553 -0.3201 -0.2553
 7913TIP3    H245231   0.341   2.768  11.238 -0.2602  0.7339 -0.3893
 7914TIP3   OH245232   5.146   3.861  11.254  0.1654 -0.7162 -0.9220
 7914TIP3    H145233   5.225   3.818  11.287  0.3866  0.9799  0.9747
 7914TIP3    H245234   5.074   3.806  11.283  0.5195 -0.6694  0.0934
 7915TIP3   OH245235   3.716   3.171   2.332 -0.1529  0.2018 -0.8072
 7915TIP3    H145236   3.687   3.081   2.343  1.3049 -0.1241  0.7487
 7915TIP3    H245237   3.768   3.170   2.252  1.4602 -0.8165  0.2048
 7916TIP3   OH245238   1.874   5.324  14.783  0.3858  0.3089 -0.0492
 7916TIP3    H145239   1.923   5.291  14.859 -1.2499 -2.1101  0.0490
 7916TIP3    H245240   1.915   5.408  14.764  2.0689  0.1558  2.3588
 7917TIP3   OH245241   5.309   2.826  16.668  0.6337 -0.3079  0.3475
 7917TIP3    H145242   5.269   2.747  16.705 -1.0233 -0.8991 -2.4140
 7917TIP3    H245243   5.390   2.794  16.627  0.5379 -0.3874  0.2174
 7918TIP3   OH245244   0.636   3.867  13.172 -0.5314 -0.6298 -0.8988
 7918TIP3    H145245   0.626   3.784  13.219  1.3396 -0.2833  0.2327
 7918TIP3    H245246   0.581   3.929  13.220  0.7976 -0.4509  0.4636
 7919TIP3   OH245247   5.632   1.547  15.972 -0.1279 -0.2012  0.6369
 7919TIP3    H145248   5.590   1.564  16.057 -1.9326  0.1601 -0.2621
 7919TIP3    H245249   5.643   1.634  15.934  2.1887 -0.2327  1.1418
 7920TIP3   OH245250   3.749   3.621   3.520 -0.3275 -0.2957  0.2337
 7920TIP3    H145251   3.703   3.662   3.594  1.7008 -0.1765  1.4976
 7920TIP3    H245252   3.687   3.557   3.486 -1.6487  0.2614  1.4882
 7921TIP3   OH245253   3.602   4.230  10.036  0.2109 -0.2366  0.0365
 7921TIP3    H145254   3.543   4.188  10.099 -0.7013 -0.5281 -0.9844
 7921TIP3    H245255   3.571   4.320  10.030 -1.0496 -0.7419 -1.5388
 7922TIP3   OH245256   0.335   2.064   1.916 -0.1191  0.0469  0.3374
 7922TIP3    H145257   0.280   2.002   1.868  0.9916  0.2779 -1.3175
 7922TIP3    H245258   0.418   2.018   1.927  0.8318  1.3034 -1.2029
 7923TIP3   OH245259   6.093   2.812  17.086  0.0436  0.0392 -0.4644
 7923TIP3    H145260   6.186   2.794  17.095 -0.1712 -0.4345  1.2039
 7923TIP3    H245261   6.088   2.891  17.033  1.2938 -0.9890 -2.2100
 7924TIP3   OH245262   5.949   3.182   0.076  0.1219 -0.0283 -0.3320
 7924TIP3    H145263   5.987   3.097   0.098 -0.8557 -1.0324 -2.2799
 7924TIP3    H245264   6.024   3.238   0.058  0.7831 -1.1444 -1.2469
 7925TIP3   OH245265   2.305   4.641   5.704 -0.4591 -0.5877  0.0488
 7925TIP3    H145266   2.257   4.654   5.622 -0.0791  3.5343  0.2404
 7925TIP3    H245267   2.387   4.599   5.677  0.3055  1.9572 -2.0849
 7926TIP3   OH245268   4.850   1.835   5.431  0.1503 -0.6514  0.3660
 7926TIP3    H145269   4.929   1.839   5.486  0.1760 -0.1619  0.3031
 7926TIP3    H245270   4.884   1.814   5.344 -0.2205 -6.2663  1.2129
 7927TIP3   OH245271   0.988   4.252   0.252 -0.3101  0.2722  0.3699
 7927TIP3    H145272   0.947   4.294   0.327 -0.5653  0.1552  0.2963
 7927TIP3    H245273   1.016   4.166   0.284  0.6408  0.6703  0.6525
 7928TIP3   OH245274   2.302   1.126   5.102 -0.0212 -0.0952  0.7115
 7928TIP3    H145275   2.280   1.093   5.189 -0.6370  0.4318  0.7624
 7928TIP3    H245276   2.336   1.214   5.118  0.8908 -0.3886  0.5065
 7929TIP3   OH245277   1.932   2.010  11.929 -0.1166 -0.0173  0.0653
 7929TIP3    H145278   1.866   1.983  11.865 -0.1743 -1.4071  0.6780
 7929TIP3    H245279   1.945   1.933  11.985  3.1153 -0.3116 -0.9099
 7930TIP3   OH245280   6.068   3.171   6.180  0.1560  0.0219 -0.1520
 7930TIP3    H145281   6.078   3.245   6.240 -0.5083  0.2121 -0.2712
 7930TIP3    H245282   6.003   3.114   6.222  0.2377 -0.2078 -0.3328
 7931TIP3   OH245283   1.281   4.329   3.810  0.2360 -0.0493 -0.0713
 7931TIP3    H145284   1.209   4.312   3.871  0.7551  2.8023  1.4902
 7931TIP3    H245285   1.334   4.249   3.813 -1.7165 -1.4175  0.2802
 7932TIP3   OH245286   3.888   4.223  12.450 -0.4739  0.9076 -0.0665
 7932TIP3    H145287   3.896   4.263  12.537  2.9745  0.7841 -0.2105
 7932TIP3    H245288   3.901   4.296  12.389  1.1293  0.3880 -0.3844
 7933TIP3   OH245289   1.317   2.697  16.028 -0.1825 -0.5657  0.0663
 7933TIP3    H145290   1.226   2.722  16.010 -0.5614 -1.1374  1.0808
 7933TIP3    H245291   1.366   2.728  15.952 -1.1836  0.0010 -0.3696
 7934TIP3   OH245292   1.459   6.713   1.831  0.1766 -0.4728 -0.0002
 7934TIP3    H145293   1.446   6.639   1.771 -0.5712  0.1898 -0.6826
 7934TIP3    H245294   1.505   6.779   1.779 -2.1650  0.8724 -0.5387
 7935TIP3   OH245295   6.826   0.979   2.453 -0.3256  0.1165  0.2168
 7935TIP3    H145296   6.758   0.994   2.387 -0.9053 -0.2412  0.7105
 7935TIP3    H245297   6.835   1.063   2.497 -0.1949  0.2609 -0.0852
 7936TIP3   OH245298   5.900   6.653  12.765  0.4748  1.0865  0.4146
 7936TIP3    H145299   5.955   6.727  12.790  0.2418  1.2038  0.5762
 7936TIP3    H245300   5.811   6.681  12.783  0.3509  0.9338  0.0520
 7937TIP3   OH245301   0.250   0.843   2.490 -0.5486  0.7487 -0.2891
 7937TIP3    H145302   0.171   0.890   2.466 -0.8228  1.0317  1.0580
 7937TIP3    H245303   0.239   0.824   2.583  1.8708  2.7045  0.5185
 7938TIP3   OH245304   0.669   4.947   3.458  0.4933 -0.4427  0.2363
 7938TIP3    H145305   0.761   4.920   3.451  1.0515  1.7411 -2.5560
 7938TIP3    H245306   0.631   4.927   3.373 -1.5896 -1.0154  1.2344
 7939TIP3   OH245307   1.534   1.676  17.105 -0.0633  0.5052 -0.7634
 7939TIP3    H145308   1.578   1.591  17.108 -1.2232 -0.1248  2.9601
 7939TIP3    H245309   1.441   1.655  17.115 -0.1809  2.1909  2.8556
 7940TIP3   OH245310   1.853   4.381  12.274  0.3504 -0.2220  0.4573
 7940TIP3    H145311   1.829   4.307  12.218  1.1040 -0.5744  0.5766
 7940TIP3    H245312   1.784   4.385  12.340  0.4443 -1.0166  0.6148
 7941TIP3   OH245313   1.169   3.517  11.241 -0.5342 -0.5049  0.0581
 7941TIP3    H145314   1.181   3.457  11.315  0.7472  0.2287  0.4788
 7941TIP3    H245315   1.219   3.595  11.265 -0.9945  0.1789 -1.1133
 7942TIP3   OH245316   4.155   0.367   5.191  0.1064 -0.8773 -0.1214
 7942TIP3    H145317   4.094   0.389   5.261  0.7462  0.7450 -0.0405
 7942TIP3    H245318   4.110   0.297   5.142 -0.6236 -1.6032  1.4937
 7943TIP3   OH245319   4.287   3.281  12.606 -0.0015  0.0834  0.2040
 7943TIP3    H145320   4.223   3.326  12.661  0.6232  1.9011 -0.4872
 7943TIP3    H245321   4.281   3.324  12.521  0.9068 -0.9134 -0.3942
 7944TIP3   OH245322   0.777   1.832  14.596  0.3410 -0.4270 -0.5087
 7944TIP3    H145323   0.755   1.738  14.598 -2.0384 -0.0289 -2.7010
 7944TIP3    H245324   0.729   1.866  14.520  0.9505  2.6366  0.3527
 7945TIP3   OH245325   4.370   5.531  12.759 -0.2470 -0.2170 -0.2101
 7945TIP3    H145326   4.350   5.491  12.675  1.4998  0.4317 -0.9889
 7945TIP3    H245327   4.459   5.566  12.749  1.2282 -2.5615  2.7698
 7946TIP3   OH245328   1.050   3.492  10.999 -0.3679  0.4264  0.1662
 7946TIP3    H145329   1.078   3.487  11.091 -0.0943  0.9494  0.1120
 7946TIP3    H245330   1.086   3.413  10.960  0.0243  0.4953  0.3754
 7947TIP3   OH245331   6.391   1.667  10.609  0.1427 -0.2846  0.0570
 7947TIP3    H145332   6.331   1.673  10.535  1.1483  0.8890 -0.6935
 7947TIP3    H245333   6.477   1.686  10.573  0.8582 -0.9981  1.2940
 7948TIP3   OH245334   5.977   6.707  12.464  0.2772  0.0044  0.2658
 7948TIP3    H145335   5.916   6.633  12.461 -2.3741  2.0308 -1.1680
 7948TIP3    H245336   5.967   6.741  12.553  0.2549 -0.4176  0.4276
 7949TIP3   OH245337   5.318   5.864  13.296 -0.2315 -0.1898 -0.1349
 7949TIP3    H145338   5.394   5.828  13.340 -0.4341 -0.3628  0.0737
 7949TIP3    H245339   5.343   5.867  13.203 -0.0379 -0.4144 -0.0906
 7950TIP3   OH245340   1.147   6.493   2.324 -0.2311  0.0338  0.1033
 7950TIP3    H145341   1.242   6.496   2.314 -0.2121 -1.5165 -0.3793
 7950TIP3    H245342   1.113   6.525   2.241 -0.2101  2.9018  1.0734
 7951TIP3   OH245343   1.077   6.074   5.944  0.3966  0.1074  0.5591
 7951TIP3    H145344   1.005   6.134   5.964  0.0090  0.4826 -1.7100
 7951TIP3    H245345   1.154   6.131   5.938  0.2871  0.1901 -0.1627
 7952TIP3   OH245346   1.462   3.274  13.466 -0.0374  0.2437 -0.0704
 7952TIP3    H145347   1.420   3.291  13.382  0.6201  0.1966 -0.4156
 7952TIP3    H245348   1.542   3.227  13.443  0.4731  0.8096  0.5312
 7953TIP3   OH245349   4.329   1.000   3.284 -0.2149 -0.1444  0.1004
 7953TIP3    H145350   4.251   1.030   3.331 -0.7910 -1.6633  0.1830
 7953TIP3    H245351   4.294   0.961   3.204  0.7180  2.0524 -1.4850
 7954TIP3   OH245352   1.193   2.491  11.403  0.1585 -0.6639 -0.0923
 7954TIP3    H145353   1.202   2.565  11.463  0.3285 -1.1231  0.4636
 7954TIP3    H245354   1.196   2.414  11.460  0.8149 -1.1354 -0.7416
 7955TIP3   OH245355   5.628   3.818  13.513 -0.0030 -0.0446 -0.2355
 7955TIP3    H145356   5.605   3.903  13.550 -0.7754 -0.4526  0.2535
 7955TIP3    H245357   5.718   3.802  13.541  0.8354  1.4229 -1.8614
 7956TIP3   OH245358   3.090   5.199   5.509 -0.2684  0.0247 -0.4792
 7956TIP3    H145359   3.087   5.146   5.429 -0.5265  1.4931 -1.4614
 7956TIP3    H245360   3.044   5.146   5.574  0.4355 -1.4390 -1.1247
 7957TIP3   OH245361   6.068   4.811  13.966 -0.7540 -0.3287  0.1632
 7957TIP3    H145362   6.134   4.875  13.941 -1.2378  1.4041  2.8361
 7957TIP3    H245363   6.117   4.740  14.007 -0.3731  1.8321  3.9644
 7958TIP3   OH245364   4.740   2.129  12.184  0.2278 -0.4165 -0.1140
 7958TIP3    H145365   4.702   2.077  12.255 -2.2827  0.3816 -0.7732
 7958TIP3    H245366   4.804   2.185  12.228 -0.8000 -0.4002  1.4440
 7959TIP3   OH245367   4.687   3.555  15.918 -0.0463 -0.8289  0.1743
 7959TIP3    H145368   4.733   3.591  15.993  0.1885 -2.9266  1.1298
 7959TIP3    H245369   4.594   3.568  15.938  0.0415  0.4077 -0.1573
 7960TIP3   OH245370   4.936   5.319   3.709  0.1568 -0.1165 -0.0018
 7960TIP3    H145371   4.850   5.349   3.681  0.0013  0.0385  0.6110
 7960TIP3    H245372   4.986   5.399   3.722  1.0013 -0.2566 -2.1567
 7961TIP3   OH245373   1.054   2.685  14.845  0.4596 -0.2331 -0.3353
 7961TIP3    H145374   0.985   2.698  14.910  1.4502  1.3042  0.4731
 7961TIP3    H245375   1.034   2.600  14.805 -1.4375 -0.1762  0.4067
 7962TIP3   OH245376   2.009   5.022   2.935  0.2050 -0.3209  0.8390
 7962TIP3    H145377   2.024   5.069   2.854 -0.0196 -3.2590 -1.0541
 7962TIP3    H245378   2.087   4.967   2.946 -0.1218 -0.5539  2.1985
 7963TIP3   OH245379   6.624   2.162  12.654 -0.2593 -0.2134 -0.0543
 7963TIP3    H145380   6.623   2.182  12.748 -1.4455 -0.3880 -0.0089
 7963TIP3    H245381   6.618   2.066  12.650 -0.4764 -0.1910 -0.3006
 7964TIP3   OH245382   5.595   5.895  12.551  0.6272 -0.1265 -0.1994
 7964TIP3    H145383   5.563   5.844  12.626  0.6278 -0.3917 -0.3778
 7964TIP3    H245384   5.568   5.845  12.474 -3.6312  2.4477 -0.6615
 7965TIP3   OH245385   0.104   1.082  11.853 -0.4370 -0.1353  0.7129
 7965TIP3    H145386   0.078   1.123  11.936 -0.1585  0.8466  0.3328
 7965TIP3    H245387   0.098   0.988  11.870  0.0263  0.0411  1.9858
 7966TIP3   OH245388   5.919   6.358   0.813  0.5630  0.0941  0.5850
 7966TIP3    H145389   5.900   6.272   0.776  0.1300  0.1683  0.6272
 7966TIP3    H245390   6.007   6.378   0.783  0.8547 -0.5782  0.9739
 7967TIP3   OH245391   5.026   5.358  16.281  0.4123  0.1984  0.0848
 7967TIP3    H145392   4.976   5.291  16.327 -0.1208  1.0323  0.7434
 7967TIP3    H245393   5.086   5.308  16.225 -0.4572 -0.8187  0.0235
 7968TIP3   OH245394   6.632   4.184  13.442 -0.4620 -0.1884  0.1210
 7968TIP3    H145395   6.632   4.123  13.369  0.6061 -0.8509  0.6479
 7968TIP3    H245396   6.670   4.135  13.515 -1.4307  0.4717  1.1160
 7969TIP3   OH245397   4.016   6.020  13.123  0.2160 -0.1655  0.2874
 7969TIP3    H145398   4.050   6.105  13.150 -0.7553  0.8810 -1.5768
 7969TIP3    H245399   3.930   6.014  13.166  0.1449 -0.0472  0.1639
 7970TIP3   OH245400   2.023   2.517  11.789 -0.1674  0.1019  0.9141
 7970TIP3    H145401   2.096   2.524  11.728 -0.7659  1.5425  0.3253
 7970TIP3    H245402   1.991   2.428  11.778  1.1010 -0.3552  0.7386
 7971TIP3   OH245403   2.724   0.933  16.915  0.6045  0.4913  0.1340
 7971TIP3    H145404   2.790   0.960  16.851  0.4644  0.9826  0.1931
 7971TIP3    H245405   2.775   0.908  16.992  0.6905  1.9231  0.5759
 7972TIP3   OH245406   4.309   5.133   0.631  0.3226  0.4073 -0.0816
 7972TIP3    H145407   4.329   5.187   0.555  0.1482  0.2816 -0.2156
 7972TIP3    H245408   4.384   5.147   0.690 -0.2846  1.7182  0.4107
 7973TIP3   OH245409   6.487   3.507   2.602 -0.1484  0.7293  0.3681
 7973TIP3    H145410   6.569   3.464   2.581 -0.8933 -0.6189  0.1234
 7973TIP3    H245411   6.419   3.449   2.567 -1.2198  1.6391  0.8564
 7974TIP3   OH245412   6.571   5.762  12.896 -0.1513 -0.3397  0.7515
 7974TIP3    H145413   6.615   5.768  12.811  2.5911  0.5057  2.0965
 7974TIP3    H245414   6.505   5.831  12.894 -0.4867 -0.6623 -0.8259
 7975TIP3   OH245415   4.179   0.502  14.864 -0.4830  0.6102  0.2112
 7975TIP3    H145416   4.242   0.441  14.900 -0.5376  0.4516  0.0414
 7975TIP3    H245417   4.098   0.452  14.856 -0.4778  0.6484 -0.1051
 7976TIP3   OH245418   4.008   5.873   6.843 -0.3221  0.4027  0.5575
 7976TIP3    H145419   4.018   5.968   6.850 -0.8619  0.4963  0.1194
 7976TIP3    H245420   4.009   5.856   6.749 -1.7756  0.1504  0.5718
 7977TIP3   OH245421   5.488   3.981   3.748 -0.7365 -0.4348  0.1811
 7977TIP3    H145422   5.524   3.911   3.803 -1.3350 -1.6914 -0.9362
 7977TIP3    H245423   5.563   4.036   3.725 -0.2588 -0.6787  1.1402
 7978TIP3   OH245424   0.722   0.133   1.305 -0.1039 -0.0017 -0.2840
 7978TIP3    H145425   0.644   0.108   1.354  0.1217  2.1712  1.3588
 7978TIP3    H245426   0.687   0.175   1.226 -0.5588 -0.5208 -0.3647
 7979TIP3   OH245427   2.772   4.191  11.634 -1.0311 -0.0383  0.4349
 7979TIP3    H145428   2.710   4.255  11.669 -0.3044  0.4341  0.9119
 7979TIP3    H245429   2.820   4.160  11.711 -0.9460 -0.6844  0.1270
 7980TIP3   OH245430   2.704   0.462   0.847  0.1208  0.4716  0.0683
 7980TIP3    H145431   2.713   0.480   0.940  0.5393  0.4583  0.0328
 7980TIP3    H245432   2.613   0.436   0.836  0.0936  0.3874  0.4874
 7981TIP3   OH245433   2.305   6.693  16.553  0.1920 -0.3916 -0.2427
 7981TIP3    H145434   2.273   6.761  16.494  0.2950 -1.2723 -1.3718
 7981TIP3    H245435   2.229   6.670  16.607  0.0216  0.2692 -0.1987
 7982TIP3   OH245436   1.070   5.466   0.780 -0.2835 -0.3077  0.4567
 7982TIP3    H145437   1.071   5.374   0.752  1.3895 -0.2531  0.2300
 7982TIP3    H245438   1.055   5.515   0.699 -1.0361 -0.3613  0.5563
 7983TIP3   OH245439   2.728   2.761   6.005  0.1305  0.4260 -0.4437
 7983TIP3    H145440   2.768   2.732   5.922 -0.2375  2.0259 -1.2311
 7983TIP3    H245441   2.634   2.755   5.990  0.0607  0.7790 -0.1548
 7984TIP3   OH245442   0.940   3.467  10.667  0.3418 -0.2191 -0.4141
 7984TIP3    H145443   0.933   3.475  10.572  0.5482 -1.0459 -0.5020
 7984TIP3    H245444   0.975   3.552  10.695  2.4989 -0.7273 -1.3198
 7985TIP3   OH245445   2.076   3.253  14.394  0.1137 -0.3421 -0.3034
 7985TIP3    H145446   2.056   3.276  14.484  0.4256  1.2215 -0.6119
 7985TIP3    H245447   2.097   3.160  14.397 -1.6897 -0.7575  0.9225
 7986TIP3   OH245448   2.526   4.686   0.087  0.3183 -0.8487 -0.3152
 7986TIP3    H145449   2.489   4.606   0.124  1.4927 -1.1684  0.2407
 7986TIP3    H245450   2.554   4.660  -0.001 -1.3178 -0.4300 -0.9896
 7987TIP3   OH245451   4.307   1.450  14.986  0.8798 -0.2236  0.3609
 7987TIP3    H145452   4.221   1.455  15.029  0.9221  0.5918  0.3830
 7987TIP3    H245453   4.364   1.502  15.043  1.7408 -1.9288  1.1210
 7988TIP3   OH245454   5.599   2.435   3.465 -0.2847  0.4015 -0.0114
 7988TIP3    H145455   5.563   2.424   3.377 -0.0510 -0.5991  0.0112
 7988TIP3    H245456   5.566   2.360   3.514  2.4420 -1.0173 -0.1976
 7989TIP3   OH245457   0.868   3.502   2.733 -0.6014  0.3050  0.0418
 7989TIP3    H145458   0.803   3.511   2.803 -1.0258  2.2613 -0.5536
 7989TIP3    H245459   0.942   3.554   2.761  0.7044 -1.7464  0.6152
 7990TIP3   OH245460   2.015   0.992  14.309  0.1369 -0.8837  0.1251
 7990TIP3    H145461   1.947   0.972  14.373 -0.8637  0.4710 -0.4597
 7990TIP3    H245462   2.097   0.976  14.355 -0.5683 -0.2254  1.6624
 7991TIP3   OH245463   4.866   0.623  12.615 -0.4620  0.1949  0.0154
 7991TIP3    H145464   4.938   0.594  12.559 -2.1177 -3.3118 -0.5158
 7991TIP3    H245465   4.898   0.607  12.704 -0.1034 -0.0006 -0.1450
 7992TIP3   OH245466   2.663   5.965  14.766 -0.2584 -0.3358 -0.1795
 7992TIP3    H145467   2.694   5.992  14.853  1.5598  2.1031 -1.4458
 7992TIP3    H245468   2.572   5.995  14.763 -0.7485 -1.5600  1.2653
 7993TIP3   OH245469   5.289   3.927  15.814  0.2082 -0.3139 -0.6870
 7993TIP3    H145470   5.203   3.934  15.854 -0.1851  0.3392 -1.6041
 7993TIP3    H245471   5.311   3.834  15.818 -0.2590 -0.3972  0.1058
 7994TIP3   OH245472   1.360   3.430   4.457 -0.2803 -0.3889  0.0511
 7994TIP3    H145473   1.433   3.369   4.444  0.1187  0.0693  0.1136
 7994TIP3    H245474   1.302   3.413   4.383 -0.1945 -0.8719  0.0881
 7995TIP3   OH245475   5.294   0.884  14.290  0.2690 -0.7670  0.1953
 7995TIP3    H145476   5.380   0.888  14.247  0.3058  1.9029  0.3175
 7995TIP3    H245477   5.283   0.972  14.327 -1.7574 -1.6128  1.7219
 7996TIP3   OH245478   5.989   2.856   1.564 -0.2965 -0.1409 -0.0095
 7996TIP3    H145479   6.084   2.861   1.566 -0.3426  1.3815  2.1254
 7996TIP3    H245480   5.959   2.946   1.553 -1.4412 -0.2456  1.7519
 7997TIP3   OH245481   4.439   1.245   2.452 -0.4079  0.1099  0.6607
 7997TIP3    H145482   4.367   1.296   2.491  1.2239  3.2837 -0.1178
 7997TIP3    H245483   4.500   1.232   2.524 -0.4876 -0.1398  0.6858
 7998TIP3   OH245484   3.044   4.842   6.088 -0.3299 -0.1981 -0.0756
 7998TIP3    H145485   2.979   4.790   6.042  0.2822 -1.2685  0.2310
 7998TIP3    H245486   3.101   4.777   6.131  1.3581  0.6732 -0.9027
 7999TIP3   OH245487   4.430   5.517  16.870  0.0644 -0.5586 -0.2764
 7999TIP3    H145488   4.521   5.493  16.849  0.3154 -0.9258  1.1103
 7999TIP3    H245489   4.438   5.572  16.948 -0.9547 -1.3916  0.4404
 8000TIP3   OH245490   3.363   4.801   0.465 -0.9466  0.0964  0.6563
 8000TIP3    H145491   3.302   4.771   0.533 -1.0815  2.4023  1.6199
 8000TIP3    H245492   3.439   4.834   0.514  0.5007 -1.3815 -0.4814
 8001TIP3   OH245493   1.962   5.585  14.717 -0.2306 -0.2312 -0.2769
 8001TIP3    H145494   1.949   5.643  14.642 -2.2193 -1.4169 -0.9229
 8001TIP3    H245495   1.882   5.592  14.768 -0.0879 -1.6042  0.1920
 8002TIP3   OH245496   1.652   0.064  15.445  0.0744 -0.2463 -0.4565
 8002TIP3    H145497   1.663   0.068  15.540 -2.1582  0.3107 -0.1716
 8002TIP3    H245498   1.654  -0.029  15.424  2.5369 -0.3264 -0.2000
 8003TIP3   OH245499   6.442   5.267   2.635 -0.0459 -0.0536  0.2667
 8003TIP3    H145500   6.488   5.339   2.678  0.0937  0.5521 -0.8709
 8003TIP3    H245501   6.434   5.200   2.703  0.9408  0.5331  0.9802
 8004TIP3   OH245502   4.491   2.712   3.593 -0.0977 -0.1408 -0.5952
 8004TIP3    H145503   4.442   2.630   3.603 -2.5873  1.3641  0.6224
 8004TIP3    H245504   4.423   2.779   3.586  1.8106  2.0928  0.7743
 8005TIP3   OH245505   2.239   4.653  12.095  0.5453  0.2953  0.1358
 8005TIP3    H145506   2.153   4.624  12.065 -0.0657  2.2448 -0.1963
 8005TIP3    H245507   2.221   4.705  12.174  1.5166 -0.0088  0.5759
 8006TIP3   OH245508   2.149   6.314   3.318  0.6024 -0.7661 -0.4486
 8006TIP3    H145509   2.107   6.350   3.240  1.3485 -0.0613 -0.5361
 8006TIP3    H245510   2.243   6.327   3.303  0.7095  0.7300  1.1968
 8007TIP3   OH245511   0.816   4.275   4.805 -0.3301 -0.4312  0.6904
 8007TIP3    H145512   0.832   4.205   4.742 -1.5585  1.5480 -1.9829
 8007TIP3    H245513   0.903   4.311   4.823 -0.0696 -0.1506 -0.9861
 8008TIP3   OH245514   5.814   1.447  11.148  0.2225 -0.3866 -0.1635
 8008TIP3    H145515   5.752   1.516  11.171  0.3019  0.1942 -1.5631
 8008TIP3    H245516   5.761   1.368  11.142 -0.1439 -0.1529 -0.0537
 8009TIP3   OH245517   1.497   2.495  16.054 -0.3104 -0.5680 -0.4708
 8009TIP3    H145518   1.578   2.485  16.104  0.1459  1.2117 -0.7992
 8009TIP3    H245519   1.458   2.576  16.086 -1.4351 -0.8454 -1.0639
 8010TIP3   OH245520   2.586   5.562  11.318  0.0336 -0.5307  0.0292
 8010TIP3    H145521   2.650   5.610  11.266 -0.2327 -2.2322 -2.0341
 8010TIP3    H245522   2.502   5.602  11.295 -0.0137 -0.8508 -0.3807
 8011TIP3   OH245523   4.668   2.122  11.814 -0.9669 -0.0081 -0.2004
 8011TIP3    H145524   4.705   2.075  11.739  2.0622  0.9785  0.5359
 8011TIP3    H245525   4.653   2.211  11.781 -1.0631  0.0429 -0.0223
 8012TIP3   OH245526   1.904   5.768   2.108  0.1428 -0.1620  0.2780
 8012TIP3    H145527   1.815   5.748   2.138  0.5256 -1.5573  0.5523
 8012TIP3    H245528   1.960   5.711   2.161  1.2464  1.0257  0.4268
 8013TIP3   OH245529   4.542   3.306   4.270  0.2237  0.3813  0.4523
 8013TIP3    H145530   4.458   3.353   4.266 -0.5123 -0.8375  1.0793
 8013TIP3    H245531   4.518   3.214   4.266  1.3686 -0.0843  2.7329
 8014TIP3   OH245532   3.248   1.644   4.843  0.3465 -0.0655 -0.7662
 8014TIP3    H145533   3.220   1.702   4.914  1.9621 -2.5249  2.1135
 8014TIP3    H245534   3.330   1.683   4.811  0.0085  0.6596 -0.7618
 8015TIP3   OH245535   3.644   4.255   2.508 -0.5611 -0.5889 -0.0111
 8015TIP3    H145536   3.583   4.301   2.567  0.9885 -1.0643  2.0708
 8015TIP3    H245537   3.598   4.174   2.485 -1.8246  0.3088 -0.7808
 8016TIP3   OH245538   2.935   4.080  16.224  0.6152  0.6658  0.3730
 8016TIP3    H145539   3.002   4.141  16.195  0.2231  1.8332  1.8064
 8016TIP3    H245540   2.979   4.023  16.287  0.4456  1.0176  0.8239
 8017TIP3   OH245541   3.306   5.874   1.284 -0.1555  0.4272 -0.2474
 8017TIP3    H145542   3.233   5.928   1.314 -0.0096  0.6421 -0.2711
 8017TIP3    H245543   3.269   5.787   1.270 -0.5992  0.7396 -1.0755
 8018TIP3   OH245544   4.736   5.251  11.139 -0.2056 -0.1267  0.6033
 8018TIP3    H145545   4.712   5.173  11.189 -0.4194 -0.0364  0.6422
 8018TIP3    H245546   4.701   5.234  11.051  2.0462 -1.2585 -0.1466
 8019TIP3   OH245547   1.679   5.352   4.582  0.2959 -0.1602  0.0173
 8019TIP3    H145548   1.685   5.443   4.611  0.8845 -0.2337  0.1464
 8019TIP3    H245549   1.598   5.348   4.532  0.6280  0.6139 -0.6069
 8020TIP3   OH245550   3.908   6.480   5.236  0.5472  0.2871  0.2874
 8020TIP3    H145551   3.931   6.572   5.249  0.8232  0.2248  0.2589
 8020TIP3    H245552   3.855   6.457   5.311 -1.2895  1.0423 -0.7198
 8021TIP3   OH245553   3.113   3.065  12.422  0.0275  0.3580  0.1195
 8021TIP3    H145554   3.175   2.994  12.406  0.1979  0.3701  0.6882
 8021TIP3    H245555   3.132   3.093  12.512  2.2281  3.3325 -1.1035
 8022TIP3   OH245556   0.144   1.158  15.056  0.0037 -0.0408 -0.0766
 8022TIP3    H145557   0.090   1.224  15.100  0.1750  0.9277 -1.2334
 8022TIP3    H245558   0.166   1.199  14.972  2.4049 -0.4714  0.2918
 8023TIP3   OH245559   3.449   1.716  15.658  0.0979 -0.4925 -0.0522
 8023TIP3    H145560   3.432   1.723  15.752  0.9956 -1.2461  0.1795
 8023TIP3    H245561   3.362   1.702  15.619 -0.3835  0.6440  0.5598
 8024TIP3   OH245562   1.956   0.835   2.272  0.4863  0.3417 -0.4290
 8024TIP3    H145563   1.929   0.754   2.230  0.1740  0.1487  0.1341
 8024TIP3    H245564   1.874   0.885   2.284  0.6226  0.5621 -0.4037
 8025TIP3   OH245565   4.759   4.224   0.179  0.2179  0.1724 -0.0171
 8025TIP3    H145566   4.800   4.138   0.177 -0.6269 -0.2586  0.6953
 8025TIP3    H245567   4.668   4.208   0.154 -0.4281  0.5536  1.9261
 8026TIP3   OH245568   2.987   6.623   2.330  0.2915  0.3676 -0.0103
 8026TIP3    H145569   2.981   6.692   2.265 -0.3696  1.1331  0.8430
 8026TIP3    H245570   3.076   6.630   2.365 -0.1806  1.6351  0.9793
 8027TIP3   OH245571   3.091   1.096   1.301  0.1387 -0.8599 -0.2186
 8027TIP3    H145572   3.043   1.071   1.222 -1.5528  0.9014  0.1818
 8027TIP3    H245573   3.031   1.078   1.373  0.4126  0.5062  0.3874
 8028TIP3   OH245574   3.679   5.335   0.655  0.2061  0.5936 -0.1901
 8028TIP3    H145575   3.747   5.332   0.723 -0.8657  1.1878  0.9482
 8028TIP3    H245576   3.710   5.400   0.593  2.2963 -1.5409 -1.5501
 8029TIP3   OH245577   4.809   4.854  16.265  0.5420  0.0526 -0.0377
 8029TIP3    H145578   4.859   4.819  16.191  3.1729  0.8973  1.2202
 8029TIP3    H245579   4.759   4.927  16.228  0.7210 -0.4134 -1.2387
 8030TIP3   OH245580   2.639   1.216   1.038 -0.5170 -0.0324 -0.8133
 8030TIP3    H145581   2.648   1.309   1.019 -1.5295  0.3955  0.6412
 8030TIP3    H245582   2.674   1.172   0.960  2.4774  1.4895 -0.4722
 8031TIP3   OH245583   1.185   3.832  16.607  0.0723  0.6186  0.1117
 8031TIP3    H145584   1.162   3.849  16.699  0.1218  1.2332  0.0114
 8031TIP3    H245585   1.274   3.797  16.612  0.6977  2.1569  0.1892
 8032TIP3   OH245586   2.977   3.922   4.977  0.3437  0.1702  0.4811
 8032TIP3    H145587   3.024   4.004   4.994  3.0707 -1.2806  0.5277
 8032TIP3    H245588   2.984   3.873   5.059  0.0410 -0.6965  0.0028
 8033TIP3   OH245589   3.680   1.946  14.590 -0.4620 -0.6457  0.1057
 8033TIP3    H145590   3.595   1.967  14.628 -1.4418  1.2094 -2.7399
 8033TIP3    H245591   3.690   1.852  14.602 -1.5785 -0.5002  2.9144
 8034TIP3   OH245592   0.212   6.073  13.372 -0.2314 -0.0792  0.0864
 8034TIP3    H145593   0.180   6.130  13.442 -0.0731  0.3804 -0.2088
 8034TIP3    H245594   0.290   6.031  13.409  0.3482  0.8102 -0.0948
 8035TIP3   OH245595   1.841   5.591  15.198  0.6090 -0.1308  0.4354
 8035TIP3    H145596   1.834   5.496  15.189 -1.4710 -0.1744  1.7491
 8035TIP3    H245597   1.878   5.604  15.285  1.3116  0.2786  0.0805
 8036TIP3   OH245598   6.768   4.783   2.907  0.6577  0.2414 -0.3874
 8036TIP3    H145599   6.838   4.837   2.870  2.7340 -2.5027 -0.7935
 8036TIP3    H245600   6.777   4.793   3.001  1.1875  0.3998 -0.4529
 8037TIP3   OH245601   6.842   5.977  15.133  0.2325  0.1954 -0.0496
 8037TIP3    H145602   6.850   6.062  15.175  0.5665  0.1983 -0.1116
 8037TIP3    H245603   6.851   5.914  15.204  0.5760  0.2040 -0.0803
 8038TIP3   OH245604   2.786   5.336   4.609 -0.6568  0.1420  0.4305
 8038TIP3    H145605   2.873   5.346   4.571 -0.1590 -2.4578  0.6854
 8038TIP3    H245606   2.781   5.403   4.677  1.2710  0.1799  0.5712
 8039TIP3   OH245607   2.152   5.863  14.350 -0.5699  0.1330  0.0077
 8039TIP3    H145608   2.238   5.852  14.309  0.6033  0.1583  2.3496
 8039TIP3    H245609   2.125   5.952  14.325 -0.3083 -0.1366 -1.3422
 8040TIP3   OH245610   5.563   0.027  15.568 -0.5725  0.7421  0.2164
 8040TIP3    H145611   5.501   0.098  15.553 -0.8226  0.8058  1.4600
 8040TIP3    H245612   5.564   0.015  15.663  0.0120 -0.4262  0.0885
 8041TIP3   OH245613   1.044   1.481   1.064  0.6946  0.2547 -0.8106
 8041TIP3    H145614   0.991   1.423   1.120 -0.6990  2.0016 -0.1964
 8041TIP3    H245615   1.121   1.502   1.117 -0.1898  1.1855  0.1747
 8042TIP3   OH245616   3.495   5.329   5.884  0.5999  0.6629  0.5224
 8042TIP3    H145617   3.549   5.274   5.941 -2.3171 -1.1797  1.7492
 8042TIP3    H245618   3.513   5.296   5.796  3.3626  1.9185  0.5260
 8043TIP3   OH245619   1.428   6.175  12.592 -0.3141 -0.4760 -0.3363
 8043TIP3    H145620   1.360   6.163  12.525  0.9639 -0.3268 -1.7154
 8043TIP3    H245621   1.510   6.181  12.542  0.6021  0.4037  1.2006
 8044TIP3   OH245622   1.733   6.774  14.543 -0.5046  0.4221 -0.2761
 8044TIP3    H145623   1.699   6.748  14.628  0.0385 -0.4220 -0.3026
 8044TIP3    H245624   1.744   6.869  14.549  1.0032  0.2111  1.1587
 8045TIP3   OH245625   5.487   0.884   5.158 -0.1296  0.8308 -0.6603
 8045TIP3    H145626   5.510   0.888   5.250 -0.0414  0.4098 -0.6596
 8045TIP3    H245627   5.504   0.793   5.133 -0.0404  0.9706 -1.1206
 8046TIP3   OH245628   6.413   5.277  16.667  0.1435 -0.0706 -0.3453
 8046TIP3    H145629   6.337   5.287  16.725  0.4963  0.1178  0.0814
 8046TIP3    H245630   6.384   5.316  16.584 -0.9347 -1.7428 -0.8294
 8047TIP3   OH245631   0.075   5.514   2.177 -0.4071  0.1331  0.2042
 8047TIP3    H145632   0.085   5.462   2.257  1.5154 -0.7739 -0.5514
 8047TIP3    H245633   0.052   5.601   2.208 -0.2775 -0.3373  1.7157
 8048TIP3   OH245634   0.599   4.555   5.497  0.4469 -0.3678  0.1519
 8048TIP3    H145635   0.516   4.587   5.462 -0.3696 -0.9711  1.4665
 8048TIP3    H245636   0.592   4.459   5.492  1.4300 -0.4235 -0.5070
 8049TIP3   OH245637   1.371   5.250  13.587  0.3550 -0.0515  0.5865
 8049TIP3    H145638   1.403   5.171  13.544 -1.5951 -0.7907  0.4127
 8049TIP3    H245639   1.281   5.259  13.556  0.6158  2.4166  0.3681
 8050TIP3   OH245640   3.315   1.699   3.390  0.0079 -0.3602  0.3755
 8050TIP3    H145641   3.258   1.732   3.321  0.4532 -0.6711 -0.1569
 8050TIP3    H245642   3.385   1.654   3.342 -0.2878 -1.5722  1.0532
 8051TIP3   OH245643   1.972   2.179   6.256 -0.5932 -0.2312 -0.1273
 8051TIP3    H145644   1.896   2.198   6.311 -0.2886  0.9590 -0.0781
 8051TIP3    H245645   1.943   2.110   6.197 -1.7970  0.3940 -0.2932
 8052TIP3   OH245646   1.022   3.195   4.920 -0.8317 -0.1649 -0.8873
 8052TIP3    H145647   1.031   3.134   4.994 -0.8351 -0.1129 -0.8441
 8052TIP3    H245648   0.980   3.272   4.958 -1.3856 -0.3743 -1.0765
 8053TIP3   OH245649   5.774   1.566  14.340 -0.3350 -0.2068 -0.2846
 8053TIP3    H145650   5.711   1.500  14.311 -1.3430  0.6683 -0.1322
 8053TIP3    H245651   5.727   1.649  14.333  0.9348  0.5157 -0.5371
 8054TIP3   OH245652   5.920   0.968  11.419 -0.3731  0.1446 -0.3730
 8054TIP3    H145653   5.865   1.047  11.418  0.9868  1.1419  0.2956
 8054TIP3    H245654   5.982   0.984  11.491  0.9243 -0.8472 -1.2411
 8055TIP3   OH245655   3.066   2.008   0.259 -0.5657 -0.1562  0.2820
 8055TIP3    H145656   3.044   2.094   0.224 -0.1821 -0.0310  0.3449
 8055TIP3    H245657   3.022   2.004   0.344  0.4956  0.5096  0.8900
 8056TIP3   OH245658   3.503   0.650  13.885  0.2410  0.3102  0.5669
 8056TIP3    H145659   3.597   0.637  13.873 -0.0694 -0.0770 -1.7425
 8056TIP3    H245660   3.478   0.581  13.947  1.0537 -1.2725 -0.7897
 8057TIP3   OH245661   1.847   2.914  15.104 -0.0195  0.4502 -0.3820
 8057TIP3    H145662   1.919   2.855  15.081  0.6618  0.7818  0.8200
 8057TIP3    H245663   1.852   2.985  15.040  1.1703  0.8192  0.1005
 8058TIP3   OH245664   2.915   4.181   5.804 -0.6349 -0.3161 -0.3218
 8058TIP3    H145665   2.893   4.097   5.844  0.6610 -0.9888 -0.9549
 8058TIP3    H245666   2.993   4.210   5.850 -0.5297  0.0727 -0.7340
 8059TIP3   OH245667   0.645   0.338   5.008 -0.2300  0.0924  0.9283
 8059TIP3    H145668   0.701   0.266   4.980 -0.3191  0.8015 -1.2723
 8059TIP3    H245669   0.705   0.410   5.025 -0.3665  0.8414 -1.3948
 8060TIP3   OH245670   4.915   4.108   4.700 -0.2793 -0.1194  0.0956
 8060TIP3    H145671   4.907   4.111   4.604  1.2575  1.8817 -0.0338
 8060TIP3    H245672   4.979   4.038   4.716  1.1784  0.9973 -0.5543
 8061TIP3   OH245673   4.844   1.626   1.945  0.2247 -0.8345 -0.0823
 8061TIP3    H145674   4.816   1.675   2.022  0.9594  0.2359 -0.4734
 8061TIP3    H245675   4.774   1.640   1.881  1.1990  1.2680 -0.8172
 8062TIP3   OH245676   0.057   0.666   1.902  0.3327  0.0698 -0.4599
 8062TIP3    H145677   0.114   0.731   1.942  0.2820  0.4124 -0.9309
 8062TIP3    H245678  -0.024   0.671   1.952 -0.0515  1.1279 -1.1443
 8063TIP3   OH245679   0.825   0.653  15.359  0.0007  0.8357 -0.5191
 8063TIP3    H145680   0.769   0.692  15.292 -0.6531  0.0849 -0.4180
 8063TIP3    H245681   0.777   0.665  15.441 -0.0072  0.1937 -0.4314
 8064TIP3   OH245682   6.292   5.036   3.264 -0.2303  0.5212  0.2152
 8064TIP3    H145683   6.325   5.116   3.224 -2.4539  1.1314 -0.5493
 8064TIP3    H245684   6.281   5.058   3.357 -2.6829  1.8516 -0.3039
 8065TIP3   OH245685   6.807   5.556  12.799 -0.4407 -0.3633 -0.4648
 8065TIP3    H145686   6.863   5.571  12.723  0.4026 -0.3752  0.1289
 8065TIP3    H245687   6.719   5.575  12.769  0.0003  0.6945 -1.1628
 8066TIP3   OH245688   3.220   5.372   2.146 -0.3165  0.0484  0.2860
 8066TIP3    H145689   3.173   5.338   2.069 -1.2089 -0.9509  1.2361
 8066TIP3    H245690   3.252   5.293   2.191 -0.9548  0.5285  1.6402
 8067TIP3   OH245691   0.324   0.069   3.763  0.2173 -0.0776  0.2628
 8067TIP3    H145692   0.316   0.045   3.855 -1.8876  0.5599  0.3001
 8067TIP3    H245693   0.269   0.006   3.716 -1.1847  1.4089 -0.1859
 8068TIP3   OH245694   5.425   6.109   4.731  0.5272  0.1696  0.0084
 8068TIP3    H145695   5.468   6.195   4.727  1.8282 -0.4274  0.5361
 8068TIP3    H245696   5.347   6.123   4.784  1.6319  0.6876  1.5480
 8069TIP3   OH245697   5.431   1.998  17.000 -0.1544  0.2841  0.0546
 8069TIP3    H145698   5.476   1.913  17.004 -0.7771 -0.1343 -1.1819
 8069TIP3    H245699   5.361   1.984  16.936 -1.4359  1.1983  1.2123
 8070TIP3   OH245700   4.930   6.257  14.469 -0.1738  0.1471  0.2420
 8070TIP3    H145701   4.875   6.204  14.526  0.5196  1.7526  2.5487
 8070TIP3    H245702   5.018   6.220  14.479 -0.1103  0.2108 -0.0684
 8071TIP3   OH245703   2.129   4.285  12.035 -0.3738 -0.0712  0.7137
 8071TIP3    H145704   2.078   4.366  12.036 -0.7746 -0.2794 -0.5093
 8071TIP3    H245705   2.220   4.314  12.028 -0.4118  0.2815  1.5588
 8072TIP3   OH245706   6.321   2.919  15.519  0.2244  0.2776 -0.2780
 8072TIP3    H145707   6.262   2.902  15.446 -0.0648 -0.9418  0.2323
 8072TIP3    H245708   6.293   2.860  15.588  0.9053  0.9623  0.6123
 8073TIP3   OH245709   2.135   6.828   6.643 -0.0470  0.4430  0.1507
 8073TIP3    H145710   2.141   6.901   6.581 -1.3510 -0.5170 -1.1629
 8073TIP3    H245711   2.070   6.769   6.605 -0.6497 -0.3598  2.2832
 8074TIP3   OH245712   6.322   6.035  15.290 -0.0568 -0.6097  0.2623
 8074TIP3    H145713   6.296   5.956  15.338 -0.8043  0.4332  1.6314
 8074TIP3    H245714   6.416   6.042  15.305 -0.4217  0.2661  2.5484
 8075TIP3   OH245715   0.181   3.009  11.207 -0.3538 -0.2561  0.2595
 8075TIP3    H145716   0.226   3.050  11.133 -1.6130  1.0586  0.1898
 8075TIP3    H245717   0.222   2.922  11.214  1.3149  0.4227 -0.5516
 8076TIP3   OH245718   5.281   4.392  14.218 -0.3347  0.1735 -0.1231
 8076TIP3    H145719   5.257   4.326  14.153 -0.6761  2.1633 -2.1207
 8076TIP3    H245720   5.376   4.401  14.209 -0.3644  0.3568 -0.2489
 8077TIP3   OH245721   3.081   2.920   2.507  0.8927  0.0534 -0.2507
 8077TIP3    H145722   3.158   2.937   2.561  0.5519 -0.4486  0.4066
 8077TIP3    H245723   3.101   2.961   2.422  0.4079  3.1385  0.9862
 8078TIP3   OH245724   2.490   3.926   2.092  0.1992  0.3141 -0.3668
 8078TIP3    H145725   2.514   3.986   2.163  1.9373  0.4593 -1.0284
 8078TIP3    H245726   2.484   3.982   2.014  1.5580 -0.2817 -0.9367
 8079TIP3   OH245727   6.193   1.170  16.920 -0.6423 -0.3587  0.5352
 8079TIP3    H145728   6.106   1.175  16.958 -0.5176 -0.6980  0.8698
 8079TIP3    H245729   6.252   1.192  16.992 -0.4627  0.1730  0.2368
 8080TIP3   OH245730   0.297   1.510   2.523  0.6149 -0.4276  0.2221
 8080TIP3    H145731   0.381   1.504   2.568  1.5436  0.0536 -1.3758
 8080TIP3    H245732   0.249   1.577   2.571  2.3988  1.6189 -0.6917
 8081TIP3   OH245733   1.914   1.564  12.794 -0.2936 -0.3047 -0.7805
 8081TIP3    H145734   1.861   1.639  12.822  0.3201  0.2687 -1.1334
 8081TIP3    H245735   1.922   1.574  12.699  0.7834 -0.1550 -0.6838
 8082TIP3   OH245736   2.325   3.347  15.166  0.0914  0.5756  0.0668
 8082TIP3    H145737   2.269   3.404  15.113 -0.1754  0.9078  0.6941
 8082TIP3    H245738   2.376   3.408  15.220  1.2270  0.2917 -0.6448
 8083TIP3   OH245739   3.902   0.712   6.669  0.4297 -0.4706 -0.2357
 8083TIP3    H145740   3.970   0.708   6.736  0.0541  1.6203  0.3411
 8083TIP3    H245741   3.946   0.749   6.592 -0.1213  1.5150  0.3416
 8084TIP3   OH245742   5.209   2.933  14.647 -0.0982  0.5022  0.2918
 8084TIP3    H145743   5.253   2.865  14.596 -0.5163 -0.5894  1.3510
 8084TIP3    H245744   5.276   2.965  14.707  0.0253  0.8583 -0.0293
 8085TIP3   OH245745   2.201   1.955  14.257  0.2815 -0.2509  0.0099
 8085TIP3    H145746   2.191   1.861  14.271  0.2867 -0.8826 -3.3374
 8085TIP3    H245747   2.285   1.964  14.212  1.1143  1.6142  1.7905
 8086TIP3   OH245748   4.538   3.671  17.052  0.5264 -0.2228 -0.1879
 8086TIP3    H145749   4.545   3.617  16.973  1.2787 -0.0059 -0.2797
 8086TIP3    H245750   4.599   3.631  17.114 -0.4026 -0.6664  0.4583
 8087TIP3   OH245751   6.000   3.590  12.241 -0.5936 -0.7137 -0.4592
 8087TIP3    H145752   5.948   3.648  12.186 -0.7491 -2.2315 -2.0205
 8087TIP3    H245753   6.084   3.634  12.251 -0.6889 -0.2289 -1.6386
 8088TIP3   OH245754   0.175   2.407   2.171 -0.7620 -0.6420 -0.2534
 8088TIP3    H145755   0.153   2.347   2.100 -0.4925 -1.4988  0.3775
 8088TIP3    H245756   0.129   2.372   2.247  1.7832 -1.8151  0.8351
 8089TIP3   OH245757   2.633   3.277  13.956 -0.3784 -0.0642 -0.1458
 8089TIP3    H145758   2.610   3.189  13.926 -1.0861  0.5664 -1.5269
 8089TIP3    H245759   2.565   3.334  13.920 -0.9875  0.8446  2.2528
 8090TIP3   OH245760   4.855   3.449  12.397 -0.6234  0.0703  0.1581
 8090TIP3    H145761   4.800   3.445  12.476 -0.0007  1.7596  0.7220
 8090TIP3    H245762   4.937   3.490  12.427 -1.1690  2.8194 -1.7542
 8091TIP3   OH245763   6.825   4.216  14.740 -0.3141 -0.8186 -0.3437
 8091TIP3    H145764   6.920   4.222  14.755 -0.2400 -1.3383 -0.5911
 8091TIP3    H245765   6.796   4.307  14.738 -0.0880 -0.6652  1.3602
 8092TIP3   OH245766   3.624   3.542  16.665 -0.5965  0.0294  0.5716
 8092TIP3    H145767   3.719   3.527  16.659 -0.7027 -1.1446  1.4845
 8092TIP3    H245768   3.594   3.479  16.730 -1.9240  0.8020  0.7387
 8093TIP3   OH245769   1.831   1.359  14.626  0.5928  0.2090 -0.4902
 8093TIP3    H145770   1.885   1.310  14.688  0.2408 -0.7248 -0.9128
 8093TIP3    H245771   1.752   1.381  14.676 -0.0549 -1.2517 -0.8219
 8094TIP3   OH245772   1.172   0.102   5.067 -0.0964 -0.5776  0.2483
 8094TIP3    H145773   1.215   0.058   4.994 -0.6787 -0.1250 -0.3785
 8094TIP3    H245774   1.082   0.114   5.039  0.2666  1.9977 -0.0987
 8095TIP3   OH245775   2.364   1.943  12.839  0.1989  0.4838 -0.5742
 8095TIP3    H145776   2.365   1.848  12.840 -2.6784  0.3397  1.2592
 8095TIP3    H245777   2.270   1.966  12.838  0.7879  3.2770 -0.7553
 8096TIP3   OH245778   1.635   4.492  15.077  0.0472  0.1915  0.0844
 8096TIP3    H145779   1.701   4.529  15.136 -0.8873 -0.2133  1.4379
 8096TIP3    H245780   1.577   4.443  15.135 -1.6116  0.7743 -1.0386
 8097TIP3   OH245781   0.733   6.414  14.741 -0.4920  0.4013  0.0147
 8097TIP3    H145782   0.798   6.431  14.810 -0.5845 -2.6968  1.0219
 8097TIP3    H245783   0.650   6.409  14.787 -0.6592 -0.9404 -0.3806
 8098TIP3   OH245784   0.646   6.499   3.318 -0.0186  0.2815 -0.1196
 8098TIP3    H145785   0.691   6.571   3.362 -1.1926  0.8327  0.2341
 8098TIP3    H245786   0.688   6.420   3.351  0.0188  0.7414  0.9764
 8099TIP3   OH245787   4.498   0.050  11.382 -0.3458  0.0860  0.0498
 8099TIP3    H145788   4.414   0.020  11.417 -0.8012  1.1816 -0.0481
 8099TIP3    H245789   4.525   0.119  11.442  0.2842  0.0255 -0.1586
 8100TIP3   OH245790   1.726   1.693   4.473  0.0851 -0.0038  0.0566
 8100TIP3    H145791   1.728   1.604   4.437  0.8717  0.3144 -0.7243
 8100TIP3    H245792   1.736   1.682   4.567 -2.3824 -0.8938  0.2948
 8101TIP3   OH245793   3.905   0.853  13.235  0.0010 -0.3289  0.5974
 8101TIP3    H145794   3.837   0.847  13.301 -0.9220  0.4248 -0.2590
 8101TIP3    H245795   3.919   0.947  13.222  1.2222 -0.4629  0.7585
 8102TIP3   OH245796   0.664   1.968  11.000 -0.1157 -0.8573  0.1570
 8102TIP3    H145797   0.659   1.873  10.985  0.7051 -1.0704  1.1519
 8102TIP3    H245798   0.751   1.992  10.969 -0.5260 -0.3165 -0.6035
 8103TIP3   OH245799   2.428   2.435   3.487 -0.0818 -0.1434 -0.3321
 8103TIP3    H145800   2.359   2.501   3.488  0.1925  0.1760 -1.4685
 8103TIP3    H245801   2.493   2.469   3.549 -0.4425  0.0875 -0.0717
 8104TIP3   OH245802   0.796   1.824  13.828  0.1010 -0.7261  0.2187
 8104TIP3    H145803   0.798   1.798  13.920  1.0941 -0.1257  0.3848
 8104TIP3    H245804   0.706   1.854  13.813  0.5951  1.8213  1.7744
 8105TIP3   OH245805   1.566   6.720  16.845 -0.3140  0.1065  0.1887
 8105TIP3    H145806   1.557   6.793  16.784 -0.8618  0.1791  0.3506
 8105TIP3    H245807   1.614   6.756  16.919  0.7050 -0.0847 -0.3598
 8106TIP3   OH245808   4.111   3.876  11.545  0.2548 -0.0490  0.3936
 8106TIP3    H145809   4.137   3.841  11.461 -1.4152 -2.7861  0.8727
 8106TIP3    H245810   4.133   3.807  11.608 -1.2082  0.6385  1.7464
 8107TIP3   OH245811   5.074   2.921  13.222 -0.1439  0.0939  0.8261
 8107TIP3    H145812   5.131   2.870  13.164 -1.1081  0.6677 -0.6806
 8107TIP3    H245813   5.086   2.881  13.308  0.0742 -1.8955 -0.0668
 8108TIP3   OH245814   0.288   3.459  12.976 -0.1771  0.3758 -0.2287
 8108TIP3    H145815   0.362   3.516  12.955  1.3569 -1.4857 -0.1503
 8108TIP3    H245816   0.254   3.493  13.060  0.3137  1.4834 -0.4582
 8109TIP3   OH245817   5.925   2.863  12.491 -0.3517  0.2337  0.5835
 8109TIP3    H145818   5.909   2.770  12.504  0.2195 -0.0788 -0.7924
 8109TIP3    H245819   5.958   2.870  12.401  3.5978  1.2261  1.8899
 8110TIP3   OH245820   5.996   5.535  13.939  0.4493 -0.3048 -0.7573
 8110TIP3    H145821   6.066   5.576  13.991  0.6080  0.8333 -1.8251
 8110TIP3    H245822   5.955   5.473  14.000  1.1004  0.4420  0.4996
 8111TIP3   OH245823   0.374   2.999  14.575 -0.3353  0.6137  0.0611
 8111TIP3    H145824   0.312   3.055  14.528 -1.4060  0.9863  1.8216
 8111TIP3    H245825   0.376   3.034  14.664  3.2714  1.2737 -0.1480
 8112TIP3   OH245826   0.367   2.639   4.923 -0.0299  0.2998  0.1645
 8112TIP3    H145827   0.456   2.606   4.931 -0.2815 -0.2538  0.6911
 8112TIP3    H245828   0.332   2.637   5.012 -1.0597 -0.8850 -0.2374
 8113TIP3   OH245829   6.760   3.577  15.858  0.1964 -0.0489 -0.1728
 8113TIP3    H145830   6.792   3.667  15.854  0.5758 -0.1368  0.6681
 8113TIP3    H245831   6.677   3.578  15.809  0.9003  0.4326 -1.3880
 8114TIP3   OH245832   0.225   5.333  12.842  0.6487 -0.1410  0.2643
 8114TIP3    H145833   0.164   5.276  12.889  1.8083 -0.6333  1.1962
 8114TIP3    H245834   0.260   5.392  12.909  2.1506 -0.7013  0.0096
 8115TIP3   OH245835   2.796   0.162   0.415 -0.1497 -0.1152  0.5483
 8115TIP3    H145836   2.786   0.140   0.508 -0.7748 -0.8430  0.3184
 8115TIP3    H245837   2.835   0.084   0.376  0.5829  0.3693  0.2736
 8116TIP3   OH245838   2.704   2.381  10.960 -0.4353  0.1360 -0.1532
 8116TIP3    H145839   2.610   2.395  10.972 -0.4239  1.3548 -1.2708
 8116TIP3    H245840   2.711   2.287  10.939 -1.3256 -0.0847  0.4501
 8117TIP3   OH245841   3.195   3.226  12.659  0.3036  0.1506 -0.3870
 8117TIP3    H145842   3.221   3.272  12.579  0.9549  0.1235 -0.1891
 8117TIP3    H245843   3.273   3.177  12.686  1.0443  2.3382  1.8242
 8118TIP3   OH245844   6.066   5.740   3.313  0.0928 -0.4526 -1.0115
 8118TIP3    H145845   6.039   5.724   3.404 -0.8437  1.4877 -0.8841
 8118TIP3    H245846   6.161   5.748   3.317  0.0263  0.0317 -0.1129
 8119TIP3   OH245847   2.828   5.118  16.105 -0.1734 -0.0873 -0.3765
 8119TIP3    H145848   2.914   5.144  16.138 -0.2515 -0.1565 -0.1122
 8119TIP3    H245849   2.770   5.123  16.182 -0.5696  0.6858 -0.7146
 8120TIP3   OH245850   1.610   6.786   3.296  0.5018  0.0633 -0.0530
 8120TIP3    H145851   1.519   6.778   3.265  0.8801  0.7235 -1.4162
 8120TIP3    H245852   1.649   6.701   3.277  1.5105  1.2329 -4.2918
 8121TIP3   OH245853   6.301   2.055  12.716 -0.6233 -0.0054 -0.5957
 8121TIP3    H145854   6.295   1.964  12.743 -0.5538  0.6251  1.7431
 8121TIP3    H245855   6.363   2.095  12.777 -1.4676  1.8401 -0.8616
 8122TIP3   OH245856   2.271   6.107   2.142 -0.1323 -0.6395 -0.1550
 8122TIP3    H145857   2.357   6.131   2.176  0.5204 -1.3824 -1.2200
 8122TIP3    H245858   2.213   6.110   2.218  1.1566 -1.7446  0.9175
 8123TIP3   OH245859   0.393   5.424   5.294  0.1356 -0.1386  0.3021
 8123TIP3    H145860   0.420   5.363   5.362  3.9223 -0.6333 -1.4184
 8123TIP3    H245861   0.413   5.510   5.329  1.0265 -0.3203  0.2510
 8124TIP3   OH245862   1.987   6.577   2.034  0.2911  0.1099 -0.6692
 8124TIP3    H145863   1.966   6.484   2.022  0.9908 -0.1704  0.1435
 8124TIP3    H245864   2.082   6.580   2.031  0.2390  1.1209 -2.7346
 8125TIP3   OH245865   3.157   0.059  13.419  0.0469 -0.1998  0.1543
 8125TIP3    H145866   3.232   0.117  13.407 -0.0943 -0.0283  0.0913
 8125TIP3    H245867   3.145   0.055  13.514 -0.1684  0.1678  0.1440
 8126TIP3   OH245868   3.856   4.137  10.052  0.1459  0.1317 -0.2063
 8126TIP3    H145869   3.765   4.165  10.040  0.2140  0.7526  0.6719
 8126TIP3    H245870   3.907   4.198   9.998 -0.0081 -0.7545 -1.3968
 8127TIP3   OH245871   4.884   5.447  12.699  0.5429 -0.1728 -0.4439
 8127TIP3    H145872   4.874   5.368  12.646  1.0948 -0.1323 -0.6081
 8127TIP3    H245873   4.974   5.476  12.684  0.2860  0.6083 -0.5532
 8128TIP3   OH245874   0.304   0.196  13.546  0.8208 -0.2678 -0.2662
 8128TIP3    H145875   0.246   0.272  13.555  0.2120 -0.7049 -0.4629
 8128TIP3    H245876   0.254   0.123  13.584  1.1898 -0.6750 -0.5606
 8129TIP3   OH245877   6.077   0.994   2.123 -0.2823 -0.3027  0.0145
 8129TIP3    H145878   5.996   0.974   2.168  0.2579  0.2192  1.2565
 8129TIP3    H245879   6.095   1.086   2.144 -0.5503  0.2987 -2.1403
 8130TIP3   OH245880   0.349   6.651   1.234  0.2163 -0.4305  0.4545
 8130TIP3    H145881   0.373   6.743   1.247 -1.7374  0.1813  0.1046
 8130TIP3    H245882   0.318   6.622   1.320  2.9253 -1.5140  1.1613
 8131TIP3   OH245883   2.944   4.783   3.104 -0.0196 -0.0162  0.1734
 8131TIP3    H145884   2.881   4.808   3.171 -0.5209 -0.7552 -0.0085
 8131TIP3    H245885   2.905   4.814   3.022 -0.1183 -0.4169  0.0675
 8132TIP3   OH245886   4.331   4.336   3.843  0.3559 -0.3847  0.2824
 8132TIP3    H145887   4.267   4.317   3.774 -0.0405 -0.1648  0.5808
 8132TIP3    H245888   4.416   4.333   3.799  0.2592 -1.9483  0.1292
 8133TIP3   OH245889   5.589   5.639  12.900 -0.2393  0.0808 -0.2754
 8133TIP3    H145890   5.551   5.634  12.812 -1.1900  0.4730  0.1013
 8133TIP3    H245891   5.658   5.571  12.900 -0.1238  0.1780 -1.3596
 8134TIP3   OH245892   5.080   1.245   2.178 -0.9124  0.0427  0.1822
 8134TIP3    H145893   5.167   1.265   2.213 -1.2307  0.3496  0.8198
 8134TIP3    H245894   5.071   1.300   2.100  0.0224 -1.0407 -0.7257
 8135TIP3   OH245895   3.854   6.037  13.687 -0.3214 -0.3275 -0.2169
 8135TIP3    H145896   3.895   6.114  13.726 -0.0510 -0.3252 -0.5068
 8135TIP3    H245897   3.863   6.050  13.593 -0.1797 -0.7698 -0.2630
 8136TIP3   OH245898   3.544   3.408   3.640 -0.0768 -0.3215  0.7287
 8136TIP3    H145899   3.506   3.352   3.707 -0.9006 -0.1237  0.4408
 8136TIP3    H245900   3.499   3.492   3.650 -0.9738 -0.5853 -0.7196
 8137TIP3   OH245901   2.539   5.488   5.710  0.0078  0.2087  0.5120
 8137TIP3    H145902   2.556   5.447   5.625  1.1600  0.6444  0.5180
 8137TIP3    H245903   2.450   5.461   5.732 -0.1892 -0.1769 -0.6793
 8138TIP3   OH245904   1.723   5.044   4.333 -0.3390  0.3086 -0.0120
 8138TIP3    H145905   1.771   5.126   4.324  0.5426 -0.3432 -1.7059
 8138TIP3    H245906   1.651   5.051   4.271  0.0718 -0.4070 -0.5862
 8139TIP3   OH245907   6.821   6.440  16.866 -0.3989  0.4279  0.1281
 8139TIP3    H145908   6.755   6.419  16.800 -1.5714 -0.6695  1.5912
 8139TIP3    H245909   6.890   6.376  16.852 -0.2008  0.7901 -0.6065
 8140TIP3   OH245910   4.035   6.272   4.332  0.3175  0.5524  0.2265
 8140TIP3    H145911   4.098   6.341   4.351  1.2868 -0.0237 -0.8196
 8140TIP3    H245912   4.048   6.251   4.240 -0.2012 -0.7829  0.4239
 8141TIP3   OH245913   4.517   3.444   1.845  0.2012 -0.4534  0.3645
 8141TIP3    H145914   4.495   3.493   1.924 -0.5367 -0.3082  0.0713
 8141TIP3    H245915   4.433   3.416   1.810  0.5623 -1.0588 -0.0296
 8142TIP3   OH245916   5.379   1.840  11.572 -0.8850 -0.4415  0.0298
 8142TIP3    H145917   5.434   1.917  11.581 -1.0555 -0.4682  1.5503
 8142TIP3    H245918   5.360   1.834  11.478 -0.7457  1.2615 -0.1295
 8143TIP3   OH245919   0.946   0.937  16.313 -0.6510  0.5597 -0.6350
 8143TIP3    H145920   1.025   0.905  16.357 -1.5203  2.4499  2.6869
 8143TIP3    H245921   0.978   1.007  16.256  0.1236  1.5201  0.9057
 8144TIP3   OH245922   4.318   1.563   1.820 -0.4006 -0.0209  0.4090
 8144TIP3    H145923   4.338   1.470   1.814 -0.9570 -0.2131  1.1933
 8144TIP3    H245924   4.391   1.607   1.777 -0.6876 -0.8547 -0.9944
 8145TIP3   OH245925   2.797   4.655   5.705  0.4763  0.9508 -0.2101
 8145TIP3    H145926   2.874   4.668   5.759 -0.8799 -1.9440  2.7723
 8145TIP3    H245927   2.723   4.668   5.764 -1.3310  1.7644 -2.4786
 8146TIP3   OH245928   1.260   3.786  12.156  0.0737  0.2917  0.6008
 8146TIP3    H145929   1.352   3.760  12.162 -0.1495 -0.6139  0.2176
 8146TIP3    H245930   1.226   3.775  12.245 -0.0829 -1.0146  0.3940
 8147TIP3   OH245931   2.434   4.310   2.566  0.7789 -0.4464  0.1340
 8147TIP3    H145932   2.479   4.381   2.612  0.1656  1.1791 -1.6230
 8147TIP3    H245933   2.498   4.278   2.502  0.3565  0.0740 -0.5741
 8148TIP3   OH245934   2.562   4.034  10.950  0.3033  0.9607  0.5179
 8148TIP3    H145935   2.621   4.009  10.879  1.3473  2.0508  0.9819
 8148TIP3    H245936   2.620   4.055  11.023 -0.6511  2.0769  0.9768
 8149TIP3   OH245937   2.039   3.392  13.945 -0.0373  0.0668  0.1984
 8149TIP3    H145938   2.095   3.336  13.891  0.9693 -0.1420  1.4104
 8149TIP3    H245939   2.099   3.432  14.008 -0.8910  1.7458  0.0138
 8150TIP3   OH245940   5.897   0.102  10.675  0.4579  0.7782 -0.4676
 8150TIP3    H145941   5.902   0.157  10.597 -0.8085 -0.2989 -1.3508
 8150TIP3    H245942   5.975   0.125  10.726  0.1193  3.1623 -0.9171
 8151TIP3   OH245943   4.767   4.647   3.580 -0.3329  0.2463  0.0684
 8151TIP3    H145944   4.702   4.657   3.650 -0.1266 -0.5489  0.3852
 8151TIP3    H245945   4.850   4.671   3.622 -0.3950  1.0838 -0.2845
 8152TIP3   OH245946   0.426   6.745  13.218  0.6887  0.0693  0.5485
 8152TIP3    H145947   0.349   6.798  13.239  1.0716 -0.0746  2.4792
 8152TIP3    H245948   0.389   6.661  13.189  0.1108  0.2516  0.7368
 8153TIP3   OH245949   4.033   5.232  11.849  0.4436  0.2783 -0.4763
 8153TIP3    H145950   3.998   5.313  11.888 -2.1624 -0.5431 -0.9191
 8153TIP3    H245951   4.008   5.237  11.757  0.1627 -1.0636 -0.4910
 8154TIP3   OH245952   4.492   4.268  12.742 -0.0937 -0.6744 -0.1033
 8154TIP3    H145953   4.518   4.181  12.714 -0.5816 -1.5065  1.8205
 8154TIP3    H245954   4.530   4.277  12.830  0.1575  1.1527 -0.3647
 8155TIP3   OH245955   6.336   4.752   4.986 -0.0769 -0.5391  0.2095
 8155TIP3    H145956   6.368   4.768   4.898  0.7504 -0.0281  0.5930
 8155TIP3    H245957   6.409   4.775   5.044 -1.6831  2.5968  1.2234
 8156TIP3   OH245958   1.794   1.988  13.428  0.3787 -0.2689  0.1026
 8156TIP3    H145959   1.719   2.014  13.481  2.0643  1.2840  1.8943
 8156TIP3    H245960   1.829   1.910  13.473 -0.9132 -1.8674 -1.5447
 8157TIP3   OH245961   2.530   0.552   4.277  0.0599 -0.2066  0.1814
 8157TIP3    H145962   2.559   0.616   4.212 -0.2691 -0.2513 -0.0101
 8157TIP3    H245963   2.609   0.504   4.301  0.2908  0.1932  0.2408
 8158TIP3   OH245964   4.465   4.301   1.519  0.0025  0.2783  0.0611
 8158TIP3    H145965   4.436   4.355   1.592  0.0929 -1.0802  1.1467
 8158TIP3    H245966   4.388   4.293   1.463  0.1541  1.9876 -0.4468
 8159TIP3   OH245967   2.991   4.576  14.471  0.2901  0.0162 -0.0632
 8159TIP3    H145968   2.957   4.498  14.515  1.2490 -0.7112 -0.5520
 8159TIP3    H245969   2.991   4.644  14.538  0.0004 -0.5737  0.5439
 8160TIP3   OH245970   5.902   1.764   4.592  0.2546  0.1246  0.2583
 8160TIP3    H145971   5.919   1.777   4.685 -1.8860  1.1357  0.5560
 8160TIP3    H245972   5.834   1.697   4.588 -1.0661  1.4364 -0.4237
 8161TIP3   OH245973   1.159   0.185  16.429 -0.0611 -0.0570  0.0215
 8161TIP3    H145974   1.237   0.150  16.472  0.5942  0.8901 -0.3852
 8161TIP3    H245975   1.153   0.275  16.459 -0.9675 -0.0956 -0.0130
 8162TIP3   OH245976   4.141   5.099   5.647 -0.3259  0.4008  0.7231
 8162TIP3    H145977   4.209   5.136   5.703  0.0405 -0.1607  0.6589
 8162TIP3    H245978   4.108   5.023   5.695 -1.6089  1.2259  1.2056
 8163TIP3   OH245979   1.452   3.187   1.788 -0.0416  1.1617 -0.9306
 8163TIP3    H145980   1.404   3.203   1.870 -0.1144  0.7414 -0.8849
 8163TIP3    H245981   1.446   3.092   1.776  0.5505  1.1361 -1.0658
 8164TIP3   OH245982   0.956   5.560   4.233  0.6385 -0.1255  0.7196
 8164TIP3    H145983   1.040   5.604   4.220 -0.7138  2.6363  0.5234
 8164TIP3    H245984   0.976   5.487   4.293  2.9036  1.3514  1.9235
 8165TIP3   OH245985   3.629   4.990  13.752  0.4024 -0.5389 -0.1630
 8165TIP3    H145986   3.720   4.982  13.781  0.1785  1.1179  1.1349
 8165TIP3    H245987   3.587   5.043  13.820 -1.4856 -1.0812 -0.8559
 8166TIP3   OH245988   0.520   5.515  16.411 -0.3071 -0.2833  0.4223
 8166TIP3    H145989   0.464   5.568  16.467  0.7534  0.5976  0.6863
 8166TIP3    H245990   0.566   5.456  16.472  0.1833  0.0587  0.3871
 8167TIP3   OH245991   5.715   2.482   2.774 -0.8835  0.1028  0.8882
 8167TIP3    H145992   5.707   2.406   2.717 -1.7359  0.6258  0.2881
 8167TIP3    H245993   5.809   2.502   2.774 -0.8176 -0.1338 -0.0447
 8168TIP3   OH245994   4.923   3.759  13.548 -0.2750 -0.0348  0.2866
 8168TIP3    H145995   4.962   3.817  13.613 -1.0792  0.4740  0.3352
 8168TIP3    H245996   4.844   3.805  13.519 -0.0689 -0.3700 -0.8589
 8169TIP3   OH245997   4.928   1.067   2.545  0.2015  0.0534 -0.0726
 8169TIP3    H145998   4.886   1.132   2.602 -0.9902 -1.8430  1.3350
 8169TIP3    H245999   4.866   1.056   2.472  0.0781 -0.0289  0.0459
 8170TIP3   OH246000   3.937   5.675   5.437  0.0955  0.6459  0.1993
 8170TIP3    H146001   4.007   5.715   5.387  0.9294  1.0297  1.6077
 8170TIP3    H246002   3.881   5.748   5.463  0.0434  0.5423  0.3826
 8171TIP3   OH246003   3.520   6.570   5.824 -0.0097  0.0987 -0.1069
 8171TIP3    H146004   3.511   6.537   5.914  2.6490  0.6190  0.4460
 8171TIP3    H246005   3.451   6.526   5.775 -1.3784 -0.4068  2.1275
 8172TIP3   OH246006   4.506   0.664  14.012  0.2049 -0.1659 -0.1823
 8172TIP3    H146007   4.496   0.574  13.983 -0.7139  0.1164 -0.7983
 8172TIP3    H246008   4.570   0.660  14.083  0.8083 -1.1760 -0.7666
 8173TIP3   OH246009   0.014   1.351  12.467  0.6725 -0.1561 -0.3353
 8173TIP3    H146010  -0.007   1.374  12.557  0.5336 -0.1234 -0.3748
 8173TIP3    H246011   0.020   1.434  12.421  0.7243 -0.1736 -0.3613
 8174TIP3   OH246012   5.368   2.923  11.431  0.3650 -0.4079  0.6569
 8174TIP3    H146013   5.409   2.878  11.358 -0.9786 -1.6460  0.6097
 8174TIP3    H246014   5.437   2.978  11.468  2.1062 -2.5047  0.6981
 8175TIP3   OH246015   2.616   3.619  11.430 -0.2391  0.1630 -0.6058
 8175TIP3    H146016   2.524   3.595  11.430 -0.2321  0.1094  0.0882
 8175TIP3    H246017   2.661   3.540  11.460 -0.2289  1.0207  1.9027
 8176TIP3   OH246018   6.297   1.150  10.496  0.0100  0.5270 -0.3076
 8176TIP3    H146019   6.387   1.124  10.513 -0.3359 -2.3282 -2.1532
 8176TIP3    H246020   6.303   1.223  10.435  1.0469  1.1861  0.5607
 8177TIP3   OH246021   1.123   3.225  11.717  0.1617 -0.4453  0.0928
 8177TIP3    H146022   1.028   3.223  11.724  0.1196 -1.5709 -0.5371
 8177TIP3    H246023   1.152   3.149  11.769  0.6012 -1.0788 -1.0353
 8178TIP3   OH246024   5.721   6.109  14.038 -0.2394  0.1608 -0.4060
 8178TIP3    H146025   5.730   6.122  13.944  0.1979 -1.1277 -0.5683
 8178TIP3    H246026   5.754   6.020  14.053 -0.4005  0.3079  0.9470
 8179TIP3   OH246027   6.571   4.150  16.003  0.6861 -0.6211  0.6141
 8179TIP3    H146028   6.506   4.194  15.948  0.4377  0.7059  1.8933
 8179TIP3    H246029   6.599   4.217  16.066  1.7542 -1.7617  1.4176
 8180TIP3   OH246030   2.048   0.551  16.938  0.2341  0.5523 -0.1860
 8180TIP3    H146031   2.092   0.601  16.869 -1.1178  2.3950  0.2169
 8180TIP3    H246032   1.959   0.539  16.905  0.3198 -0.9660  0.0811
 8181TIP3   OH246033   2.428   3.612  16.147  0.8607 -0.3132  0.3545
 8181TIP3    H146034   2.366   3.539  16.155 -0.7472  0.9455 -0.1650
 8181TIP3    H246035   2.393   3.679  16.206  1.2122  0.7749 -0.6530
 8182TIP3   OH246036   4.402   5.989  15.581  0.0024  0.0134  0.4428
 8182TIP3    H146037   4.457   6.001  15.504 -1.7615 -1.1028 -1.0783
 8182TIP3    H246038   4.334   5.927  15.553 -1.3235  0.3899  2.5706
 8183TIP3   OH246039   1.431   0.324   5.183 -0.2314 -0.4396  0.0818
 8183TIP3    H146040   1.389   0.329   5.097 -0.5610 -2.0596  0.1237
 8183TIP3    H246041   1.369   0.367   5.242 -1.4605 -1.9692 -0.0173
 8184TIP3   OH246042   5.320   0.092   2.849  0.5866  0.2379 -0.0333
 8184TIP3    H146043   5.321   0.108   2.754 -0.9511  2.5008  0.2524
 8184TIP3    H246044   5.396   0.139   2.882  0.3919  0.5512 -0.0238
 8185TIP3   OH246045   4.440   3.915   4.347 -0.2306  0.2487 -0.1848
 8185TIP3    H146046   4.453   3.965   4.427  0.0163  2.3646 -1.4893
 8185TIP3    H246047   4.528   3.905   4.310 -0.5178  0.9067 -1.0915
 8186TIP3   OH246048   0.961   0.827  13.655 -0.5942 -0.2801  0.2833
 8186TIP3    H146049   1.017   0.904  13.652 -0.8332 -0.0266  1.4835
 8186TIP3    H246050   1.004   0.768  13.717 -0.4680 -1.0743 -0.5448
 8187TIP3   OH246051   1.397   5.624   1.437  0.7807 -0.1071  0.5743
 8187TIP3    H146052   1.421   5.639   1.528 -1.9301 -0.3085  1.4207
 8187TIP3    H246053   1.435   5.538   1.416 -1.5149 -1.7917  2.7748
 8188TIP3   OH246054   6.043   2.249   1.072 -0.2442  0.2068  0.3672
 8188TIP3    H146055   6.017   2.339   1.089 -1.3139 -0.0912  0.4309
 8188TIP3    H246056   6.028   2.204   1.155  0.2350 -0.0462  0.3230
 8189TIP3   OH246057   5.072   4.049   5.522 -0.0011  0.0432 -0.2190
 8189TIP3    H146058   4.991   4.084   5.559 -0.7669 -0.6786 -1.1606
 8189TIP3    H246059   5.060   4.055   5.427  0.8781 -0.4565 -0.3749
 8190TIP3   OH246060   2.251   4.870   3.025 -0.0794  0.7484 -0.9796
 8190TIP3    H146061   2.226   4.806   3.091 -1.7069  0.2177 -2.0441
 8190TIP3    H246062   2.340   4.895   3.048 -0.1414 -0.3789  0.6383
 8191TIP3   OH246063   6.479   6.260   5.442 -0.4983 -0.6931 -0.0938
 8191TIP3    H146064   6.418   6.323   5.479  1.0264  0.7037  0.1556
 8191TIP3    H246065   6.436   6.227   5.363 -1.7046 -0.0541  0.2724
 8192TIP3   OH246066   1.340   2.992   2.393 -0.0234  0.3794 -0.1701
 8192TIP3    H146067   1.364   2.997   2.486 -0.7623  2.9234 -0.0455
 8192TIP3    H246068   1.245   2.992   2.393 -0.0436 -0.7531 -0.9329
 8193TIP3   OH246069   0.885   5.338   4.622  0.6557 -0.0177  0.2706
 8193TIP3    H146070   0.917   5.258   4.663 -0.8827 -1.4043 -1.0875
 8193TIP3    H246071   0.789   5.331   4.626  0.4775  1.0923 -1.0827
 8194TIP3   OH246072   0.754   3.558  11.304  0.6083 -0.1648  0.2145
 8194TIP3    H146073   0.761   3.568  11.399 -1.5570  1.1981  0.2881
 8194TIP3    H246074   0.736   3.464  11.291 -0.9665 -0.0487  1.3308
 8195TIP3   OH246075   1.954   6.295   0.999  0.5455  0.0377  0.7433
 8195TIP3    H146076   2.032   6.250   1.033  1.3952  1.3878  0.6378
 8195TIP3    H246077   1.954   6.380   1.042  0.3789  0.9211 -0.9043
 8196TIP3   OH246078   6.330   2.886  16.365 -0.3208  0.7098 -0.1386
 8196TIP3    H146079   6.387   2.820  16.403  0.4862  1.4178 -0.0849
 8196TIP3    H246080   6.264   2.902  16.432 -0.3834  0.1304 -0.0608
 8197TIP3   OH246081   3.630   2.113   1.684  0.2988 -0.4267 -0.4096
 8197TIP3    H146082   3.627   2.041   1.747 -1.1501 -1.2640 -1.3611
 8197TIP3    H246083   3.538   2.133   1.666  0.5850  2.7109  0.9382
 8198TIP3   OH246084   0.678   3.647   0.041 -0.2939 -0.0203 -0.1020
 8198TIP3    H146085   0.631   3.565   0.061 -0.4348 -0.2647 -1.3503
 8198TIP3    H246086   0.653   3.706   0.112  1.5556 -1.6930  2.1239
 8199TIP3   OH246087   1.013   5.734   3.707 -0.8619  0.0478  0.3415
 8199TIP3    H146088   1.014   5.782   3.623 -0.2273 -1.0473 -0.3028
 8199TIP3    H246089   1.084   5.671   3.699  0.3658  1.0511  2.4152
 8200TIP3   OH246090   5.519   0.904  16.576 -0.0726  0.0902  0.4788
 8200TIP3    H146091   5.562   0.930  16.658 -0.7187  2.2362  0.1878
 8200TIP3    H246092   5.428   0.929  16.588 -0.2547  0.0728 -0.7431
 8201TIP3   OH246093   4.660   1.493  12.425 -0.0994 -0.8605  0.7013
 8201TIP3    H146094   4.611   1.549  12.365  1.7654  0.9993  0.7999
 8201TIP3    H246095   4.657   1.406  12.385 -0.0635  0.0395 -1.3771
 8202TIP3   OH246096   6.472   4.547  10.210 -0.2678  0.0234 -0.6155
 8202TIP3    H146097   6.470   4.638  10.240  0.1773  0.1779 -1.0461
 8202TIP3    H246098   6.559   4.536  10.171 -0.4835 -0.4591 -0.9676
 8203TIP3   OH246099   1.854   6.812   2.056  0.8861  0.4380 -0.1973
 8203TIP3    H146100   1.921   6.875   2.029 -0.0426  1.6201  0.1523
 8203TIP3    H246101   1.895   6.727   2.044  1.2458  0.9347 -3.3233
 8204TIP3   OH246102   0.091   4.035  11.824 -0.6031 -0.0876 -0.2101
 8204TIP3    H146103   0.033   3.983  11.880 -0.1164 -0.5233 -0.1080
 8204TIP3    H246104   0.120   4.107  11.880 -0.8714  0.0104 -0.1946
 8205TIP3   OH246105   2.244   4.475  16.588 -0.1295  0.1174  0.2430
 8205TIP3    H146106   2.272   4.386  16.571  0.7473  0.0658  1.7891
 8205TIP3    H246107   2.292   4.529  16.525 -0.5533 -0.4728 -0.5963
 8206TIP3   OH246108   3.217   0.248  11.438  0.0462 -0.4429  0.5128
 8206TIP3    H146109   3.275   0.238  11.363  1.2498  1.1861  1.1759
 8206TIP3    H246110   3.197   0.341  11.441  1.6174 -0.0842  3.2903
 8207TIP3   OH246111   1.989   4.068   4.016 -0.0791 -0.5112 -0.3606
 8207TIP3    H146112   1.921   4.079   4.083 -2.2823 -0.8864 -2.3901
 8207TIP3    H246113   2.045   3.999   4.050  0.5080  1.1132  2.2582
 8208TIP3   OH246114   5.416   6.611  11.877 -0.7158 -0.2723  0.0273
 8208TIP3    H146115   5.425   6.637  11.785 -1.7965  0.1044  0.0161
 8208TIP3    H246116   5.496   6.642  11.918 -0.9264  0.9949 -0.4701
 8209TIP3   OH246117   2.448   3.793  15.416  0.0707  0.5197  0.2364
 8209TIP3    H146118   2.456   3.700  15.439 -1.1925  0.2643 -0.2887
 8209TIP3    H246119   2.530   3.813  15.370  1.3013  0.2587  2.2181
 8210TIP3   OH246120   6.442   6.334   4.962  0.8241 -0.0978  0.7520
 8210TIP3    H146121   6.364   6.298   4.919 -0.3541  1.7369  1.2218
 8210TIP3    H246122   6.504   6.348   4.891 -0.3622  1.0672 -0.1050
 8211TIP3   OH246123   3.504   1.188   3.776 -0.5506  0.2563 -0.0832
 8211TIP3    H146124   3.565   1.149   3.838 -2.5891 -1.2739  1.1040
 8211TIP3    H246125   3.469   1.114   3.727 -2.1411  0.9397 -0.0496
 8212TIP3   OH246126   0.719   1.924   4.204  0.2366  0.0775  0.0300
 8212TIP3    H146127   0.678   1.948   4.121 -0.0289  0.3764  0.2441
 8212TIP3    H246128   0.745   2.007   4.244 -1.3780  0.0991  1.1264
 8213TIP3   OH246129   6.125   1.496   3.061  0.8154  0.3134  0.0849
 8213TIP3    H146130   6.149   1.577   3.106  0.6097  1.0100 -1.0363
 8213TIP3    H246131   6.055   1.460   3.116  2.0064  0.0197  1.4867
 8214TIP3   OH246132   4.238   1.219  17.023 -0.0204 -0.1735 -0.3124
 8214TIP3    H146133   4.180   1.281  17.067  0.4232 -0.0133  0.0527
 8214TIP3    H246134   4.242   1.249  16.932 -1.0209 -0.5653 -0.4933
 8215TIP3   OH246135   6.412   2.282   2.276 -0.0312 -0.3178 -0.8469
 8215TIP3    H146136   6.397   2.257   2.185  1.1800  0.8855 -1.4223
 8215TIP3    H246137   6.430   2.199   2.321 -3.0754 -1.2241 -1.1218
 8216TIP3   OH246138   2.616   0.056  11.364  0.0984  0.1737  0.3884
 8216TIP3    H146139   2.552   0.056  11.434 -1.6550  0.8669 -1.1227
 8216TIP3    H246140   2.622   0.148  11.337  0.4139 -0.1250 -0.6246
 8217TIP3   OH246141   3.598   5.835  14.278 -0.1719  0.3913  0.1845
 8217TIP3    H146142   3.545   5.762  14.312  0.6874 -1.0972 -1.5010
 8217TIP3    H246143   3.581   5.836  14.184  2.3640  0.1643 -0.3528
 8218TIP3   OH246144   3.863   4.700  12.149  0.5501  0.5906  0.3897
 8218TIP3    H146145   3.793   4.744  12.198  0.5240 -0.2389  1.1271
 8218TIP3    H246146   3.840   4.714  12.057 -1.4743 -0.9673  0.5787
 8219TIP3   OH246147   4.475   4.746  15.489 -0.0683 -0.6434 -0.1269
 8219TIP3    H146148   4.532   4.669  15.484  0.1632 -0.4042 -1.9625
 8219TIP3    H246149   4.519   4.805  15.549  0.9628 -0.9966 -0.5088
 8220TIP3   OH246150   3.736   4.702  11.117  0.1084 -0.1121 -0.4837
 8220TIP3    H146151   3.803   4.700  11.186 -0.2083  0.3008 -0.1590
 8220TIP3    H246152   3.786   4.721  11.037  0.5370 -1.0612 -0.4536
 8221TIP3   OH246153   3.048   3.714   2.726  0.2875 -0.4170  0.5296
 8221TIP3    H146154   2.979   3.747   2.669  0.9075 -1.2585 -0.7485
 8221TIP3    H246155   3.112   3.785   2.732 -0.9380  0.6071  2.2294
 8222TIP3   OH246156   3.588   2.691   2.072  0.2172  0.2980 -0.0103
 8222TIP3    H146157   3.514   2.632   2.062 -0.3325  0.8364  0.8216
 8222TIP3    H246158   3.608   2.719   1.982  1.3178 -2.1059 -0.5861
 8223TIP3   OH246159   4.874   1.497   4.820 -0.0671 -0.6752 -0.4992
 8223TIP3    H146160   4.841   1.414   4.854 -0.5713 -0.5826 -0.7469
 8223TIP3    H246161   4.828   1.564   4.871  3.0358 -0.4767  2.3455
 8224TIP3   OH246162   2.883   4.229   0.477  0.1315 -0.7986 -0.3692
 8224TIP3    H146163   2.850   4.288   0.410  1.8400  0.3986 -0.2296
 8224TIP3    H246164   2.816   4.161   0.485 -0.9355  0.0066 -1.9892
 8225TIP3   OH246165   2.942   3.799  10.192  0.0697 -0.1775 -0.3658
 8225TIP3    H146166   3.012   3.828  10.251  1.4378 -1.2624 -1.3774
 8225TIP3    H246167   2.968   3.710  10.167 -1.4191 -0.4040 -1.1950
 8226TIP3   OH246168   5.239   5.940  13.564 -0.0597 -0.4431 -0.1876
 8226TIP3    H146169   5.261   5.943  13.471 -0.5776  1.0452 -0.2806
 8226TIP3    H246170   5.162   5.996  13.573 -0.9345 -1.7496  0.9057
 8227TIP3   OH246171   1.430   4.416   1.436  0.2146 -0.1498  0.1966
 8227TIP3    H146172   1.467   4.501   1.413  0.0337 -0.2864 -0.6358
 8227TIP3    H246173   1.472   4.393   1.519  0.1904  0.7910  0.4880
 8228TIP3   OH246174   4.788   3.241   2.885 -0.0992 -0.0424 -0.1795
 8228TIP3    H146175   4.807   3.163   2.937  0.1753 -0.7561 -1.3196
 8228TIP3    H246176   4.767   3.207   2.798 -1.2519  1.0773 -0.3686
 8229TIP3   OH246177   6.448   5.369   4.015 -0.8664 -0.0711  0.2221
 8229TIP3    H146178   6.404   5.437   3.965  0.1380 -0.2423 -0.9511
 8229TIP3    H246179   6.406   5.288   3.987 -0.5074 -0.1387 -0.1305
 8230TIP3   OH246180   2.601   3.533   6.628  0.4670 -0.2334  0.7371
 8230TIP3    H146181   2.567   3.444   6.638  3.1091 -1.0985  2.9265
 8230TIP3    H246182   2.687   3.522   6.588 -0.7637  1.7784 -3.0915
 8231TIP3   OH246183   0.384   5.287   5.060 -0.2691  0.0937 -0.0200
 8231TIP3    H146184   0.476   5.307   5.045 -0.1501 -0.7697 -0.4583
 8231TIP3    H246185   0.365   5.326   5.146  0.7110 -0.4092  0.4309
 8232TIP3   OH246186   1.141   4.686  16.884 -0.6839  0.4459  0.0219
 8232TIP3    H146187   1.048   4.705  16.897 -1.4551  0.8976 -4.4114
 8232TIP3    H246188   1.186   4.765  16.915 -1.9846  1.0418  0.4550
 8233TIP3   OH246189   6.336   3.398   1.000  0.6167  0.4428 -0.1847
 8233TIP3    H146190   6.241   3.398   0.994  0.4674  1.0346  1.5236
 8233TIP3    H246191   6.362   3.307   0.982 -0.2834  0.2297 -0.4346
 8234TIP3   OH246192   5.644   6.197  14.839 -0.3767  0.0760 -0.6873
 8234TIP3    H146193   5.665   6.112  14.878 -0.0246 -0.3055 -1.6802
 8234TIP3    H246194   5.729   6.234  14.814 -0.3486  1.5258  1.2953
 8235TIP3   OH246195   1.317   4.826   5.980 -0.5620 -0.0191 -0.1108
 8235TIP3    H146196   1.381   4.767   6.019 -1.2492 -0.7749 -0.1022
 8235TIP3    H246197   1.310   4.899   6.042 -1.2079 -0.9214  0.9201
 8236TIP3   OH246198   1.474   2.875   5.377  0.6130 -0.1100 -0.7390
 8236TIP3    H146199   1.567   2.895   5.368  0.3809  1.0179 -0.7250
 8236TIP3    H246200   1.444   2.932   5.448 -0.0621 -0.5647 -0.6508
 8237TIP3   OH246201   4.506   5.945   3.796 -0.2112  0.7174 -0.2247
 8237TIP3    H146202   4.585   5.898   3.770 -0.6405  0.5294 -1.2270
 8237TIP3    H246203   4.538   6.027   3.833  0.4947  0.1724  0.4124
 8238TIP3   OH246204   6.341   6.457  15.253 -0.1172 -0.2992  0.6100
 8238TIP3    H146205   6.400   6.421  15.319 -0.3023 -0.7800  0.5191
 8238TIP3    H246206   6.255   6.425  15.278 -0.4575  0.9570  1.1322
 8239TIP3   OH246207   3.576   3.718  12.026 -0.2366 -0.1216  0.5829
 8239TIP3    H146208   3.588   3.808  12.057 -0.2828  0.5298 -1.1608
 8239TIP3    H246209   3.487   3.716  11.992  0.1550 -0.4522 -0.4739
 8240TIP3   OH246210   3.633   1.521   5.798 -0.2206  0.0232 -0.5255
 8240TIP3    H146211   3.633   1.491   5.707 -1.3909 -0.8805 -0.2449
 8240TIP3    H246212   3.683   1.454   5.845  0.6324  0.6358 -0.5195
 8241TIP3   OH246213   3.412   3.823  10.878 -0.1630 -0.0388 -1.1438
 8241TIP3    H146214   3.455   3.875  10.810 -2.8403 -0.6172 -3.4833
 8241TIP3    H246215   3.408   3.735  10.841  2.9669 -1.7798  2.1208
 8242TIP3   OH246216   4.031   5.750  13.331  0.1934 -0.0701  0.3071
 8242TIP3    H146217   4.113   5.727  13.375  1.4163  1.5600 -0.9385
 8242TIP3    H246218   3.970   5.770  13.401  0.4993 -2.3277  1.2937
 8243TIP3   OH246219   1.728   2.113   0.219  0.2738  0.6988  0.3976
 8243TIP3    H146220   1.805   2.154   0.178  1.3767 -0.1660  1.5204
 8243TIP3    H246221   1.765   2.057   0.288 -1.3572  0.0052  0.7464
 8244TIP3   OH246222   0.000   3.912   2.404 -0.2784  0.0198 -0.6276
 8244TIP3    H146223   0.006   3.986   2.464 -0.3431 -0.4115 -0.0842
 8244TIP3    H246224   0.054   3.938   2.329 -1.5643  1.2838 -1.1575
 8245TIP3   OH246225   0.891   6.759   2.605  0.9523  1.1809  0.0649
 8245TIP3    H146226   0.902   6.711   2.687  2.7848 -0.8719 -1.2713
 8245TIP3    H246227   0.854   6.695   2.544 -3.3329  3.4522 -0.0977
 8246TIP3   OH246228   4.643   2.941   1.510 -0.1193 -0.5988  0.3364
 8246TIP3    H146229   4.724   2.892   1.521 -0.6108 -1.3182  0.8966
 8246TIP3    H246230   4.657   3.022   1.560 -0.0600 -1.1151  1.1788
 8247TIP3   OH246231   2.072   1.479  15.408  0.3815 -0.0307  0.4702
 8247TIP3    H146232   1.980   1.503  15.402  0.3282 -0.0899  1.0648
 8247TIP3    H246233   2.113   1.522  15.333  0.1360  1.1768  1.0212
 8248TIP3   OH246234   3.686   4.070   3.276 -0.7965  0.0020 -0.0537
 8248TIP3    H146235   3.735   4.000   3.234 -3.2565 -1.2535 -1.0533
 8248TIP3    H246236   3.674   4.041   3.366  0.9230  0.7121  0.4307
 8249TIP3   OH246237   6.143   6.816  11.486 -0.3804  0.3753  0.2995
 8249TIP3    H146238   6.145   6.804  11.391  0.0067 -0.0840  0.3559
 8249TIP3    H246239   6.216   6.762  11.518 -1.5938 -0.9174  1.0130
 8250TIP3   OH246240   1.217   0.501  11.566 -0.0750 -0.2214 -0.4694
 8250TIP3    H146241   1.124   0.497  11.586 -0.0757  0.8061 -0.2260
 8250TIP3    H246242   1.260   0.496  11.651  0.0668  0.1113 -0.5228
 8251TIP3   OH246243   1.359   2.919  11.574 -0.0720 -0.1681 -0.1947
 8251TIP3    H146244   1.434   2.979  11.568 -0.3204  0.1443 -0.1663
 8251TIP3    H246245   1.289   2.962  11.526 -0.5497  0.0258  0.6596
 8252TIP3   OH246246   4.301   6.793  15.844  0.5080  0.3243 -0.1196
 8252TIP3    H146247   4.387   6.770  15.878  0.2363  0.3285  0.5751
 8252TIP3    H246248   4.292   6.887  15.862  0.1263  0.2060  0.3312
 8253TIP3   OH246249   5.192   4.843  10.553 -0.1109 -0.1707 -0.2189
 8253TIP3    H146250   5.204   4.819  10.644 -2.5141 -2.0079 -0.2897
 8253TIP3    H246251   5.245   4.780  10.504 -0.0705 -0.1983 -0.1398
 8254TIP3   OH246252   6.640   3.083   3.028  0.0714 -0.4408  0.1378
 8254TIP3    H146253   6.736   3.088   3.022  0.0048  0.2764 -0.4703
 8254TIP3    H246254   6.615   3.021   2.960  0.0382  0.1549 -0.4037
 8255TIP3   OH246255   4.726   0.611   0.627 -0.2313  0.4362 -0.1400
 8255TIP3    H146256   4.746   0.659   0.546 -0.7837  0.6103 -0.1762
 8255TIP3    H246257   4.652   0.658   0.664  1.0728  1.4223  1.3728
 8256TIP3   OH246258   5.290   2.336  14.142 -0.2843  0.3161  0.3618
 8256TIP3    H146259   5.252   2.303  14.224  0.9098  1.6463  1.5053
 8256TIP3    H246260   5.382   2.312  14.147 -0.4879 -1.0599 -1.4179
 8257TIP3   OH246261   5.753   3.607  14.882  0.2804 -0.1559  0.2757
 8257TIP3    H146262   5.798   3.565  14.956 -0.2263  1.6211  1.6609
 8257TIP3    H246263   5.722   3.690  14.917 -0.3477  0.5684 -1.8547
 8258TIP3   OH246264   0.006   6.721  13.284 -0.0405  0.3766 -0.7025
 8258TIP3    H146265   0.008   6.703  13.190  0.3984 -0.5780 -0.5253
 8258TIP3    H246266   0.093   6.756  13.303  0.2670 -0.4695 -0.4772
 8259TIP3   OH246267   4.599   2.976   1.223 -0.0068 -0.2402  0.4826
 8259TIP3    H146268   4.606   2.946   1.313  1.8844 -0.3326  0.3530
 8259TIP3    H246269   4.533   3.045   1.225 -1.9020 -2.0120  1.4201
 8260TIP3   OH246270   0.734   0.200  11.948 -0.5398  0.4837  0.2534
 8260TIP3    H146271   0.814   0.195  11.896  1.0963 -1.2061  2.6966
 8260TIP3    H246272   0.749   0.140  12.021 -3.7432  0.7223  1.2774
 8261TIP3   OH246273   2.577   5.739  16.016  0.4644  0.2640  0.1824
 8261TIP3    H146274   2.606   5.830  16.028 -0.8331  0.6441  0.6765
 8261TIP3    H246275   2.482   5.743  16.028  0.3824 -1.1582  0.1623
 8262TIP3   OH246276   1.806   6.704   0.185 -0.2949 -0.6884  0.1585
 8262TIP3    H146277   1.800   6.609   0.181  1.8308 -0.8519 -0.1087
 8262TIP3    H246278   1.876   6.721   0.247  0.1894  0.6714 -0.7235
 8263TIP3   OH246279   4.864   3.046   3.084 -0.1901 -0.6590  0.0552
 8263TIP3    H146280   4.804   3.002   3.144  0.7791  0.7005  2.1557
 8263TIP3    H246281   4.933   3.080   3.140  1.7658 -0.8383 -2.0820
 8264TIP3   OH246282   1.501   6.390  11.840 -0.5464  0.1290 -0.0942
 8264TIP3    H146283   1.473   6.481  11.832  0.1334  0.7118  2.8587
 8264TIP3    H246284   1.595   6.394  11.855  0.0031 -1.3191 -2.5382
 8265TIP3   OH246285   1.371   6.251   5.388 -0.1872  0.3267 -0.3250
 8265TIP3    H146286   1.309   6.240   5.315 -0.0732 -2.0092 -0.1541
 8265TIP3    H246287   1.316   6.276   5.462 -0.3424  2.4221 -1.0747
 8266TIP3   OH246288   1.161   3.644  11.692  0.0204  0.2053 -0.4177
 8266TIP3    H146289   1.150   3.582  11.764  1.5873 -1.3843 -1.4570
 8266TIP3    H246290   1.116   3.602  11.618 -2.1437  2.1230 -0.2902
 8267TIP3   OH246291   6.022   6.834  15.870  0.3508 -1.2127  0.5417
 8267TIP3    H146292   6.051   6.760  15.816 -0.1579 -1.9796  1.3039
 8267TIP3    H246293   6.011   6.798  15.958  1.0444 -0.0031  1.1550
 8268TIP3   OH246294   5.591   0.753   1.693 -0.0661 -0.2363  0.0469
 8268TIP3    H146295   5.663   0.780   1.750  1.0526 -1.5332 -0.6752
 8268TIP3    H246296   5.535   0.699   1.750  0.6388 -0.8979  0.1371
 8269TIP3   OH246297   5.315   0.634  16.203 -0.2698  0.1267  0.5262
 8269TIP3    H146298   5.297   0.606  16.293  1.0882  1.0996  1.1360
 8269TIP3    H246299   5.252   0.585  16.150 -3.6483  2.1293  2.2950
 8270TIP3   OH246300   2.606   1.546  10.759  0.4296  0.2098 -0.1069
 8270TIP3    H146301   2.627   1.456  10.735  1.1892  0.4988 -0.5774
 8270TIP3    H246302   2.611   1.547  10.854  0.5773 -0.2125 -0.1058
 8271TIP3   OH246303   1.610   2.310  12.449 -0.7925  0.3469 -0.2722
 8271TIP3    H146304   1.516   2.316  12.464 -0.7323  0.0800  0.2463
 8271TIP3    H246305   1.632   2.220  12.475 -0.2142  0.7489  0.6581
 8272TIP3   OH246306   5.170   4.439   5.750 -0.2002 -0.1774  0.1609
 8272TIP3    H146307   5.205   4.378   5.684 -1.6236 -0.1173 -0.6984
 8272TIP3    H246308   5.102   4.388   5.795 -0.5859  0.3982  0.2392
 8273TIP3   OH246309   4.483   2.997  12.136 -0.3707  0.1795 -0.4240
 8273TIP3    H146310   4.428   3.050  12.193  0.0502  0.3050 -0.1295
 8273TIP3    H246311   4.432   2.917  12.120 -1.1032  0.7490 -1.0384
 8274TIP3   OH246312   4.055   1.027   2.612 -0.3985 -0.2006  0.0355
 8274TIP3    H146313   4.104   1.078   2.677  0.5280 -0.3399 -0.5421
 8274TIP3    H246314   4.043   1.086   2.538  1.9498 -1.1915 -1.2433
 8275TIP3   OH246315   5.774   1.880   0.982  0.3283  0.1341  0.3033
 8275TIP3    H146316   5.869   1.889   0.972  0.2799 -0.7458 -1.1882
 8275TIP3    H246317   5.738   1.916   0.901 -0.6439  0.6694  0.9547
 8276TIP3   OH246318   2.206   0.368   2.159  0.1212  0.0357  0.8237
 8276TIP3    H146319   2.228   0.426   2.086 -0.4998  0.6984  1.1568
 8276TIP3    H246320   2.280   0.376   2.219  2.2108 -2.8926 -1.0746
 8277TIP3   OH246321   0.192   5.806  10.438  0.6900 -0.0386  0.0818
 8277TIP3    H146322   0.182   5.901  10.431 -0.4951 -0.1151  0.4424
 8277TIP3    H246323   0.272   5.786  10.389  0.6476  1.0816 -0.4753
 8278TIP3   OH246324   6.462   6.256  14.616 -0.5082  0.2228  0.1214
 8278TIP3    H146325   6.400   6.215  14.556  0.4730  0.0963 -0.8531
 8278TIP3    H246326   6.548   6.234  14.580  0.1021  0.6230  1.2756
 8279TIP3   OH246327   4.331   2.386  11.449  0.0805 -0.0648  0.8879
 8279TIP3    H146328   4.285   2.320  11.397 -0.7181  0.4304  0.9489
 8279TIP3    H246329   4.424   2.370  11.432 -0.1686  0.2974 -0.9648
 8280TIP3   OH246330   6.543   3.555   1.585  0.4492 -0.1786  0.1027
 8280TIP3    H146331   6.539   3.531   1.493 -1.3811  0.9502 -0.1720
 8280TIP3    H246332   6.624   3.606   1.593  0.2112  0.4310 -1.0854
 8281TIP3   OH246333   1.441   3.443   4.996  0.7225 -0.4648  0.2779
 8281TIP3    H146334   1.365   3.418   4.943  0.9803 -0.9631  0.1452
 8281TIP3    H246335   1.500   3.486   4.934  1.2733 -1.5527  0.0388
 8282TIP3   OH246336   6.473   4.377   1.101  0.1409 -0.3506 -0.3802
 8282TIP3    H146337   6.555   4.347   1.061 -0.0574 -0.5951 -0.6044
 8282TIP3    H246338   6.413   4.389   1.027 -0.4264 -1.4058 -0.1137
 8283TIP3   OH246339   2.247   4.459   4.346 -0.2019 -0.0902 -0.6363
 8283TIP3    H146340   2.186   4.528   4.322 -1.0989 -0.8190 -0.5314
 8283TIP3    H246341   2.332   4.503   4.356 -0.7816  1.0007 -0.4145
 8284TIP3   OH246342   2.627   3.857  15.251 -0.7723  0.4776  0.3636
 8284TIP3    H146343   2.655   3.930  15.195 -0.3783  0.0808  0.0354
 8284TIP3    H246344   2.707   3.807  15.267 -1.0834 -0.0219  0.3845
 8285TIP3   OH246345   6.169   0.163   0.621 -0.1837  0.2847  0.4015
 8285TIP3    H146346   6.098   0.215   0.659  0.2849 -0.0005  1.7202
 8285TIP3    H246347   6.248   0.199   0.661  0.3165 -0.1838 -0.1473
 8286TIP3   OH246348   2.269   1.831   5.092  0.4301  0.4692 -0.0585
 8286TIP3    H146349   2.249   1.750   5.045  2.7261 -1.1741  1.5784
 8286TIP3    H246350   2.268   1.899   5.024  0.5355 -1.2598 -1.8799
 8287TIP3   OH246351   4.323   2.231  11.108  0.5280  0.2105  0.5524
 8287TIP3    H146352   4.253   2.196  11.162  0.8395 -0.7240  0.3700
 8287TIP3    H246353   4.346   2.159  11.050  1.3665  0.6437  0.3387
 8288TIP3   OH246354   5.503   1.003  16.295  0.2817 -0.5987 -0.4234
 8288TIP3    H146355   5.514   0.978  16.387  1.1023 -1.2611 -0.6844
 8288TIP3    H246356   5.541   0.929  16.246  1.0456  0.3312 -1.2666
 8289TIP3   OH246357   6.264   1.522   4.761 -0.2467 -0.4960 -0.1662
 8289TIP3    H146358   6.186   1.481   4.724  0.7889 -2.2901 -0.4786
 8289TIP3    H246359   6.317   1.547   4.685 -0.6242  1.0124  0.0357
 8290TIP3   OH246360   3.465   3.561  13.581  0.0299 -0.2257 -0.3377
 8290TIP3    H146361   3.470   3.490  13.517 -0.0587 -0.5638  0.0226
 8290TIP3    H246362   3.372   3.567  13.602  0.2883 -1.5900  1.3703
 8291TIP3   OH246363   6.346   2.347   3.213 -0.1012 -0.2558 -0.6550
 8291TIP3    H146364   6.316   2.409   3.280  0.0907 -0.0196 -0.7848
 8291TIP3    H246365   6.441   2.355   3.215 -0.0852 -0.4174 -0.7964
 8292TIP3   OH246366   2.847   2.196   2.728  0.0820 -0.5062 -0.6843
 8292TIP3    H146367   2.939   2.208   2.749  0.4677 -2.3094 -1.2067
 8292TIP3    H246368   2.838   2.103   2.708 -2.0794 -0.6018  0.4195
 8293TIP3   OH246369   5.809   0.971  14.693 -0.6973  0.0697  0.3312
 8293TIP3    H146370   5.801   0.875  14.691 -0.8422  0.0687  0.7807
 8293TIP3    H246371   5.816   0.992  14.786 -1.9417  0.5988  0.3236
 8294TIP3   OH246372   4.941   5.214  12.913 -0.3539 -0.5006  0.6279
 8294TIP3    H146373   4.916   5.303  12.939 -0.3545 -0.6162  1.0285
 8294TIP3    H246374   4.921   5.210  12.820 -1.9774 -0.6416  0.9520
 8295TIP3   OH246375   5.819   2.095   1.223 -0.0675  0.1360 -0.1769
 8295TIP3    H146376   5.775   2.176   1.197 -0.9058 -0.4298 -0.5691
 8295TIP3    H246377   5.773   2.026   1.175  1.8171 -0.4116 -1.3117
 8296TIP3   OH246378   1.964   6.526   1.160  0.1287  0.2781  0.7020
 8296TIP3    H146379   1.988   6.583   1.087 -2.1477 -0.8904 -1.0840
 8296TIP3    H246380   1.886   6.566   1.198  0.3888  0.0413  1.5297
 8297TIP3   OH246381   3.372   0.734   5.640  0.0613 -0.5067 -0.2100
 8297TIP3    H146382   3.371   0.760   5.732  0.6098  0.3631 -0.4482
 8297TIP3    H246383   3.461   0.751   5.611 -0.1250 -0.7287 -0.9229
 8298TIP3   OH246384   1.659   6.411   1.113 -0.2152 -0.2024 -0.3721
 8298TIP3    H146385   1.625   6.463   1.040 -2.5738 -0.7445  0.2589
 8298TIP3    H246386   1.675   6.474   1.183 -0.2667  0.0230 -0.5629
 8299TIP3   OH246387   3.322   4.650  14.289 -0.1407 -0.5269 -0.1852
 8299TIP3    H146388   3.331   4.659  14.384  0.1257 -3.3353  0.1583
 8299TIP3    H246389   3.228   4.652  14.273 -0.1374  2.2058 -0.2209
 8300TIP3   OH246390   0.269   5.403  12.098 -0.4427  0.0717  0.1786
 8300TIP3    H146391   0.343   5.352  12.131 -1.3790 -1.6467 -0.2656
 8300TIP3    H246392   0.194   5.343  12.102 -1.2473  0.8239 -1.9893
 8301TIP3   OH246393   0.812   1.928   2.448  0.3337 -0.5499  0.3145
 8301TIP3    H146394   0.848   1.987   2.515 -1.4568 -0.3806  1.2065
 8301TIP3    H246395   0.720   1.954   2.441  0.2608 -1.1832 -1.5868
 8302TIP3   OH246396   1.186   6.664   0.231  0.3700  0.3092 -0.5149
 8302TIP3    H146397   1.235   6.656   0.312  0.8569  1.6961 -0.6401
 8302TIP3    H246398   1.121   6.594   0.235  0.0064  0.6987  1.3410
 8303TIP3   OH246399   0.842   2.164  14.553 -0.3833  0.2058 -0.2687
 8303TIP3    H146400   0.911   2.229  14.564 -0.6976  0.3394  1.2105
 8303TIP3    H246401   0.876   2.104  14.486  0.4580  1.1637 -0.7293
 8304TIP3   OH246402   2.787   2.267   1.284 -0.4819 -0.2515 -0.2195
 8304TIP3    H146403   2.881   2.271   1.300 -0.3032 -0.2378 -1.2017
 8304TIP3    H246404   2.780   2.245   1.191 -1.4485 -0.2108 -0.1611
 8305TIP3   OH246405   6.839   4.833  13.009  0.5883 -0.2050  0.1031
 8305TIP3    H146406   6.926   4.797  12.993  0.7958 -0.1722  1.0786
 8305TIP3    H246407   6.801   4.776  13.075  0.9539  1.3607  1.7488
 8306TIP3   OH246408   6.811   6.386  13.042  0.4994 -0.5763 -0.0013
 8306TIP3    H146409   6.760   6.349  12.969  0.3060 -0.4400  0.0629
 8306TIP3    H246410   6.764   6.358  13.120  0.4414 -0.3280  0.0539
 8307TIP3   OH246411   6.726   2.665   3.189  0.1398  0.4356 -0.5826
 8307TIP3    H146412   6.763   2.730   3.129 -0.9108  1.9390  0.3181
 8307TIP3    H246413   6.800   2.639   3.245  0.3544  1.6967 -0.2531
 8308TIP3   OH246414   6.477   6.021  16.993  0.1998  0.6694  0.0241
 8308TIP3    H146415   6.524   6.086  16.942  0.6362  2.4331  2.5223
 8308TIP3    H246416   6.413   6.071  17.044 -2.0250 -1.2861 -0.6322
 8309TIP3   OH246417   2.223   0.691   3.335 -0.1248  0.4741 -0.8045
 8309TIP3    H146418   2.184   0.603   3.336 -0.1199  0.4708 -1.0214
 8309TIP3    H246419   2.281   0.692   3.411  1.7126 -0.5300 -2.1117
 8310TIP3   OH246420   2.831   5.632   2.770  0.2283  0.3309 -0.3798
 8310TIP3    H146421   2.881   5.630   2.851 -2.1585 -1.4619  1.2127
 8310TIP3    H246422   2.865   5.559   2.719  0.0253 -0.1762  0.1945
 8311TIP3   OH246423   5.312   4.241   4.747  0.1645 -0.2071  0.3063
 8311TIP3    H146424   5.249   4.280   4.686 -0.1517 -0.1563  0.6684
 8311TIP3    H246425   5.365   4.184   4.692  0.3044  0.3422 -0.1407
 8312TIP3   OH246426   5.304   5.700   1.145 -0.3893 -0.2896  0.1994
 8312TIP3    H146427   5.303   5.681   1.051 -1.2428  1.7134 -0.2461
 8312TIP3    H246428   5.232   5.761   1.158 -0.0938 -0.2821  2.1316
 8313TIP3   OH246429   2.610   0.705  16.674 -0.4695 -0.2668 -0.8464
 8313TIP3    H146430   2.646   0.621  16.703  1.2291  0.6707 -0.0777
 8313TIP3    H246431   2.540   0.724  16.737  0.3309 -0.2710  0.0660
 8314TIP3   OH246432   6.021   6.579  15.732 -0.9001 -0.1682 -0.2056
 8314TIP3    H146433   5.977   6.551  15.652  0.0031  0.3169 -0.8947
 8314TIP3    H246434   6.029   6.500  15.785 -0.8249 -0.6518 -0.9311
 8315TIP3   OH246435   0.038   3.041   0.317 -0.1781 -0.0434 -0.3018
 8315TIP3    H146436  -0.045   3.073   0.351 -1.3341 -1.5553 -1.5332
 8315TIP3    H246437   0.079   3.117   0.277 -0.7401  0.8217  0.7196
 8316TIP3   OH246438   5.847   6.742   2.316 -0.0750  0.3976 -0.1225
 8316TIP3    H146439   5.886   6.799   2.249 -0.8681  0.8513 -0.2037
 8316TIP3    H246440   5.877   6.780   2.399  0.8789 -0.1436 -0.2043
 8317TIP3   OH246441   1.459   2.344   3.122  0.4237  0.0338 -0.0405
 8317TIP3    H146442   1.400   2.350   3.197 -1.3528 -2.8541 -1.0512
 8317TIP3    H246443   1.403   2.320   3.049  2.6479 -1.3896 -1.3942
 8318TIP3   OH246444   1.223   1.628   0.616  0.1915 -0.8912 -0.1750
 8318TIP3    H146445   1.243   1.663   0.703 -0.1742 -1.4461  0.1343
 8318TIP3    H246446   1.265   1.543   0.613  0.7169 -0.6269 -0.7753
 8319TIP3   OH246447   0.990   1.253   2.686 -0.2050  0.3877 -0.0039
 8319TIP3    H146448   0.967   1.198   2.612 -0.4691 -0.4598  0.6843
 8319TIP3    H246449   0.921   1.237   2.751  0.7321  0.0669  0.9474
 8320TIP3   OH246450   3.252   1.444   6.450 -0.5592 -0.0716  0.2480
 8320TIP3    H146451   3.177   1.405   6.495 -1.6155 -0.5314 -1.7748
 8320TIP3    H246452   3.233   1.537   6.448 -0.3443 -0.0056  1.0012
 8321TIP3   OH246453   2.190   3.580   2.471  0.1394  0.1448 -0.7162
 8321TIP3    H146454   2.107   3.542   2.443  0.2815 -1.4259  0.8190
 8321TIP3    H246455   2.249   3.568   2.396 -0.0530 -2.0119 -0.5650
 8322TIP3   OH246456   4.318   5.159   2.119  0.2532 -0.1868 -0.6814
 8322TIP3    H146457   4.389   5.217   2.091 -0.0468  0.3423 -0.3723
 8322TIP3    H246458   4.251   5.168   2.052 -0.6312  1.3872  0.3635
 8323TIP3   OH246459   4.985   2.368   2.879 -0.1460 -0.0344  0.2039
 8323TIP3    H146460   4.958   2.451   2.917  0.5339  0.5905 -0.6458
 8323TIP3    H246461   5.081   2.370   2.883 -0.1106 -0.5481 -0.2967
 8324TIP3   OH246462   5.344   1.514   2.437 -0.4880  0.1577  0.6326
 8324TIP3    H146463   5.367   1.600   2.402 -0.3076  0.4203  1.3773
 8324TIP3    H246464   5.376   1.453   2.371 -2.1648  0.6967 -0.7632
 8325TIP3   OH246465   4.060   0.826  15.443  0.3104 -0.2700  0.7088
 8325TIP3    H146466   4.092   0.780  15.365 -0.2213 -0.0510  0.3549
 8325TIP3    H246467   4.048   0.757  15.509  1.6858 -0.3347  0.9174
 8326TIP3   OH246468   5.131   3.132  14.000 -0.4736  0.4499 -0.0027
 8326TIP3    H146469   5.088   3.182  13.931 -1.2280 -0.6066 -0.3218
 8326TIP3    H246470   5.224   3.153  13.990 -0.7187  1.3661 -0.4574
 8327TIP3   OH246471   6.712   0.864  16.959  0.4261  0.5083 -0.0770
 8327TIP3    H146472   6.623   0.833  16.942  0.0904  2.1384 -1.6695
 8327TIP3    H246473   6.764   0.784  16.969 -0.9924 -0.4964 -0.4357
 8328TIP3   OH246474   5.201   5.585   0.155 -0.6532 -0.1006 -0.0786
 8328TIP3    H146475   5.243   5.520   0.211 -0.5668  0.7207  0.8436
 8328TIP3    H246476   5.109   5.560   0.153 -0.6348 -0.2151  0.3426
 8329TIP3   OH246477   1.336   3.894  15.686  0.3116  0.2520  0.4795
 8329TIP3    H146478   1.333   3.844  15.768  1.9503 -0.5019  0.1182
 8329TIP3    H246479   1.391   3.970  15.707 -0.5865  0.9093  0.4984
 8330TIP3   OH246480   4.789   5.418   5.326  0.0226  0.6494 -0.5503
 8330TIP3    H146481   4.876   5.443   5.356  0.4308  0.9668 -1.8906
 8330TIP3    H246482   4.788   5.323   5.334 -0.2895  0.7881  1.4120
 8331TIP3   OH246483   4.747   0.450  16.775 -0.0150 -0.0324 -0.2179
 8331TIP3    H146484   4.815   0.487  16.832  0.2465  2.0690 -1.7737
 8331TIP3    H246485   4.796   0.416  16.700 -0.5042 -0.9971 -0.1084
 8332TIP3   OH246486   5.414   6.720   2.469 -0.1870 -0.6744 -0.1665
 8332TIP3    H146487   5.444   6.797   2.420 -0.3717 -0.6460 -0.2353
 8332TIP3    H246488   5.489   6.660   2.467  0.3300 -0.0751  0.7894
 8333TIP3   OH246489   2.486   3.814  10.762  0.2255  0.1897 -0.1926
 8333TIP3    H146490   2.440   3.786  10.683  0.9187 -2.0303  0.1132
 8333TIP3    H246491   2.539   3.888  10.734  1.3161 -1.2381 -2.1332
 8334TIP3   OH246492   1.951   1.886  15.566  0.0726 -0.1194 -0.3417
 8334TIP3    H146493   1.946   1.841  15.650 -0.4315  0.2520 -0.1651
 8334TIP3    H246494   1.860   1.909  15.546  0.0554 -1.1405 -1.5067
 8335TIP3   OH246495   5.516   1.073  13.689  0.1112 -0.3259 -0.2459
 8335TIP3    H146496   5.479   1.156  13.718  1.7542 -0.1446  1.5286
 8335TIP3    H246497   5.565   1.095  13.610 -0.1128  0.2375 -0.2338
 8336TIP3   OH246498   5.199   3.694   2.796  0.1091 -0.0990 -0.2828
 8336TIP3    H146499   5.234   3.648   2.872 -1.4602  0.3861  0.7868
 8336TIP3    H246500   5.238   3.782   2.801 -0.1020 -0.0233  0.0510
 8337TIP3   OH246501   3.194   5.597  15.080 -0.3451 -0.1734  0.0600
 8337TIP3    H146502   3.219   5.576  14.990 -0.9382 -1.1030  0.0911
 8337TIP3    H246503   3.099   5.583  15.082 -0.3080 -0.3575  0.8798
 8338TIP3   OH246504   3.295   3.025   2.587 -0.4576 -0.3023 -0.0966
 8338TIP3    H146505   3.380   2.982   2.574 -0.9332 -1.2724 -0.0500
 8338TIP3    H246506   3.289   3.088   2.516  0.3009 -0.2338 -0.1078
 8339TIP3   OH246507   6.843   6.268  10.640 -0.0982  0.4448 -0.0734
 8339TIP3    H146508   6.748   6.278  10.650 -0.1536  0.9350 -0.9107
 8339TIP3    H246509   6.864   6.327  10.567  1.0786  1.5082  1.0778
 8340TIP3   OH246510   0.790   0.929   5.639  0.1938 -0.1365  0.2585
 8340TIP3    H146511   0.861   0.931   5.576  0.1639 -0.3083  0.2202
 8340TIP3    H246512   0.823   0.878   5.712 -0.4942 -1.7244 -0.4891
 8341TIP3   OH246513   1.477   2.380  10.835 -0.2738  0.6676  0.4402
 8341TIP3    H146514   1.416   2.408  10.904  1.4466  1.9685  1.5014
 8341TIP3    H246515   1.506   2.462  10.794 -0.0337  0.0024 -0.7609
 8342TIP3   OH246516   3.563   4.976   4.828  0.1889  0.5850  0.0111
 8342TIP3    H146517   3.640   4.951   4.880  0.6323  1.4949 -0.1702
 8342TIP3    H246518   3.555   5.071   4.843 -1.1375  0.4335  0.3279
 8343TIP3   OH246519   6.216   6.525   3.589  0.6615  0.1202  0.2271
 8343TIP3    H146520   6.245   6.594   3.649  0.5306  0.0856  0.3305
 8343TIP3    H246521   6.243   6.556   3.503 -1.6069  1.5185 -0.0534
 8344TIP3   OH246522   5.009   0.101  14.243  0.3524  0.2390  0.5331
 8344TIP3    H146523   5.093   0.085  14.287  1.3894 -0.6358 -1.5924
 8344TIP3    H246524   4.960   0.020  14.257  1.6993 -1.1246 -1.9166
 8345TIP3   OH246525   3.155   4.279  14.384  0.6036 -0.1249 -0.0105
 8345TIP3    H146526   3.250   4.294  14.388  0.3261  2.0579 -0.3326
 8345TIP3    H246527   3.123   4.311  14.468  0.1609 -1.1247  0.2130
 8346TIP3   OH246528   2.493   0.349  15.068  0.1382 -0.4316 -0.2674
 8346TIP3    H146529   2.508   0.338  14.974 -0.4023  0.6495 -0.5024
 8346TIP3    H246530   2.480   0.260  15.101 -2.7941 -0.6863 -1.7738
 8347TIP3   OH246531   0.266   4.460  11.860 -0.0160 -0.0485 -0.0937
 8347TIP3    H146532   0.191   4.518  11.847 -1.4231 -1.7899 -0.1193
 8347TIP3    H246533   0.326   4.510  11.916 -0.6916  1.7914 -0.9507
 8348TIP3   OH246534   4.303   5.309   5.385 -0.3127 -0.3963  0.4998
 8348TIP3    H146535   4.345   5.366   5.450  1.4434  0.1367 -1.0314
 8348TIP3    H246536   4.215   5.346   5.376  0.0036  0.6231  1.2649
 8349TIP3   OH246537   0.862   0.164   2.282  0.2184 -0.3843  0.5869
 8349TIP3    H146538   0.821   0.249   2.298  0.0617 -0.6224  1.5152
 8349TIP3    H246539   0.790   0.107   2.253  0.3314 -0.1981 -0.0785
 8350TIP3   OH246540   4.460   6.411  11.159 -0.1277  0.1841 -0.2238
 8350TIP3    H146541   4.451   6.488  11.103  1.1514 -0.0763 -0.8337
 8350TIP3    H246542   4.483   6.340  11.099 -1.9293 -0.8544  0.2343
 8351TIP3   OH246543   1.895   4.621   5.713  0.8350 -0.6271 -0.0224
 8351TIP3    H146544   1.876   4.611   5.806  2.0008 -1.1474  0.1662
 8351TIP3    H246545   1.904   4.532   5.680 -0.0204 -0.4609 -0.7428
 8352TIP3   OH246546   3.965   5.950  14.570 -0.1536  0.1500 -0.2459
 8352TIP3    H146547   3.923   5.931  14.486 -0.5922 -0.6677  0.1406
 8352TIP3    H246548   3.894   5.984  14.625  0.1414  0.7275 -0.2222
 8353TIP3   OH246549   2.927   4.781  10.929  0.4572  0.2119  0.0528
 8353TIP3    H146550   2.864   4.730  10.979  0.2347  0.1121 -0.3308
 8353TIP3    H246551   2.874   4.834  10.869  0.7575 -0.2365 -0.6181
 8354TIP3   OH246552   5.690   4.593  12.232  0.4002 -0.2275  0.1550
 8354TIP3    H146553   5.722   4.503  12.242  0.1730 -0.1510  1.7366
 8354TIP3    H246554   5.727   4.621  12.148  5.1943  0.0965  2.0343
 8355TIP3   OH246555   5.483   3.858   4.526 -0.5447  0.1847  0.6971
 8355TIP3    H146556   5.431   3.939   4.520  0.1143  0.5513 -0.2495
 8355TIP3    H246557   5.433   3.794   4.475 -0.5598  0.2691  0.6063
 8356TIP3   OH246558   0.800   5.996   3.689 -0.0211 -0.7225 -0.3384
 8356TIP3    H146559   0.882   6.000   3.639  0.1385  1.9200 -0.0228
 8356TIP3    H246560   0.827   5.974   3.778  0.0897 -1.7791 -0.6136
 8357TIP3   OH246561   6.008   1.987   3.439  0.2507  0.1503 -0.4370
 8357TIP3    H146562   5.993   1.912   3.495 -1.2403 -0.4186 -1.5250
 8357TIP3    H246563   5.991   2.063   3.495  0.0646 -0.3608  0.2091
 8358TIP3   OH246564   3.546   3.667   4.346 -0.3897  0.3380 -0.3384
 8358TIP3    H146565   3.545   3.738   4.282 -2.6600 -0.9068 -1.8524
 8358TIP3    H246566   3.500   3.595   4.303  2.5102 -2.4132  0.7879
 8359TIP3   OH246567   5.105   5.293   1.850 -0.0147  0.2833 -0.4300
 8359TIP3    H146568   5.069   5.309   1.763  0.1206  1.7391 -0.2328
 8359TIP3    H246569   5.120   5.380   1.886 -0.0296 -0.3048  1.0394
 8360TIP3   OH246570   6.316   2.532   5.331 -0.5647  0.3982  0.1397
 8360TIP3    H146571   6.262   2.557   5.256 -0.2192  2.3171  0.4680
 8360TIP3    H246572   6.253   2.502   5.397 -0.8579 -1.4744 -0.9269
 8361TIP3   OH246573   2.622   2.057  11.683 -0.3262 -0.4171 -0.3253
 8361TIP3    H146574   2.550   2.117  11.662  0.1790  0.0942 -0.6131
 8361TIP3    H246575   2.695   2.088  11.631  0.2121 -0.7037  0.2515
 8362TIP3   OH246576   1.468   4.360   5.383  0.2749  0.3992  0.3698
 8362TIP3    H146577   1.532   4.426   5.359 -0.0721  1.7600  2.8907
 8362TIP3    H246578   1.383   4.401   5.364  0.0747 -0.1526  0.0336
 8363TIP3   OH246579   5.741   5.478   4.645  0.6281 -0.3935  0.1587
 8363TIP3    H146580   5.675   5.544   4.667  1.5579  0.5612  0.1823
 8363TIP3    H246581   5.699   5.394   4.665 -0.1614  0.2375  1.2649
 8364TIP3   OH246582   1.119   0.343   5.420 -0.7340 -0.1376 -0.2361
 8364TIP3    H146583   1.048   0.284   5.447 -1.7914  1.1910  0.0123
 8364TIP3    H246584   1.132   0.401   5.495  0.4814 -0.2185 -0.3655
 8365TIP3   OH246585   5.385   0.935   3.498 -0.5856  0.3245 -0.0405
 8365TIP3    H146586   5.323   0.892   3.439 -1.6148 -0.9414  1.8357
 8365TIP3    H246587   5.336   0.946   3.580  1.0310  1.1906  0.8547
 8366TIP3   OH246588   2.992   4.741   5.115 -0.6269 -0.5633  0.2464
 8366TIP3    H146589   2.965   4.832   5.132  0.7012 -0.1686  0.3358
 8366TIP3    H246590   3.079   4.734   5.154 -0.9578 -2.0617  0.7620
 8367TIP3   OH246591   2.535   5.030   4.834 -0.1971 -0.0921 -0.1503
 8367TIP3    H146592   2.603   4.986   4.885 -1.0819 -0.8058  0.4464
 8367TIP3    H246593   2.501   4.962   4.775  1.1916  0.8574 -2.1507
 8368TIP3   OH246594   0.950   4.676   3.136 -0.0384  0.6855 -0.4401
 8368TIP3    H146595   0.966   4.749   3.196 -1.0355 -0.6154  1.5365
 8368TIP3    H246596   0.924   4.604   3.193 -0.0104 -0.9564 -2.3968
 8369TIP3   OH246597   3.073   4.492   1.502  0.0374 -0.1819 -0.3024
 8369TIP3    H146598   3.166   4.515   1.494  0.9042 -3.0437  0.3301
 8369TIP3    H246599   3.053   4.445   1.421 -1.7235  2.6768 -1.6796
 8370TIP3   OH246600   2.042   0.775   5.143  0.2405 -0.2789 -0.1261
 8370TIP3    H146601   2.107   0.735   5.085  0.3001  0.9152 -0.9083
 8370TIP3    H246602   2.094   0.821   5.209  0.1969  0.0811 -0.3380
 8371TIP3   OH246603   6.159   4.788  12.649 -0.1213  0.0685  0.0286
 8371TIP3    H146604   6.112   4.868  12.625 -0.1456 -0.1671 -0.7227
 8371TIP3    H246605   6.097   4.717  12.632  0.0617 -0.1453  0.2464
 8372TIP3   OH246606   4.245   1.615  11.927  0.1910  0.4169  0.0359
 8372TIP3    H146607   4.198   1.536  11.901 -0.9270  0.4565  1.7381
 8372TIP3    H246608   4.225   1.679  11.859  0.0023 -0.3756 -0.6649
 8373TIP3   OH246609   2.380   2.466   5.964 -0.3392 -0.3791 -0.3351
 8373TIP3    H146610   2.320   2.403   5.925 -0.2521  0.1746 -1.4001
 8373TIP3    H246611   2.467   2.429   5.949 -0.1967  0.5122 -2.0574
 8374TIP3   OH246612   0.547   1.558   3.028  0.2252  0.8081 -0.4259
 8374TIP3    H146613   0.475   1.596   2.978 -1.2872  0.5033  1.4118
 8374TIP3    H246614   0.557   1.617   3.103  1.9387  0.8476 -0.6361
 8375TIP3   OH246615   5.723   1.569  12.602  0.5712  0.5209  0.0305
 8375TIP3    H146616   5.656   1.582  12.534  1.5561  4.3442 -0.4312
 8375TIP3    H246617   5.791   1.516  12.559  0.5278  1.6703 -1.5185
 8376TIP3   OH246618   1.340   5.701  13.185  0.5358 -0.0650  0.1202
 8376TIP3    H146619   1.386   5.628  13.144  0.4406  0.5361 -1.0818
 8376TIP3    H246620   1.350   5.773  13.124 -1.7908  0.1627 -0.0701
 8377TIP3   OH246621   4.319   1.979   2.073  0.1448  0.3310  0.1045
 8377TIP3    H146622   4.378   1.911   2.105  1.0142  0.9041 -0.2698
 8377TIP3    H246623   4.236   1.933   2.059  0.6149 -0.5750  0.2111
 8378TIP3   OH246624   4.495   6.786  13.140 -0.3902 -0.5412  0.1722
 8378TIP3    H146625   4.567   6.832  13.096 -0.6942  0.3233  0.5565
 8378TIP3    H246626   4.539   6.721  13.195  0.1248  0.0767  0.5127
 8379TIP3   OH246627   6.121   0.828   5.139  0.0865 -0.2362 -0.2045
 8379TIP3    H146628   6.150   0.919   5.143 -1.2498  0.1612  1.8702
 8379TIP3    H246629   6.025   0.833   5.140 -0.0174 -1.6671  1.3200
 8380TIP3   OH246630   3.557   0.301  15.549  0.6174  0.2365  0.4821
 8380TIP3    H146631   3.502   0.285  15.473  0.8574 -0.7433  0.5086
 8380TIP3    H246632   3.605   0.381  15.527 -0.5762  0.9378  0.3355
 8381TIP3   OH246633   5.497   4.468  15.692 -0.2368  0.4451  0.0770
 8381TIP3    H146634   5.592   4.452  15.691  0.2825  2.5131  2.8143
 8381TIP3    H246635   5.472   4.472  15.600  2.2325 -0.6045 -0.7380
 8382TIP3   OH246636   1.442   6.277   4.777  0.6558  0.1644 -0.6065
 8382TIP3    H146637   1.510   6.311   4.836  0.3524  2.1003 -1.3135
 8382TIP3    H246638   1.404   6.204   4.826  2.9500 -0.7375 -0.0227
 8383TIP3   OH246639   1.662   4.789  14.298 -0.1460  0.2645  0.5639
 8383TIP3    H146640   1.722   4.717  14.280 -0.1377  0.3380  0.2908
 8383TIP3    H246641   1.622   4.767  14.382  1.1953  0.8181  1.4021
 8384TIP3   OH246642   5.679   4.328   0.287 -0.5247 -1.0293  0.1809
 8384TIP3    H146643   5.629   4.329   0.205 -0.8024 -1.3218  0.3444
 8384TIP3    H246644   5.687   4.235   0.308  0.0538 -0.9842  0.1789
 8385TIP3   OH246645   1.234   6.150   3.998 -0.9519  0.0205 -0.0369
 8385TIP3    H146646   1.151   6.171   4.040 -1.9882 -1.6107 -1.1859
 8385TIP3    H246647   1.223   6.061   3.965  0.6110  0.3984 -1.7529
 8386TIP3   OH246648   3.568   2.409   0.889  0.1084  0.7425 -0.3478
 8386TIP3    H146649   3.580   2.440   0.800 -0.8631 -1.8903 -1.4964
 8386TIP3    H246650   3.474   2.397   0.899  0.3313 -0.6159  0.4003
 8387TIP3   OH246651   6.785   2.509   4.957 -0.0406  0.3454  0.1696
 8387TIP3    H146652   6.824   2.569   5.020  0.4828 -0.6548  0.8238
 8387TIP3    H246653   6.856   2.448   4.934 -0.0008  1.1074 -1.9501
 8388TIP3   OH246654   1.258   5.511  10.908  0.1996  0.8012 -0.2368
 8388TIP3    H146655   1.329   5.499  10.845 -1.3784  0.2949 -2.0374
 8388TIP3    H246656   1.198   5.572  10.864 -0.9076  0.5030  0.8231
 8389TIP3   OH246657   2.417   1.055   6.578  0.9263 -0.1918  0.5008
 8389TIP3    H146658   2.464   1.116   6.634  2.4075  0.0081 -0.9013
 8389TIP3    H246659   2.462   0.972   6.590  0.8350 -0.3009  0.0893
 8390TIP3   OH246660   0.818   5.631   0.757  0.7126  0.3758 -0.1419
 8390TIP3    H146661   0.808   5.656   0.849  1.1018  0.8528 -0.2236
 8390TIP3    H246662   0.793   5.539   0.754  0.3148  0.4622  0.3698
 8391TIP3   OH246663   3.277   2.063  11.046  0.2039  0.8983  0.5123
 8391TIP3    H146664   3.346   2.047  11.110 -0.2264  1.3234  1.0983
 8391TIP3    H246665   3.313   2.032  10.963  1.1245  1.1935  0.7936
 8392TIP3   OH246666   5.268   5.961  15.741  0.1354  0.2461  0.1173
 8392TIP3    H146667   5.177   5.947  15.717 -0.0099  1.7527 -0.3392
 8392TIP3    H246668   5.303   6.019  15.672  1.5207 -0.5268  0.1221
 8393TIP3   OH246669   3.008   3.820   5.446 -0.2504 -0.1105  0.0692
 8393TIP3    H146670   3.064   3.887   5.408 -1.2170  0.2939 -0.6622
 8393TIP3    H246671   2.952   3.867   5.508  0.5650 -0.6005  1.2342
 8394TIP3   OH246672   0.998   5.570   3.214  0.5942  0.1041 -0.0748
 8394TIP3    H146673   1.045   5.486   3.221  0.0026 -0.4265 -1.8414
 8394TIP3    H246674   0.949   5.563   3.132  1.3259  2.5959 -0.8084
 8395TIP3   OH246675   5.056   6.194  15.668  0.2373 -0.0116  0.0268
 8395TIP3    H146676   5.049   6.099  15.674  0.6212 -0.0350  0.1352
 8395TIP3    H246677   4.966   6.224  15.655 -0.0840 -0.2711  1.4969
 8396TIP3   OH246678   1.171   4.205  16.169  0.0019  0.1236  0.0835
 8396TIP3    H146679   1.226   4.245  16.101  0.0033  2.3915  1.3172
 8396TIP3    H246680   1.212   4.121  16.187  1.4190  0.5336 -1.0134
 8397TIP3   OH246681   1.654   6.346  14.030  0.5748 -0.0802  0.0904
 8397TIP3    H146682   1.584   6.388  14.079 -0.8612 -2.9145  0.6873
 8397TIP3    H246683   1.717   6.416  14.013 -1.0469  1.9794  1.9699
 8398TIP3   OH246684   5.898   5.591  14.863 -0.5675 -0.1207 -0.3167
 8398TIP3    H146685   5.952   5.550  14.930 -1.3675  0.6997  0.8602
 8398TIP3    H246686   5.953   5.661  14.828 -1.0769  1.2419  1.4462
 8399TIP3   OH246687   5.100   3.632   4.018  0.2912 -0.5110 -0.5384
 8399TIP3    H146688   5.114   3.713   3.969  0.1230  0.0244  0.2764
 8399TIP3    H246689   5.186   3.592   4.024  0.6690  0.3865  0.3676
 8400TIP3   OH246690   2.037   6.075  12.112 -0.3657 -0.5204 -0.0142
 8400TIP3    H146691   2.058   6.166  12.134 -0.1895 -0.3573 -0.8095
 8400TIP3    H246692   2.048   6.071  12.017 -1.2061 -1.1589 -0.0916
 8401TIP3   OH246693   6.796   5.052  16.707 -0.4040  0.4827  0.3567
 8401TIP3    H146694   6.703   5.072  16.691 -0.5822 -0.0348  0.7339
 8401TIP3    H246695   6.795   4.968  16.752  0.2761  0.2894  0.0156
 8402TIP3   OH246696   5.165   6.483   0.388  0.0284  0.6091  0.0409
 8402TIP3    H146697   5.254   6.478   0.354 -0.1480  0.8508 -0.4617
 8402TIP3    H246698   5.109   6.463   0.313 -0.3277 -0.1169  0.4873
 8403TIP3   OH246699   6.835   3.575   3.324  0.7390  0.2994  0.3585
 8403TIP3    H146700   6.857   3.516   3.252  1.2521  1.6918 -0.6622
 8403TIP3    H246701   6.740   3.585   3.319  0.8937  1.3922 -0.9802
 8404TIP3   OH246702   3.037   6.346   2.608 -0.0681 -0.7031 -0.1791
 8404TIP3    H146703   2.966   6.387   2.560 -0.0364  1.0887  1.1904
 8404TIP3    H246704   3.099   6.417   2.625  0.1756 -1.3611  1.9758
 8405TIP3   OH246705   6.045   6.050  12.585 -0.1199  0.5328 -0.2579
 8405TIP3    H146706   6.049   5.957  12.607 -0.1712  0.4304 -0.6636
 8405TIP3    H246707   5.964   6.081  12.625 -0.3128  0.3069 -0.4686
 8406TIP3   OH246708   4.615   2.887   5.663  0.1698 -0.5059  0.1850
 8406TIP3    H146709   4.685   2.840   5.617 -0.3866  0.2598 -1.5076
 8406TIP3    H246710   4.609   2.971   5.618 -0.5633  0.1960  1.5520
 8407TIP3   OH246711   2.939   0.596  10.927  0.4279 -0.3844 -0.2344
 8407TIP3    H146712   2.877   0.647  10.875 -0.5134 -2.2613 -1.0416
 8407TIP3    H246713   2.894   0.513  10.942  1.8951 -0.9841  1.0623
 8408TIP3   OH246714   0.562   3.353   2.542 -0.8001  0.5258 -0.0808
 8408TIP3    H146715   0.603   3.316   2.463 -0.5044 -2.8431  1.4864
 8408TIP3    H246716   0.631   3.404   2.583 -0.1714  0.1999 -0.7086
 8409TIP3   OH246717   2.032   1.922  11.598 -0.7498 -0.8250  0.2841
 8409TIP3    H146718   2.110   1.918  11.654 -1.3810  0.4106  1.3176
 8409TIP3    H246719   1.965   1.874  11.646 -1.1723 -0.1387  0.4062
 8410TIP3   OH246720   3.129   6.840  12.958  0.1725 -0.0875  0.1436
 8410TIP3    H146721   3.174   6.920  12.984  0.0380  0.1655 -0.3973
 8410TIP3    H246722   3.191   6.795  12.900 -0.4651  0.5265 -1.0467
 8411TIP3   OH246723   0.359   5.415   3.574  0.0141  0.5104 -0.6389
 8411TIP3    H146724   0.399   5.499   3.554 -0.7837  1.2214  0.6537
 8411TIP3    H246725   0.265   5.430   3.568 -0.1812  0.0859  0.9520
 8412TIP3   OH246726   4.935   1.063  12.257  0.0439  0.3347  0.8389
 8412TIP3    H146727   4.917   1.117  12.181  1.9958  1.0605  0.8388
 8412TIP3    H246728   4.951   0.975  12.222  1.5677  0.8037  0.3222
 8413TIP3   OH246729   1.124   0.020   1.475 -0.3625  0.3358  0.2477
 8413TIP3    H146730   1.076   0.073   1.539  0.6023  0.9403  0.4945
 8413TIP3    H246731   1.095  -0.069   1.492  0.4941  0.3588  2.1493
 8414TIP3   OH246732   4.307   3.439   4.322 -0.0490  0.7093  0.8500
 8414TIP3    H146733   4.249   3.447   4.246 -0.0920 -0.4541  0.7554
 8414TIP3    H246734   4.279   3.510   4.380 -1.8672 -0.0663  0.9896
 8415TIP3   OH246735   3.481   5.721  11.518  0.1761  0.3856 -0.4098
 8415TIP3    H146736   3.542   5.766  11.576  0.1556  1.0409 -0.8860
 8415TIP3    H246737   3.525   5.722  11.433  0.0076 -0.1709 -0.5057
 8416TIP3   OH246738   5.621   4.122  15.869 -0.2122  0.7787 -0.1393
 8416TIP3    H146739   5.542   4.135  15.816 -0.1476  0.8439 -0.2195
 8416TIP3    H246740   5.594   4.059  15.937  0.0897 -0.4151 -1.0934
 8417TIP3   OH246741   4.435   5.718   3.487 -0.5986  0.7193 -0.1437
 8417TIP3    H146742   4.374   5.725   3.561  0.5647 -1.4384  1.1368
 8417TIP3    H246743   4.382   5.688   3.414 -1.1370 -1.2407  0.9780
 8418TIP3   OH246744   0.848   4.471   1.262  0.1056  0.3155 -0.1789
 8418TIP3    H146745   0.797   4.507   1.334 -0.3601 -0.5553 -0.0586
 8418TIP3    H246746   0.791   4.481   1.185  0.0789  0.0835 -0.1911
 8419TIP3   OH246747   0.847   3.014   0.656 -0.7081  0.0445 -0.9256
 8419TIP3    H146748   0.809   2.971   0.732 -0.3641 -0.4527 -1.0343
 8419TIP3    H246749   0.776   3.069   0.622 -1.0944 -0.3074 -0.6937
 8420TIP3   OH246750   5.539   5.764  15.553 -0.0815  0.4743  0.1618
 8420TIP3    H146751   5.577   5.681  15.579  0.6465  1.0293  0.9292
 8420TIP3    H246752   5.526   5.812  15.635 -1.9452  0.5226 -0.1277
 8421TIP3   OH246753   3.530   2.304   5.327  0.2444 -0.4857 -0.1917
 8421TIP3    H146754   3.610   2.356   5.329 -1.1633  1.8502 -0.6183
 8421TIP3    H246755   3.509   2.297   5.234 -0.4739 -0.3768 -0.0398
 8422TIP3   OH246756   0.637   2.961  15.236 -0.4082 -0.4381 -0.1513
 8422TIP3    H146757   0.718   2.953  15.286  0.1006 -1.4209 -1.0865
 8422TIP3    H246758   0.636   3.052  15.206 -1.3427  0.5856  2.5799
 8423TIP3   OH246759   0.146   0.151   5.036  0.2257 -0.4559  0.4727
 8423TIP3    H146760   0.082   0.222   5.040 -0.8327 -1.2210 -1.3924
 8423TIP3    H246761   0.114   0.086   5.097 -0.2196 -0.3906  0.3160
 8424TIP3   OH246762   5.475   6.179  14.172 -0.0378  0.0737 -0.4996
 8424TIP3    H146763   5.529   6.168  14.094 -0.3937  0.2385 -0.7730
 8424TIP3    H246764   5.465   6.273  14.183 -0.1318  0.0486 -0.3560
 8425TIP3   OH246765   3.810   2.373  15.094 -0.4601 -0.2587  0.5174
 8425TIP3    H146766   3.761   2.308  15.146  0.9279 -1.3768  0.4880
 8425TIP3    H246767   3.770   2.369  15.007 -0.6737 -0.7434  0.6332
 8426TIP3   OH246768   1.911   1.590   2.009  0.3189 -0.0551 -0.5671
 8426TIP3    H146769   1.947   1.645   1.940  1.5973 -0.6342 -0.4052
 8426TIP3    H246770   1.937   1.634   2.090  1.6954 -1.0376 -0.4270
 8427TIP3   OH246771   4.147   2.196  15.450  0.1063  0.1422  0.4882
 8427TIP3    H146772   4.056   2.175  15.431 -1.2969  1.7853  4.2978
 8427TIP3    H246773   4.177   2.123  15.505  0.1481  0.9130  1.5026
 8428TIP3   OH246774   5.162   3.477  12.289  0.2703 -0.4216  0.1811
 8428TIP3    H146775   5.150   3.535  12.364  1.9391 -1.0505  1.0023
 8428TIP3    H246776   5.256   3.481  12.271  0.1921 -1.7346 -0.6648
 8429TIP3   OH246777   3.475   5.463  15.047 -0.3354  0.1717 -0.0442
 8429TIP3    H146778   3.454   5.415  15.127  2.1320 -2.4113 -0.7798
 8429TIP3    H246779   3.494   5.395  14.982  1.8312  2.1346 -1.6361
 8430TIP3   OH246780   2.531   4.085   5.257 -0.1729  0.6353  0.4499
 8430TIP3    H146781   2.515   3.992   5.273 -2.2743  1.0918  1.3044
 8430TIP3    H246782   2.486   4.103   5.175  0.9259  0.7506 -0.1430
 8431TIP3   OH246783   2.279   2.610  12.619  0.1810 -0.0685  0.6036
 8431TIP3    H146784   2.211   2.549  12.592  0.0596  0.4889 -0.4094
 8431TIP3    H246785   2.358   2.556  12.627 -0.0325 -0.4482  0.1939
 8432TIP3   OH246786   3.301   1.896   1.262  0.1708 -0.3596  1.0667
 8432TIP3    H146787   3.336   1.873   1.176 -1.1699  0.4924  0.2517
 8432TIP3    H246788   3.210   1.921   1.245 -0.0344  0.1302  2.6916
 8433TIP3   OH246789   0.445   6.335   1.500 -0.0446  0.0937  0.0044
 8433TIP3    H146790   0.530   6.379   1.502 -0.6755  1.3607 -0.1013
 8433TIP3    H246791   0.456   6.264   1.437  0.8374  0.4356 -0.2461
 8434TIP3   OH246792   4.837   5.650  11.465 -0.3973 -0.3851 -0.1618
 8434TIP3    H146793   4.924   5.672  11.497 -1.4983 -0.0482  2.9076
 8434TIP3    H246794   4.841   5.556  11.445  0.3340 -0.6808  1.2825
 8435TIP3   OH246795   4.431   5.402   2.878 -0.0426  0.3380  0.5368
 8435TIP3    H146796   4.481   5.417   2.798 -1.0514  1.3122  0.0649
 8435TIP3    H246797   4.462   5.469   2.939 -0.7787  0.9771  0.2259
 8436TIP3   OH246798   1.431   5.203   1.144  0.0232 -0.6698 -0.1894
 8436TIP3    H146799   1.516   5.161   1.129 -0.1709 -1.1518  0.0187
 8436TIP3    H246800   1.452   5.293   1.167  0.4341 -0.5444 -1.0116
 8437TIP3   OH246801   6.142   2.780  12.181 -0.1368 -0.3579  0.2676
 8437TIP3    H146802   6.060   2.745  12.215 -0.5356 -2.3530 -2.4245
 8437TIP3    H246803   6.175   2.712  12.122  2.2500  1.3773 -0.5785
 8438TIP3   OH246804   4.855   6.750   2.020  0.4054  0.0701  0.4039
 8438TIP3    H146805   4.795   6.685   1.984  1.5474 -0.0990 -1.3715
 8438TIP3    H246806   4.870   6.723   2.110  0.0967 -1.5816 -0.0068
 8439TIP3   OH246807   6.703   5.762   9.996  0.0403 -0.2231  0.0386
 8439TIP3    H146808   6.614   5.796   9.987  0.5557  0.7427 -2.1848
 8439TIP3    H246809   6.698   5.673   9.964  0.2566  0.5887 -2.4495
 8440TIP3   OH246810   2.840   6.180   4.619  0.2523 -0.0531 -0.3484
 8440TIP3    H146811   2.817   6.230   4.541  0.5401 -0.5106 -0.7303
 8440TIP3    H246812   2.778   6.108   4.621  0.5717 -0.3332 -0.4420
 8441TIP3   OH246813   2.098   6.664  11.546 -0.1295 -0.1663 -0.3025
 8441TIP3    H146814   2.133   6.618  11.469 -1.9681 -1.4165 -0.4590
 8441TIP3    H246815   2.165   6.651  11.614  0.7648 -0.4752 -1.2144
 8442TIP3   OH246816   4.141   3.703   2.682  0.0254 -0.4535 -0.6596
 8442TIP3    H146817   4.049   3.676   2.685  0.5957 -2.5227 -0.4516
 8442TIP3    H246818   4.161   3.710   2.589  0.1062 -1.7989 -0.7685
 8443TIP3   OH246819   3.482   5.219   1.454 -0.2895  0.4268 -0.4014
 8443TIP3    H146820   3.551   5.258   1.508  1.4913 -1.4649 -1.1679
 8443TIP3    H246821   3.508   5.128   1.444 -2.7928 -0.3177 -0.9934
 8444TIP3   OH246822   1.767   4.819  13.268  0.5537 -0.2293 -0.2434
 8444TIP3    H146823   1.829   4.844  13.199  1.3547 -0.3052  0.4413
 8444TIP3    H246824   1.804   4.741  13.308  0.6178  0.3882  0.9375
 8445TIP3   OH246825   4.176   2.993   2.041 -0.5432  0.2429 -0.0181
 8445TIP3    H146826   4.175   2.953   2.128  0.5850  0.6076  0.1800
 8445TIP3    H246827   4.254   3.048   2.041  0.3037 -0.8688 -1.7492
 8446TIP3   OH246828   3.863   6.413   4.530 -0.5673 -0.7201  0.6778
 8446TIP3    H146829   3.822   6.492   4.495  0.2295 -0.6165 -0.0340
 8446TIP3    H246830   3.840   6.344   4.468  0.1006 -0.7149  0.4198
 8447TIP3   OH246831   3.119   6.463  15.941 -0.0266 -0.2067 -0.0551
 8447TIP3    H146832   3.142   6.449  16.033  3.6093  0.0345 -0.7823
 8447TIP3    H246833   3.113   6.558  15.932 -0.9876 -0.2447 -0.0181
 8448TIP3   OH246834   5.724   3.618   4.798 -0.3086 -0.2145  0.5113
 8448TIP3    H146835   5.742   3.643   4.708 -1.9856  0.4321  0.3195
 8448TIP3    H246836   5.706   3.700   4.843  0.9010 -0.4929  1.5577
 8449TIP3   OH246837   0.628   2.673   1.591 -0.2123  0.5529  0.1815
 8449TIP3    H146838   0.691   2.742   1.570  1.2922 -0.2121  1.9311
 8449TIP3    H246839   0.547   2.700   1.546  0.9728  2.2370 -1.0602
 8450TIP3   OH246840   4.326   3.034  12.770  0.4669 -0.8866  0.2975
 8450TIP3    H146841   4.336   3.129  12.759  2.0458 -0.8391  1.6882
 8450TIP3    H246842   4.239   3.023  12.808  0.0629 -0.0347 -0.3632
 8451TIP3   OH246843   3.523   3.219  12.847 -0.3995  0.2803  0.2458
 8451TIP3    H146844   3.456   3.181  12.903 -1.5526 -0.0258 -1.2796
 8451TIP3    H246845   3.520   3.166  12.767  1.0976  0.7848 -0.1793
 8452TIP3   OH246846   0.950   2.304   3.278 -0.1865 -0.4409 -0.0653
 8452TIP3    H146847   0.886   2.288   3.209 -0.4468 -0.6074  0.2125
 8452TIP3    H246848   0.902   2.355   3.344  0.0803 -0.2186 -0.0382
 8453TIP3   OH246849   0.552   3.541   2.268  0.0566  0.7375 -0.2237
 8453TIP3    H146850   0.582   3.572   2.182  2.3003  0.0042  0.2177
 8453TIP3    H246851   0.626   3.558   2.326 -1.3009  0.8928  1.5071
 8454TIP3   OH246852   3.233   2.713  13.081  0.2068  0.3489  0.1697
 8454TIP3    H146853   3.254   2.802  13.107 -0.2577  0.9239 -1.3371
 8454TIP3    H246854   3.139   2.714  13.063 -0.8954 -1.6030  4.5107
 8455TIP3   OH246855   1.557   2.438   5.164  0.6648  0.0639  0.1480
 8455TIP3    H146856   1.497   2.364   5.170  0.9287 -0.4114 -2.2023
 8455TIP3    H246857   1.584   2.454   5.254 -2.2186 -0.3032  1.2084
 8456TIP3   OH246858   5.535   0.265  16.593 -0.3099 -0.7554 -0.8036
 8456TIP3    H146859   5.627   0.284  16.575 -0.6569 -1.0042 -3.2580
 8456TIP3    H246860   5.498   0.349  16.622  0.5018 -0.4234 -0.7241
 8457TIP3   OH246861   2.272   0.640   1.657 -0.2357 -0.5009 -0.0350
 8457TIP3    H146862   2.331   0.705   1.618  0.5075 -0.7947  0.5892
 8457TIP3    H246863   2.203   0.628   1.591 -0.4259  0.9600 -0.1342
 8458TIP3   OH246864   2.356   6.033   1.610  0.8135  0.1024  0.2588
 8458TIP3    H146865   2.346   6.124   1.580  0.8486  0.0062 -0.0471
 8458TIP3    H246866   2.439   6.005   1.573 -0.0929 -0.6847 -1.2645
 8459TIP3   OH246867   0.193   3.200  15.292  0.2917 -0.3676 -0.0890
 8459TIP3    H146868   0.125   3.261  15.321  0.1233 -1.1991  1.3499
 8459TIP3    H246869   0.161   3.114  15.317  1.5942 -0.8396  0.0532
 8460TIP3   OH246870   3.898   1.806  16.617  0.0705  0.2620 -0.3671
 8460TIP3    H146871   3.868   1.723  16.580  1.8034 -0.7591  0.3637
 8460TIP3    H246872   3.888   1.795  16.712  1.4391  0.3735 -0.1853
 8461TIP3   OH246873   3.242   5.334   1.576  0.3619  0.2426  0.2827
 8461TIP3    H146874   3.295   5.396   1.627  0.3292 -0.1548  0.8066
 8461TIP3    H246875   3.305   5.291   1.519  0.3334  0.9999 -0.3344
 8462TIP3   OH246876   4.915   4.971  14.064  0.2080 -0.2464 -0.0127
 8462TIP3    H146877   4.962   4.968  14.148 -0.6530  0.3078  0.5088
 8462TIP3    H246878   4.839   5.027  14.082  0.4412  0.5493 -1.3914
 8463TIP3   OH246879   0.687   1.550  14.611 -0.3548 -0.2006  0.3812
 8463TIP3    H146880   0.595   1.525  14.607 -0.8979  1.7723 -1.4413
 8463TIP3    H246881   0.728   1.503  14.538  0.1068 -1.0897  1.2001
 8464TIP3   OH246882   4.884   5.869   0.071  0.1970  0.2996  0.3009
 8464TIP3    H146883   4.849   5.875   0.159  1.1069 -0.4233  0.7243
 8464TIP3    H246884   4.956   5.932   0.070  0.8790 -0.4625  0.4251
 8465TIP3   OH246885   0.154   0.525  14.110 -0.7059 -0.4599 -0.2317
 8465TIP3    H146886   0.189   0.505  14.196 -1.1098  0.2256  0.1023
 8465TIP3    H246887   0.166   0.445  14.059  0.6799 -0.4660  0.0855
 8466TIP3   OH246888   6.541   4.749   1.477  0.4966 -0.3120 -0.2118
 8466TIP3    H146889   6.499   4.679   1.428 -1.7683  0.9170 -0.1668
 8466TIP3    H246890   6.585   4.705   1.550 -2.7573 -1.6360  1.1522
 8467TIP3   OH246891   5.116   0.284   2.663 -0.1518  0.0739 -0.2118
 8467TIP3    H146892   5.034   0.290   2.615 -1.3383 -0.8863  1.5656
 8467TIP3    H246893   5.145   0.194   2.650  1.1861  0.6702 -1.6293
 8468TIP3   OH246894   2.020   1.107   3.755  0.1797  0.0363  0.4691
 8468TIP3    H146895   2.049   1.053   3.681 -2.0557 -2.4253  1.2278
 8468TIP3    H246896   1.945   1.156   3.722  1.9330  2.5221 -0.0843
 8469TIP3   OH246897   5.570   6.224   2.262 -0.2996  0.0084 -1.1034
 8469TIP3    H146898   5.565   6.153   2.198  2.0563 -0.8152 -0.4825
 8469TIP3    H246899   5.574   6.180   2.347  1.3839  0.8466 -0.7118
 8470TIP3   OH246900   4.826   0.302   1.708  0.4182  0.0251 -0.3111
 8470TIP3    H146901   4.845   0.323   1.617  1.8070  0.2961  0.0259
 8470TIP3    H246902   4.733   0.278   1.708  0.4422 -0.1426 -1.8153
 8471TIP3   OH246903   5.600   4.740   3.154 -0.1056  0.0876  0.2261
 8471TIP3    H146904   5.542   4.807   3.117 -2.0876 -1.3015  0.6118
 8471TIP3    H246905   5.603   4.673   3.085  2.5713  0.8824 -0.5293
 8472TIP3   OH246906   6.106   5.412  14.399  0.5491 -0.4638  0.3027
 8472TIP3    H146907   6.075   5.331  14.440  0.6491  0.6934  2.8578
 8472TIP3    H246908   6.136   5.385  14.313 -1.6176 -2.7228  0.1317
 8473TIP3   OH246909   4.525   1.244   2.204  0.7364 -0.3252 -0.2932
 8473TIP3    H146910   4.499   1.236   2.296  1.4453  1.2362  0.0710
 8473TIP3    H246911   4.509   1.157   2.168  0.1145 -0.8835  1.2156
 8474TIP3   OH246912   0.941   4.947   0.577 -0.1751 -0.0776  0.4876
 8474TIP3    H146913   0.868   4.918   0.523 -0.1495  0.4106  0.1903
 8474TIP3    H246914   1.016   4.948   0.518  0.2276 -1.2197  0.9436
 8475TIP3   OH246915   6.675   2.123   0.798 -0.3569  0.2710 -0.0774
 8475TIP3    H146916   6.677   2.065   0.723  0.6178  1.4868 -1.0314
 8475TIP3    H246917   6.749   2.182   0.785 -1.8721  2.3836  0.2990
 8476TIP3   OH246918   2.562   4.521   3.826 -0.5192 -0.4234  0.1037
 8476TIP3    H146919   2.504   4.568   3.887  0.4003  0.8902 -0.0040
 8476TIP3    H246920   2.522   4.535   3.740 -0.1542  0.3544  0.0486
 8477TIP3   OH246921   0.639   5.726  10.720  0.4135 -0.0637  0.5036
 8477TIP3    H146922   0.699   5.672  10.772  0.7282 -0.1671  0.0404
 8477TIP3    H246923   0.578   5.762  10.784  0.3465 -0.7759  0.8487
 8478TIP3   OH246924   3.230   6.356  15.003  0.2019  0.2759 -0.7703
 8478TIP3    H146925   3.205   6.311  15.083  0.2570  2.2128  0.3942
 8478TIP3    H246926   3.173   6.318  14.936 -0.4839 -0.7451  0.3489
 8479TIP3   OH246927   0.190   0.048  12.576  0.4959 -0.4138  0.2174
 8479TIP3    H146928   0.130   0.096  12.519 -1.4537 -0.9947  1.6665
 8479TIP3    H246929   0.141  -0.030  12.602  0.9633  0.1658  3.2184
 8480TIP3   OH246930   0.944   2.706   4.621  0.4344 -0.4035  0.0313
 8480TIP3    H146931   1.022   2.653   4.610  1.1185  0.5892 -0.0412
 8480TIP3    H246932   0.966   2.790   4.580 -0.4237  0.1142  0.5881
 8481TIP3   OH246933   4.300   6.515  15.112 -0.4209 -0.2087  0.5579
 8481TIP3    H146934   4.250   6.558  15.181 -0.6821  0.8190 -0.2387
 8481TIP3    H246935   4.392   6.534  15.133 -0.4381 -0.8304  1.2096
 8482TIP3   OH246936   1.343   1.345   5.170  0.2910 -1.0430 -0.2932
 8482TIP3    H146937   1.358   1.257   5.203 -0.7891 -1.3550 -0.5952
 8482TIP3    H246938   1.264   1.338   5.117 -0.7044  0.4120  0.9224
 8483TIP3   OH246939   2.685   1.365  12.660  0.4522  0.0908 -0.2739
 8483TIP3    H146940   2.628   1.320  12.598 -0.1741  0.6386 -0.1137
 8483TIP3    H246941   2.773   1.356  12.624 -0.0884  1.9359 -2.2053
 8484TIP3   OH246942   2.690   4.049   0.457 -0.2090  0.8441 -0.5768
 8484TIP3    H146943   2.598   4.073   0.466 -0.2230  0.6090 -0.0877
 8484TIP3    H246944   2.701   3.971   0.511  0.1967  0.6614 -0.9168
 8485TIP3   OH246945   3.691   3.052  15.939  0.0115 -0.4463  0.0590
 8485TIP3    H146946   3.645   3.131  15.912  0.9046 -0.3507 -1.2869
 8485TIP3    H246947   3.777   3.059  15.898  0.0200 -2.2434 -0.3183
 8486TIP3   OH246948   4.312   6.373   0.737 -0.2728  0.2754  0.5219
 8486TIP3    H146949   4.218   6.382   0.725 -0.1581 -1.0441 -1.9061
 8486TIP3    H246950   4.350   6.450   0.694 -0.1766  0.2865  0.6230
 8487TIP3   OH246951   5.914   2.152   2.350  0.9027 -0.0677 -0.1796
 8487TIP3    H146952   5.904   2.120   2.440  0.8378  0.8021  0.1301
 8487TIP3    H246953   5.881   2.080   2.295  3.3302 -1.6929  0.3361
 8488TIP3   OH246954   3.729   1.085  13.735 -0.0269 -0.3923  0.7068
 8488TIP3    H146955   3.664   1.018  13.712  0.4480 -0.1297 -1.7093
 8488TIP3    H246956   3.677   1.163  13.752 -0.4450 -0.7196  0.9637
 8489TIP3   OH246957   6.458   3.129   4.140  0.4415 -0.0136  0.3293
 8489TIP3    H146958   6.545   3.110   4.177  0.9146 -0.4328 -0.9600
 8489TIP3    H246959   6.397   3.084   4.198  0.9903  1.0971  1.8327
 8490TIP3   OH246960   0.026   3.820   5.261 -0.0821 -0.0356  0.1623
 8490TIP3    H146961   0.048   3.730   5.237 -1.4208 -0.5668  0.8028
 8490TIP3    H246962  -0.019   3.855   5.184  0.8864  0.2820 -0.2798
 8491TIP3   OH246963   4.303   1.154  14.048 -0.2438 -0.2167  0.1506
 8491TIP3    H146964   4.208   1.166  14.047 -0.1524  0.5612  0.2948
 8491TIP3    H246965   4.323   1.110  13.966 -0.8157 -1.0916  0.4710
 8492TIP3   OH246966   0.961   4.944   0.919  0.0445  0.1775  0.2059
 8492TIP3    H146967   0.949   4.934   0.825 -0.5246 -0.0078  0.2916
 8492TIP3    H246968   1.052   4.920   0.935  0.9673  2.7462 -0.6619
 8493TIP3   OH246969   4.869   2.653   4.985 -0.2567  0.0308 -0.0265
 8493TIP3    H146970   4.938   2.661   5.051 -0.7907 -1.4046  0.7367
 8493TIP3    H246971   4.845   2.743   4.965  2.5805  0.6729 -1.1354
 8494TIP3   OH246972   4.959   5.434  16.945 -0.1099 -0.3688 -0.0744
 8494TIP3    H146973   4.879   5.449  16.895 -0.5423 -1.7767  0.1219
 8494TIP3    H246974   4.983   5.520  16.979 -1.6643  0.0663  0.0361
 8495TIP3   OH246975   1.773   0.990   2.690  0.1634 -0.2875 -0.7143
 8495TIP3    H146976   1.758   0.921   2.626  0.1257 -1.9598  0.9854
 8495TIP3    H246977   1.845   0.956   2.744 -0.8465  0.2944  1.0812
 8496TIP3   OH246978   6.323   0.206  11.286 -0.0752  0.1758  0.8580
 8496TIP3    H146979   6.331   0.160  11.369  1.1310 -0.7241  0.2802
 8496TIP3    H246980   6.412   0.206  11.251 -0.0188  2.8818  0.7739
 8497TIP3   OH246981   5.441   0.407  14.199  0.4517 -0.1614 -0.2646
 8497TIP3    H146982   5.438   0.332  14.258 -1.4608  0.1366  0.1027
 8497TIP3    H246983   5.350   0.416  14.168  0.4724  2.3523  0.1864
 8498TIP3   OH246984   1.470   2.532  11.734 -0.0991  0.4139 -0.2067
 8498TIP3    H146985   1.559   2.560  11.759  0.2945 -0.1751 -0.9333
 8498TIP3    H246986   1.466   2.440  11.759  0.2251 -0.1351 -2.0487
 8499TIP3   OH246987   4.524   1.590  14.700  0.0090 -0.1525 -0.0350
 8499TIP3    H146988   4.555   1.504  14.728  0.4066  0.7159  2.4523
 8499TIP3    H246989   4.545   1.594  14.607  1.9380 -1.9327  0.2433
 8500TIP3   OH246990   0.312   1.128  14.512  0.4359  0.4408 -0.0297
 8500TIP3    H146991   0.402   1.094  14.513 -0.0049 -1.0513 -2.3476
 8500TIP3    H246992   0.310   1.186  14.436 -1.0343 -1.1999 -1.3313
 8501TIP3   OH246993   6.212   0.200   5.447  0.2078  0.9594 -0.1279
 8501TIP3    H146994   6.235   0.247   5.527 -2.4765  0.0565  1.3309
 8501TIP3    H246995   6.259   0.245   5.377  3.0173  1.5072  1.9675
 8502TIP3   OH246996   5.496   6.609  10.478 -0.0903 -0.1766  0.1872
 8502TIP3    H146997   5.483   6.534  10.536  1.2399 -1.9156 -1.5956
 8502TIP3    H246998   5.591   6.612  10.463 -0.2546  1.0148 -0.8411
 8503TIP3   OH246999   5.935   3.193  11.673 -0.1614 -0.3595 -0.4731
 8503TIP3    H147000   5.938   3.098  11.664 -0.4120 -0.3815 -0.3361
 8503TIP3    H247001   5.939   3.209  11.767 -1.4486 -0.2940 -0.4099
 8504TIP3   OH247002   2.398   0.179   4.646 -0.4293  0.0816 -0.5353
 8504TIP3    H147003   2.441   0.264   4.642 -0.1058 -0.1107 -1.4620
 8504TIP3    H247004   2.307   0.197   4.626 -0.8006  0.4775  1.3381
 8505TIP3   OH247005   5.697   2.612   2.446  0.6891  0.2254 -0.3713
 8505TIP3    H147006   5.783   2.625   2.406  1.8925  1.7828  2.4183
 8505TIP3    H247007   5.697   2.521   2.474  0.5395 -0.3693 -2.1852
 8506TIP3   OH247008   1.914   2.025  14.250 -0.0493 -0.3905 -0.3925
 8506TIP3    H147009   1.898   1.964  14.322 -1.6479 -0.2618 -0.5984
 8506TIP3    H247010   2.004   2.053  14.262  0.4743 -2.1863  0.1638
 8507TIP3   OH247011   4.882   5.975   3.715 -0.2032 -0.0397  0.1287
 8507TIP3    H147012   4.921   5.956   3.800  0.4638 -0.1990 -0.2092
 8507TIP3    H247013   4.855   5.890   3.681 -0.9701  0.0834  0.4166
 8508TIP3   OH247014   4.866   2.890  16.944 -0.2466 -0.2414 -0.2255
 8508TIP3    H147015   4.941   2.921  16.994 -1.2238  1.0839  0.4803
 8508TIP3    H247016   4.866   2.944  16.865 -1.1815  0.7137  0.3904
 8509TIP3   OH247017   6.572   1.074   4.470  0.0879 -0.1936  0.0502
 8509TIP3    H147018   6.533   0.997   4.428  0.3822 -0.3275  0.0248
 8509TIP3    H247019   6.664   1.052   4.481  0.7923  1.1365 -2.3685
 8510TIP3   OH247020   4.025   3.930  16.938  0.6016  0.4957  0.1707
 8510TIP3    H147021   3.946   3.887  16.905  1.4132  0.6302 -2.1589
 8510TIP3    H247022   4.097   3.872  16.910  1.4009  0.8949  1.3402
 8511TIP3   OH247023   3.221   0.655  11.142  0.1187  0.7083 -0.1765
 8511TIP3    H147024   3.175   0.572  11.130 -2.3188  1.9264  0.1403
 8511TIP3    H247025   3.227   0.692  11.054 -1.4265  1.4619  0.0034
 8512TIP3   OH247026   4.777   1.713   5.873  0.2630  0.4004  0.6272
 8512TIP3    H147027   4.687   1.730   5.900 -0.2378 -1.0108 -0.0591
 8512TIP3    H247028   4.810   1.653   5.939  1.4528  2.5424  2.0889
 8513TIP3   OH247029   5.618   2.333  16.554  0.0367 -0.3770  0.2108
 8513TIP3    H147030   5.680   2.405  16.544  0.2976 -0.8788 -2.2283
 8513TIP3    H247031   5.534   2.376  16.570  0.4079  0.4047  0.1286
 8514TIP3   OH247032   4.978   1.975  16.660  0.4146 -0.1287  0.8175
 8514TIP3    H147033   4.988   2.067  16.635  0.3944 -0.0047  1.2519
 8514TIP3    H247034   4.946   1.979  16.750 -0.2352 -0.5560  0.6123
 8515TIP3   OH247035   0.407   2.995  12.963 -0.5732  0.5871  0.7399
 8515TIP3    H147036   0.338   3.060  12.949 -0.1426  0.7983 -0.5853
 8515TIP3    H247037   0.482   3.046  12.993 -1.0985  0.2998  2.6468
 8516TIP3   OH247038   4.171   0.312   4.325 -0.0120  0.2514 -0.0164
 8516TIP3    H147039   4.187   0.329   4.417 -0.7624  0.4313  0.0895
 8516TIP3    H247040   4.154   0.398   4.287  1.2571  0.2978 -0.5307
 8517TIP3   OH247041   1.259   0.871   4.284 -0.2675  0.8722  0.5612
 8517TIP3    H147042   1.264   0.800   4.348 -1.0114  0.4105  0.1189
 8517TIP3    H247043   1.350   0.899   4.272  0.1168 -0.4187  0.2919
 8518TIP3   OH247044   3.782   4.570   4.928  0.7844  0.5311 -0.2033
 8518TIP3    H147045   3.873   4.593   4.948  1.3292 -1.1141 -0.5959
 8518TIP3    H247046   3.781   4.474   4.930 -1.1746  0.5234  0.7471
 8519TIP3   OH247047   2.467   6.703   2.002  0.3485  0.5377 -0.3823
 8519TIP3    H147048   2.542   6.739   2.050 -0.2721 -1.6566  2.5271
 8519TIP3    H247049   2.501   6.623   1.962 -0.2810 -0.3089  0.7042
 8520TIP3   OH247050   2.712   5.851   2.886  0.1845  0.5739  0.3004
 8520TIP3    H147051   2.776   5.812   2.826 -1.0824 -0.1914 -0.5967
 8520TIP3    H247052   2.645   5.784   2.896 -2.3070  2.5952 -1.6598
 8521TIP3   OH247053   4.089   4.229  14.956 -0.3606  0.2727 -0.2834
 8521TIP3    H147054   4.066   4.136  14.948 -2.3247  0.8739 -2.9770
 8521TIP3    H247055   4.176   4.228  14.995 -0.6985 -2.6292  0.7071
 8522TIP3   OH247056   3.941   2.618   2.746  0.5548 -0.2856 -0.0903
 8522TIP3    H147057   3.892   2.678   2.803  0.8193  0.1808 -0.3425
 8522TIP3    H247058   3.875   2.578   2.691  0.5904  1.8960 -1.8869
 8523TIP3   OH247059   1.743   3.255  13.296 -1.2610  0.1577 -0.3205
 8523TIP3    H147060   1.739   3.245  13.200 -0.4856  0.3651 -0.3868
 8523TIP3    H247061   1.758   3.167  13.329  0.2461  0.3036 -0.5303
 8524TIP3   OH247062   5.540   4.818   3.930  0.3057 -0.1197 -0.6231
 8524TIP3    H147063   5.572   4.729   3.944  0.4524  0.0307 -0.0001
 8524TIP3    H247064   5.556   4.863   4.013  0.1368  0.4588 -0.9005
 8525TIP3   OH247065   0.638   6.724  16.972 -0.2954  0.0675  0.1974
 8525TIP3    H147066   0.648   6.672  17.052  4.8949 -0.8257 -0.6282
 8525TIP3    H247067   0.614   6.661  16.904  0.4907 -0.2421  0.1922
 8526TIP3   OH247068   0.711   0.328  14.009  0.6598 -0.0324  0.0218
 8526TIP3    H147069   0.724   0.406  13.955 -1.0686 -0.1078 -0.5463
 8526TIP3    H247070   0.617   0.324  14.024  1.0216 -0.1655  2.8689
 8527TIP3   OH247071   3.926   0.361   2.575  0.7900  0.1834  0.0628
 8527TIP3    H147072   3.983   0.403   2.512 -0.2205  1.0922 -0.2839
 8527TIP3    H247073   3.975   0.362   2.657  1.5908  0.1776 -0.4105
 8528TIP3   OH247074   0.114   6.733   3.412 -0.6208  0.1599  0.7647
 8528TIP3    H147075   0.126   6.823   3.441  2.2545  0.3244 -0.6014
 8528TIP3    H247076   0.058   6.740   3.335  2.1000  1.2884 -1.2753
 8529TIP3   OH247077   3.198   2.686  13.951 -0.4357  0.0237 -0.1092
 8529TIP3    H147078   3.186   2.606  13.899  2.1379 -1.1973  1.0197
 8529TIP3    H247079   3.256   2.741  13.897  0.2361 -0.1901  0.3835
 8530TIP3   OH247080   0.754   2.554  13.898  0.0919  0.5337 -0.5807
 8530TIP3    H147081   0.765   2.486  13.964  0.4130  0.9558 -0.1953
 8530TIP3    H247082   0.670   2.533  13.856 -0.3482  0.5302  0.2799
 8531TIP3   OH247083   6.484   6.713  15.952  0.1048  0.0285  0.3649
 8531TIP3    H147084   6.398   6.672  15.958  0.5179 -0.9393 -0.1502
 8531TIP3    H247085   6.495   6.731  15.858  0.9298 -0.8964  0.2715
 8532TIP3   OH247086   0.382   2.624  16.666  0.0092  0.1565  0.2743
 8532TIP3    H147087   0.401   2.542  16.711  0.1980 -1.0408 -1.8339
 8532TIP3    H247088   0.468   2.663  16.649 -0.1182  1.5037  2.3849
 8533TIP3   OH247089   6.482   4.475   0.542  0.0804  0.2397 -0.3448
 8533TIP3    H147090   6.468   4.501   0.633  0.2656 -2.2336  0.4847
 8533TIP3    H247091   6.444   4.546   0.490  0.2602  1.8736  1.6355
 8534TIP3   OH247092   2.181   1.398  16.478  0.4343 -0.3092 -0.3890
 8534TIP3    H147093   2.248   1.338  16.445  2.1829 -0.0047  2.2550
 8534TIP3    H247094   2.123   1.342  16.530  0.2913 -0.1387 -0.3637
 8535TIP3   OH247095   5.173   3.658   1.683  0.1404  0.5149  0.3657
 8535TIP3    H147096   5.185   3.608   1.602  0.0562 -2.6906  2.1781
 8535TIP3    H247097   5.082   3.689   1.678  0.7511  2.2404 -1.6249
 8536TIP3   OH247098   3.039   1.941   2.309 -0.0556  0.1964  0.5594
 8536TIP3    H147099   3.079   2.026   2.326  0.0307  0.8317 -2.3237
 8536TIP3    H247100   3.110   1.888   2.273 -1.0070  0.3359 -1.6690
 8537TIP3   OH247101   4.488   1.652   2.555 -0.0046 -0.5166  0.4666
 8537TIP3    H147102   4.462   1.565   2.586  0.9112 -0.7102  0.7186
 8537TIP3    H247103   4.406   1.697   2.539 -0.4940 -1.3307  0.6171
 8538TIP3   OH247104   1.946   3.207   5.292 -0.2342 -0.0632 -0.0148
 8538TIP3    H147105   2.020   3.216   5.351  0.5359  0.5315 -1.0402
 8538TIP3    H247106   1.907   3.294   5.289  1.5632  0.7874 -2.6657
 8539TIP3   OH247107   4.000   6.386  14.565 -0.3198 -0.1415 -0.0327
 8539TIP3    H147108   4.001   6.405  14.471  0.5708  2.8846  0.4711
 8539TIP3    H247109   3.912   6.411  14.594 -0.4314 -0.5895  0.0107
 8540TIP3   OH247110   4.490   0.686   4.496 -0.3343  0.0219  0.1741
 8540TIP3    H147111   4.537   0.719   4.420  0.0977  1.8246  1.1552
 8540TIP3    H247112   4.442   0.762   4.530  1.2322 -0.0555  2.9280
 8541TIP3   OH247113   5.423   0.037  10.631 -0.2871  0.0930  0.3419
 8541TIP3    H147114   5.347   0.002  10.586  0.5672 -1.6912  0.2014
 8541TIP3    H247115   5.493  -0.025  10.613  0.9698  1.1668  1.2678
 8542TIP3   OH247116   6.747   0.235   0.374 -0.5848  0.3053 -0.9622
 8542TIP3    H147117   6.794   0.159   0.408 -0.6976  1.0822  1.1211
 8542TIP3    H247118   6.687   0.200   0.309 -0.3152 -1.3115 -0.3782
 8543TIP3   OH247119   1.220   6.707  13.813  0.1821 -0.1703  0.5756
 8543TIP3    H147120   1.206   6.636  13.751 -0.7776  0.5984 -0.1028
 8543TIP3    H247121   1.315   6.715  13.819  0.3315  0.7071 -1.9371
 8544TIP3   OH247122   1.820   0.760  12.795 -0.4449 -0.6242  0.3724
 8544TIP3    H147123   1.784   0.751  12.708  1.2753  1.0216 -0.5987
 8544TIP3    H247124   1.822   0.671  12.830  0.1568 -1.5432 -1.8384
 8545TIP3   OH247125   0.979   2.135   0.076 -1.1058  0.1183 -0.5896
 8545TIP3    H147126   0.911   2.200   0.057 -0.0637  1.0549 -1.2139
 8545TIP3    H247127   0.933   2.051   0.069 -2.8737  0.7586  1.8645
 8546TIP3   OH247128   6.520   5.977   2.710  0.0437 -0.6506 -0.5343
 8546TIP3    H147129   6.587   6.003   2.646  0.5844  0.5075  0.4591
 8546TIP3    H247130   6.439   6.016   2.677  0.7830  2.2251  0.7573
 8547TIP3   OH247131   5.700   6.489  12.121  0.1765  0.1484 -0.3416
 8547TIP3    H147132   5.638   6.418  12.103  0.7145 -0.2290 -0.7283
 8547TIP3    H247133   5.655   6.568  12.092  0.5562 -0.3058 -2.3373
 8548TIP3   OH247134   0.372   4.090   4.477  0.5524 -0.5701 -0.2703
 8548TIP3    H147135   0.419   4.039   4.411 -0.8012 -0.5636 -1.2831
 8548TIP3    H247136   0.324   4.025   4.529  0.4611 -0.4775 -0.2369
 8549TIP3   OH247137   6.430   5.815   4.729 -0.0365  0.2399  0.1433
 8549TIP3    H147138   6.508   5.775   4.691  0.2675 -1.1719  2.1098
 8549TIP3    H247139   6.444   5.909   4.719  0.8839 -0.0450 -1.4703
 8550TIP3   OH247140   6.356   1.201   3.526 -0.1740 -0.2680 -0.0128
 8550TIP3    H147141   6.370   1.108   3.506 -1.8282 -0.4865 -0.3311
 8550TIP3    H247142   6.379   1.209   3.618  3.1475 -0.2405 -0.7261
 8551TIP3   OH247143   1.078   5.326   5.595 -0.4272  0.1239 -0.3167
 8551TIP3    H147144   0.994   5.303   5.556 -1.4124  1.6043  0.8099
 8551TIP3    H247145   1.055   5.379   5.671  1.5784  1.5902 -0.6631
 8552TIP3   OH247146   0.164   0.872  14.532  0.1686 -0.1398 -0.4238
 8552TIP3    H147147   0.087   0.905  14.486  0.9204  0.3320 -1.3891
 8552TIP3    H247148   0.231   0.940  14.518  0.7762 -0.5659  0.3394
 8553TIP3   OH247149   4.609   5.405   3.659  0.2125  0.2330  0.5796
 8553TIP3    H147150   4.518   5.378   3.670  0.3877 -0.6613 -0.0846
 8553TIP3    H247151   4.629   5.456   3.738 -0.9495  0.7023  0.5939
 8554TIP3   OH247152   3.219   0.937  15.531 -0.1322 -0.0912 -0.4133
 8554TIP3    H147153   3.165   0.873  15.485 -0.1058  0.5932 -1.4361
 8554TIP3    H247154   3.309   0.906  15.519  0.1141  1.3702 -3.0480
 8555TIP3   OH247155   2.394   4.034   4.290 -0.0618 -0.3517 -0.3127
 8555TIP3    H147156   2.481   4.024   4.327 -1.0329 -1.2271  1.9329
 8555TIP3    H247157   2.400   4.111   4.234  2.2048 -0.5797 -0.4689
 8556TIP3   OH247158   5.948   3.182   3.491  0.2806  0.3126 -0.1675
 8556TIP3    H147159   5.988   3.142   3.414  0.2238  0.0884 -0.0831
 8556TIP3    H247160   5.966   3.275   3.483  1.3466  0.1533  0.1791
 8557TIP3   OH247161   1.636   5.245  14.680 -0.6324 -0.4329  0.0228
 8557TIP3    H147162   1.719   5.291  14.688 -0.6497 -0.5087  0.6974
 8557TIP3    H247163   1.650   5.162  14.726 -0.7627 -0.8895 -0.7425
 8558TIP3   OH247164   0.537   6.105  12.112 -0.3392  0.3388 -0.1512
 8558TIP3    H147165   0.475   6.066  12.050 -0.2796 -1.1654  0.6828
 8558TIP3    H247166   0.612   6.129  12.059 -0.9533  0.5942 -0.9164
 8559TIP3   OH247167   3.792   6.209  14.253 -0.1636 -0.0778 -0.5431
 8559TIP3    H147168   3.793   6.287  14.309  1.8277 -0.9164  0.7428
 8559TIP3    H247169   3.849   6.232  14.179 -1.3562  0.4164 -1.3266
 8560TIP3   OH247170   4.121   0.479   3.624  0.3246  0.2181 -0.1458
 8560TIP3    H147171   4.164   0.564   3.636 -1.3740  0.8370  2.5661
 8560TIP3    H247172   4.173   0.419   3.678  0.3411 -0.0344 -0.4408
 8561TIP3   OH247173   5.177   5.519  16.017 -0.4844  0.2438  0.6624
 8561TIP3    H147174   5.137   5.432  16.029  0.0825 -0.1701 -0.3135
 8561TIP3    H247175   5.254   5.517  16.074  0.0077 -0.2366  0.0062
 8562TIP3   OH247176   2.185   1.859  12.016 -0.1250 -0.0882  0.1506
 8562TIP3    H147177   2.181   1.934  11.957 -1.1414  0.7840  1.2531
 8562TIP3    H247178   2.126   1.795  11.978 -1.3441  0.7554  0.5732
 8563TIP3   OH247179   5.284   3.907   2.592  0.0485 -0.6934 -0.2690
 8563TIP3    H147180   5.228   3.894   2.516  0.0098 -0.3305 -0.3053
 8563TIP3    H247181   5.363   3.950   2.557 -0.7276  1.1621  0.1423
 8564TIP3   OH247182   5.229   6.801   0.931  0.4828  0.2688 -0.7122
 8564TIP3    H147183   5.291   6.834   0.995  0.5200 -1.0488 -0.0409
 8564TIP3    H247184   5.251   6.709   0.921 -0.1145  0.2334 -1.9440
 8565TIP3   OH247185   5.787   4.857   0.442  0.2638  0.4417 -0.3775
 8565TIP3    H147186   5.750   4.769   0.443  0.3599  0.3955  1.4335
 8565TIP3    H247187   5.742   4.901   0.369 -2.2940 -0.0790  0.7945
 8566TIP3   OH247188   0.766   3.622  12.766  0.0199  0.0825  0.4056
 8566TIP3    H147189   0.834   3.621  12.834 -0.3835 -0.8057  0.8140
 8566TIP3    H247190   0.804   3.571  12.694  0.5375  1.2102 -0.1574
 8567TIP3   OH247191   3.345   5.612   2.015  0.4355  0.2207 -0.3143
 8567TIP3    H147192   3.347   5.535   2.073  1.1389  0.6307  0.2218
 8567TIP3    H247193   3.326   5.685   2.073  1.2566  0.6514 -0.5733
 8568TIP3   OH247194   4.398   5.066   3.547  0.0880 -0.6984 -0.1804
 8568TIP3    H147195   4.387   4.972   3.538  2.5955 -0.9713 -1.1624
 8568TIP3    H247196   4.401   5.099   3.457  0.6134  0.1172  0.1212
 8569TIP3   OH247197   1.760   4.130   3.289  0.1780  0.3795  0.0716
 8569TIP3    H147198   1.816   4.072   3.236 -1.4905 -1.9147  0.6431
 8569TIP3    H247199   1.806   4.138   3.372  1.5620  1.9024 -0.7674
 8570TIP3   OH247200   4.088   6.733   5.587 -0.0889 -0.0201  0.0590
 8570TIP3    H147201   4.058   6.751   5.676  1.2236  2.7695  0.0232
 8570TIP3    H247202   4.086   6.637   5.581  0.0400 -0.3335  3.1644
 8571TIP3   OH247203   2.350   4.807   4.982  0.2723  0.2847  0.7335
 8571TIP3    H147204   2.401   4.874   4.937  1.3982 -0.8785  0.2172
 8571TIP3    H247205   2.414   4.741   5.008 -0.9646 -1.2544  0.0315
 8572TIP3   OH247206   6.188   3.196   5.254  0.2488  0.9657 -0.1184
 8572TIP3    H147207   6.204   3.218   5.163  0.8001  1.1650  0.0220
 8572TIP3    H247208   6.231   3.111   5.266  0.5214  1.1247  0.0530
 8573TIP3   OH247209   4.898   3.780  15.492 -0.2381  0.2984  0.0392
 8573TIP3    H147210   4.971   3.841  15.497  0.8470 -0.8342 -1.1827
 8573TIP3    H247211   4.866   3.774  15.582  0.3216  1.8019  0.3716
 8574TIP3   OH247212   4.227   2.873  13.725  0.2243  0.3780 -0.0250
 8574TIP3    H147213   4.204   2.898  13.636 -0.9105  3.1174  0.9182
 8574TIP3    H247214   4.308   2.921  13.744  0.7238 -0.5575  0.2879
 8575TIP3   OH247215   3.034   1.182   2.355 -0.6581  0.4535  0.4098
 8575TIP3    H147216   2.961   1.126   2.381 -0.3542 -0.1778 -0.0623
 8575TIP3    H247217   3.096   1.175   2.428  0.4648 -1.7972 -0.6520
 8576TIP3   OH247218   4.999   3.040  16.136  0.3891  0.0068  0.4379
 8576TIP3    H147219   4.999   2.956  16.181  1.9086 -0.0722  0.3346
 8576TIP3    H247220   5.004   3.018  16.043 -2.5177  0.1734  0.1336
 8577TIP3   OH247221   1.154   4.688   0.728  0.1400  0.1029 -0.1126
 8577TIP3    H147222   1.208   4.694   0.806 -0.6515  1.3088  0.3789
 8577TIP3    H247223   1.193   4.750   0.666 -1.4915  2.2183  0.8178
 8578TIP3   OH247224   4.358   6.442  13.461  0.2805  0.3997  0.5713
 8578TIP3    H147225   4.436   6.476  13.504  1.5055  0.2034 -1.3525
 8578TIP3    H247226   4.392   6.392  13.386 -1.6587 -0.7063  0.3705
 8579TIP3   OH247227   2.799   0.668   3.338 -0.1788 -0.2133  0.8558
 8579TIP3    H147228   2.839   0.749   3.369  2.9392 -1.5343  0.7328
 8579TIP3    H247229   2.770   0.623   3.418  3.2920 -1.3795  1.6527
 8580TIP3   OH247230   5.189   2.414   0.987 -0.4798 -1.0384 -0.5108
 8580TIP3    H147231   5.239   2.491   0.958  1.9510 -1.8168  1.2758
 8580TIP3    H247232   5.185   2.358   0.909 -0.6576  0.0796 -1.3367
 8581TIP3   OH247233   4.765   3.292  15.198  0.2340 -0.2065 -0.0685
 8581TIP3    H147234   4.773   3.280  15.293  1.2489  1.0553  0.0424
 8581TIP3    H247235   4.699   3.360  15.189  1.2164  0.7750 -0.1514
 8582TIP3   OH247236   2.122   0.600   1.411 -0.1547  0.1588  0.0870
 8582TIP3    H147237   2.046   0.550   1.443 -1.3177  0.9146 -1.3256
 8582TIP3    H247238   2.083   0.677   1.369  1.4735  1.0365  0.1283
 8583TIP3   OH247239   6.375   0.773   5.253 -0.7691 -0.9544  0.6593
 8583TIP3    H147240   6.402   0.685   5.281  0.9109 -1.1765 -1.4199
 8583TIP3    H247241   6.286   0.760   5.219 -1.3307 -1.4031  2.1819
 8584TIP3   OH247242   0.815   2.936  13.412 -0.0529  0.1319  0.3512
 8584TIP3    H147243   0.859   2.973  13.335 -0.7760 -1.8193 -1.0719
 8584TIP3    H247244   0.723   2.960  13.401 -0.6827 -2.5455 -1.0068
 8585TIP3   OH247245   0.569   5.785   2.735  0.0113  0.5043  0.2770
 8585TIP3    H147246   0.584   5.690   2.732 -0.9397  0.2765 -4.0165
 8585TIP3    H247247   0.476   5.795   2.754 -0.2201  0.4666 -0.7976
 8586TIP3   OH247248   5.818   2.867   3.895  0.5818  0.3059 -0.0289
 8586TIP3    H147249   5.740   2.916   3.919 -0.2304 -1.5680  1.4793
 8586TIP3    H247250   5.883   2.891   3.961  0.0384 -0.8793  0.9907
 8587TIP3   OH247251   1.910   4.047   5.069 -0.2223  0.2193  0.1467
 8587TIP3    H147252   1.826   4.073   5.032 -1.4496 -1.0662  1.9065
 8587TIP3    H247253   1.958   4.010   4.995 -1.2701  0.7622 -0.8345
 8588TIP3   OH247254   6.144   2.511  11.724 -0.0098 -0.2544 -0.3520
 8588TIP3    H147255   6.176   2.597  11.749 -0.1349 -0.6168  1.1147
 8588TIP3    H247256   6.156   2.508  11.629 -0.0072  1.3681 -0.4302
 8589TIP3   OH247257   5.243   0.930  15.278  0.3686  0.4652 -0.2046
 8589TIP3    H147258   5.273   0.856  15.331 -1.8628 -0.7316 -0.5359
 8589TIP3    H247259   5.164   0.961  15.323 -0.3905  0.7340 -1.6865
 8590TIP3   OH247260   2.956   6.134   0.607  0.0439 -0.9301 -0.5474
 8590TIP3    H147261   2.881   6.082   0.636 -0.6526  0.8445  1.0671
 8590TIP3    H247262   3.028   6.071   0.602 -1.1739 -2.3822 -0.5494
 8591TIP3   OH247263   0.977   2.976  12.513  0.0229 -0.1452  0.3449
 8591TIP3    H147264   1.009   3.036  12.580 -1.0215 -1.1467  1.8109
 8591TIP3    H247265   1.011   3.011  12.430 -0.5553  2.4430  1.1295
 8592TIP3   OH247266   3.922   5.755   1.500 -0.0419 -0.9792  0.3260
 8592TIP3    H147267   3.985   5.791   1.563 -0.0153  1.5132 -0.9980
 8592TIP3    H247268   3.844   5.737   1.553 -0.6156  2.6351  1.0000
 8593TIP3   OH247269   0.327   3.680   4.610 -0.2519 -0.3295 -0.0531
 8593TIP3    H147270   0.239   3.716   4.598  0.3021  0.7131 -1.2224
 8593TIP3    H247271   0.317   3.586   4.597 -0.9180 -0.0308 -1.9781
 8594TIP3   OH247272   1.970   1.361   1.562  1.0573 -0.1153  0.2239
 8594TIP3    H147273   1.882   1.323   1.564  0.1583  1.7525 -0.7149
 8594TIP3    H247274   1.994   1.371   1.654 -0.4096  0.7493  0.5597
 8595TIP3   OH247275   1.860   6.135   1.217  0.8135 -0.2920 -0.7748
 8595TIP3    H147276   1.765   6.127   1.229  0.9646 -0.3641  0.4260
 8595TIP3    H247277   1.869   6.203   1.150 -0.0981 -0.8631 -1.5078
 8596TIP3   OH247278   2.524   5.060  11.446 -0.2124 -0.3110 -0.0572
 8596TIP3    H147279   2.471   5.071  11.367  1.2048 -0.6829 -1.1079
 8596TIP3    H247280   2.570   5.144  11.455  0.0891 -0.4798 -0.0024
 8597TIP3   OH247281   2.504   6.518  12.469 -0.6928 -0.3790  0.3776
 8597TIP3    H147282   2.509   6.507  12.374 -0.2132 -0.6240  0.4300
 8597TIP3    H247283   2.496   6.613  12.482 -0.0260 -0.2839  0.1198
 8598TIP3   OH247284   6.101   1.471  16.448 -0.1720  0.0270 -0.5039
 8598TIP3    H147285   6.102   1.557  16.408 -1.8670  0.4425  0.2739
 8598TIP3    H247286   6.014   1.437  16.430  0.8052 -2.0446 -1.7847
 8599TIP3   OH247287   4.832   5.571   2.626 -0.4063  0.3609 -0.3960
 8599TIP3    H147288   4.885   5.500   2.663 -0.2067 -0.5882 -2.3434
 8599TIP3    H247289   4.742   5.547   2.646 -0.3934 -0.9156 -1.7004
 8600TIP3   OH247290   2.034   2.599   5.461  0.7928  0.6251  0.3780
 8600TIP3    H147291   2.089   2.602   5.382  0.5193 -1.2686  0.0559
 8600TIP3    H247292   2.039   2.687   5.497  2.7223  0.9553 -0.5364
 8601TIP3   OH247293   3.812   5.119  13.525 -0.4661 -0.3596  0.6390
 8601TIP3    H147294   3.855   5.049  13.575  2.4128  1.1400  0.4615
 8601TIP3    H247295   3.755   5.162  13.589 -0.4583 -1.3825  1.3656
 8602TIP3   OH247296   0.216   5.004   0.809  0.1655 -0.3514 -0.4535
 8602TIP3    H147297   0.130   4.969   0.831 -0.6287  0.7926 -1.6018
 8602TIP3    H247298   0.222   4.995   0.713  0.7679  0.7930 -0.5397
 8603TIP3   OH247299   1.481   6.668  12.285 -0.4340  0.1992  0.5737
 8603TIP3    H147300   1.511   6.578  12.276 -0.9440 -0.1128  1.8280
 8603TIP3    H247301   1.438   6.687  12.201 -0.2852 -0.7091  0.2814
 8604TIP3   OH247302   2.673   6.620   4.591 -0.1463 -0.2631  0.4499
 8604TIP3    H147303   2.681   6.616   4.686  0.3906 -0.4509  0.4045
 8604TIP3    H247304   2.739   6.684   4.563 -1.6205  1.2652  0.3401
 8605TIP3   OH247305   5.118   6.022   5.270  0.0285 -0.3791 -0.5818
 8605TIP3    H147306   5.186   6.030   5.203 -0.6129  3.1469 -1.0084
 8605TIP3    H247307   5.046   6.076   5.238 -2.1810 -2.3261  0.8366
 8606TIP3   OH247308   3.165   5.974  13.804  0.3056 -0.1196 -0.0950
 8606TIP3    H147309   3.194   5.907  13.866  2.4138  0.8712  0.0866
 8606TIP3    H247310   3.239   5.985  13.744 -0.2553  1.5263 -0.5586
 8607TIP3   OH247311   6.563   2.647   3.566  0.4997 -0.2435  0.3245
 8607TIP3    H147312   6.537   2.578   3.505  0.1944  0.5532 -0.4800
 8607TIP3    H247313   6.481   2.691   3.589  0.8548  0.9847 -0.6125
 8608TIP3   OH247314   3.423   1.701  10.937  0.1765 -0.1952 -0.0559
 8608TIP3    H147315   3.505   1.692  10.985 -0.2722 -2.2691  0.3898
 8608TIP3    H247316   3.412   1.796  10.927  2.2300  0.1562  0.5160
 8609TIP3   OH247317   1.830   6.483  15.055 -0.3665  0.3241  0.1955
 8609TIP3    H147318   1.743   6.447  15.038 -0.9180  1.7048 -0.0958
 8609TIP3    H247319   1.866   6.428  15.125 -1.1439 -0.7555 -0.2222
 8610TIP3   OH247320   6.299   1.264   4.387  0.0983 -0.8190  0.6846
 8610TIP3    H147321   6.208   1.256   4.415  0.6482 -0.5876  2.6980
 8610TIP3    H247322   6.350   1.251   4.467  1.7790  0.9444 -0.0161
 8611TIP3   OH247323   3.034   3.719  14.352  0.2474  0.1359  0.4433
 8611TIP3    H147324   3.078   3.732  14.268  0.7009 -1.3779  0.4148
 8611TIP3    H247325   3.024   3.807  14.388  1.5680  0.6703 -0.4196
 8612TIP3   OH247326   1.682   5.975  13.718  0.1454 -0.4510  0.0954
 8612TIP3    H147327   1.641   5.889  13.708 -1.2121  0.2221 -0.2680
 8612TIP3    H247328   1.610   6.034  13.737  0.8797  0.8597 -1.0569
 8613TIP3   OH247329   6.329   4.368   5.118  0.3378 -0.4725  0.0049
 8613TIP3    H147330   6.279   4.289   5.097 -0.3077  0.5498 -2.7993
 8613TIP3    H247331   6.268   4.440   5.099  2.0233  0.7384 -1.0765
 8614TIP3   OH247332   3.824   3.710   2.814  0.2169 -0.4875 -0.1982
 8614TIP3    H147333   3.810   3.678   2.724 -0.6822  1.3427 -0.7721
 8614TIP3    H247334   3.776   3.648   2.869 -1.6132 -0.0985 -1.2643
 8615TIP3   OH247335   5.296   2.954  16.921 -0.4619  0.5193 -0.7731
 8615TIP3    H147336   5.379   3.002  16.919 -0.8255  1.1367 -1.2591
 8615TIP3    H247337   5.298   2.901  16.841 -0.4731  0.4235 -0.7094
 8616TIP3   OH247338   1.004   4.915  13.081  0.0101  0.1816  1.3361
 8616TIP3    H147339   1.088   4.914  13.128 -0.0562  1.4086  1.4966
 8616TIP3    H247340   1.015   4.849  13.012  1.2604  0.5988  1.1125
 8617TIP3   OH247341   3.135   1.869  13.768  0.2164  0.1225  0.2704
 8617TIP3    H147342   3.195   1.942  13.757  0.9780 -0.4775  0.3437
 8617TIP3    H247343   3.168   1.801  13.708 -0.6752 -0.0450 -0.0518
 8618TIP3   OH247344   0.217   3.469  13.262  0.3304  0.4867  0.1452
 8618TIP3    H147345   0.224   3.536  13.330 -1.1192  0.1819  0.6488
 8618TIP3    H247346   0.230   3.386  13.309 -0.0438  0.3108 -0.0556
 8619TIP3   OH247347   6.178   1.323  12.937 -0.1207 -0.2067 -0.0404
 8619TIP3    H147348   6.117   1.263  12.980  0.4065 -1.7291 -1.3183
 8619TIP3    H247349   6.170   1.304  12.844  0.8152  1.0172 -0.4041
 8620TIP3   OH247350   5.431   6.709   2.103 -0.2141 -0.4534  0.0131
 8620TIP3    H147351   5.365   6.642   2.120 -1.3778  0.0868 -1.9923
 8620TIP3    H247352   5.476   6.679   2.023 -1.2134  1.3968 -1.3342
 8621TIP3   OH247353   6.442   2.255  12.267 -0.4038  0.8637  0.1816
 8621TIP3    H147354   6.461   2.231  12.176  0.6787  2.4968 -0.0536
 8621TIP3    H247355   6.347   2.248  12.274 -0.4965  0.6522 -1.0495
 8622TIP3   OH247356   3.336   2.814  15.457 -0.1320 -0.1437 -0.0983
 8622TIP3    H147357   3.323   2.763  15.377 -2.0655  0.3062 -0.1180
 8622TIP3    H247358   3.250   2.818  15.497  0.8227 -0.5104  2.1516
 8623TIP3   OH247359   0.410   2.974   1.788  0.0530 -0.3212 -0.0851
 8623TIP3    H147360   0.422   2.880   1.782 -0.3747 -0.3790 -0.0399
 8623TIP3    H247361   0.474   3.011   1.727  0.0575 -0.6497 -0.2785
 8624TIP3   OH247362   0.300   2.957   5.272 -0.1898  0.3114  0.0454
 8624TIP3    H147363   0.254   2.908   5.340  3.5101 -3.3518  0.3150
 8624TIP3    H247364   0.364   3.010   5.320  0.5839 -0.1711 -0.4219
 8625TIP3   OH247365   2.271   4.957   0.055  0.3601  0.2062 -0.0487
 8625TIP3    H147366   2.241   5.039   0.092 -1.7305 -0.3019 -0.5169
 8625TIP3    H247367   2.340   4.927   0.115 -0.8419  0.8712  1.7371
 8626TIP3   OH247368   2.984   3.112   0.470  0.1870 -0.2395  0.1629
 8626TIP3    H147369   3.040   3.035   0.474 -0.1494 -0.4767  0.3246
 8626TIP3    H247370   2.903   3.086   0.513  0.6976  0.7540  1.8437
 8627TIP3   OH247371   5.267   1.980   1.861 -0.6566 -0.1851  0.3400
 8627TIP3    H147372   5.194   2.033   1.893 -0.2792  1.3677 -1.1967
 8627TIP3    H247373   5.343   2.013   1.910  0.1226  2.9559 -2.5483
 8628TIP3   OH247374   5.685   3.393  16.860  0.4978 -0.4174  0.4245
 8628TIP3    H147375   5.682   3.407  16.765  1.2115 -0.1518  0.4379
 8628TIP3    H247376   5.681   3.481  16.897  0.3625 -0.5143  0.6418
 8629TIP3   OH247377   3.337   1.467  14.871 -0.2675  0.2428  0.2900
 8629TIP3    H147378   3.255   1.428  14.902  0.2289 -0.7155  0.4335
 8629TIP3    H247379   3.343   1.439  14.780 -1.2101  2.2037 -0.4300
 8630TIP3   OH247380   6.502   0.158  14.306  0.5278  0.8735 -0.5136
 8630TIP3    H147381   6.474   0.222  14.372  0.1890  1.1344 -0.8956
 8630TIP3    H247382   6.489   0.073  14.347 -1.0650  0.9734 -0.7294
 8631TIP3   OH247383   5.376   1.450   0.960 -0.7055 -0.1065  0.2528
 8631TIP3    H147384   5.308   1.425   0.897 -0.8416  0.2034  0.2774
 8631TIP3    H247385   5.436   1.505   0.909 -0.6437 -0.1140  0.3170
 8632TIP3   OH247386   5.350   3.192  11.665  0.2141  0.1464  0.0746
 8632TIP3    H147387   5.264   3.152  11.670  0.3494 -0.0572  1.0127
 8632TIP3    H247388   5.404   3.141  11.725  0.7988  0.7360  0.0653
 8633TIP3   OH247389   5.454   4.575   2.865  0.4669  0.6571 -0.0658
 8633TIP3    H147390   5.379   4.632   2.884  1.5575  2.2087 -0.2154
 8633TIP3    H247391   5.415   4.498   2.824 -1.0564  1.3570 -0.0256
 8634TIP3   OH247392   0.569   4.236   5.697  0.0817  0.3359  0.4991
 8634TIP3    H147393   0.632   4.294   5.738  1.7701  0.0350 -1.4953
 8634TIP3    H247394   0.591   4.148   5.730 -0.3535  0.4112  1.0096
 8635TIP3   OH247395   0.553   5.549  11.129  0.0753  0.3561  0.6538
 8635TIP3    H147396   0.615   5.540  11.057  0.8017  1.5931  1.0996
 8635TIP3    H247397   0.467   5.551  11.086  0.5693  2.7722 -0.3850
 8636TIP3   OH247398   4.056   2.543  16.334  0.5203  0.2402 -0.0931
 8636TIP3    H147399   3.996   2.607  16.295  1.8534  0.3876 -2.0863
 8636TIP3    H247400   4.035   2.461  16.289 -0.4443 -0.5202  1.6612
 8637TIP3   OH247401   6.599   4.742   5.149 -0.3863 -0.0246 -0.4472
 8637TIP3    H147402   6.572   4.699   5.230 -0.4626 -0.4104 -0.6719
 8637TIP3    H247403   6.673   4.690   5.118 -0.4690  0.0139 -0.7134
 8638TIP3   OH247404   6.157   0.263  15.882 -0.2403 -0.2502  0.0219
 8638TIP3    H147405   6.153   0.328  15.812 -2.6491  0.6937  0.9268
 8638TIP3    H247406   6.093   0.196  15.856  1.8348 -2.0894 -0.6442
 8639TIP3   OH247407   1.019   0.556   0.182  0.2154  0.4269  0.0828
 8639TIP3    H147408   0.997   0.471   0.220 -0.8302  0.7443  0.2019
 8639TIP3    H247409   0.972   0.559   0.099 -0.9362  1.4558  0.7305
 8640TIP3   OH247410   0.785   4.747   2.260  0.0620  0.3956 -0.5599
 8640TIP3    H147411   0.789   4.801   2.181 -2.7286  0.3132 -0.8532
 8640TIP3    H247412   0.800   4.658   2.229  1.1907  0.5898 -0.6139
 8641TIP3   OH247413   1.134   3.900  11.173 -0.4274  0.6864  0.1419
 8641TIP3    H147414   1.077   3.846  11.227 -0.2598 -0.4579 -0.7832
 8641TIP3    H247415   1.194   3.941  11.236 -0.5166 -0.2571  0.8662
 8642TIP3   OH247416   3.472   0.749  12.879  0.4676 -0.4104  0.3163
 8642TIP3    H147417   3.566   0.745  12.899  0.4175  1.0940  0.9967
 8642TIP3    H247418   3.433   0.790  12.956 -0.9218 -1.9441  0.4834
 8643TIP3   OH247419   0.850   4.574   0.307 -0.1025  0.5042 -0.3576
 8643TIP3    H147420   0.811   4.514   0.370  1.5492 -0.0407  0.2190
 8643TIP3    H247421   0.932   4.602   0.349  1.6121 -0.7050 -2.6745
 8644TIP3   OH247422   5.415   2.013  13.748  0.4581  0.7144 -0.1567
 8644TIP3    H147423   5.496   1.983  13.707  1.3956  1.1053  1.3380
 8644TIP3    H247424   5.348   1.953  13.714  1.4398  0.0751 -1.0444
 8645TIP3   OH247425   1.085   4.104  14.626  0.3357  0.4902  0.1686
 8645TIP3    H147426   1.047   4.064  14.548  1.1579 -0.4555  0.2423
 8645TIP3    H247427   1.028   4.179  14.644 -1.2059 -0.5773 -0.0265
 8646TIP3   OH247428   1.883   2.251   1.074 -0.6446  0.0243 -0.6116
 8646TIP3    H147429   1.799   2.295   1.060 -0.7418  0.2568  0.6400
 8646TIP3    H247430   1.946   2.322   1.087 -0.5762 -0.1704  0.1705
 8647TIP3   OH247431   1.769   2.068  11.419 -0.6353 -0.1363  0.2526
 8647TIP3    H147432   1.704   2.079  11.488  0.2830  3.0382  0.7810
 8647TIP3    H247433   1.720   2.073  11.338 -1.2724  0.6507  0.6667
 8648TIP3   OH247434   4.207   5.676  14.718  0.6701 -0.0867 -0.5834
 8648TIP3    H147435   4.226   5.699  14.627  1.3507  0.6186 -0.2811
 8648TIP3    H247436   4.271   5.726  14.769  1.5089 -1.8523  0.1873
 8649TIP3   OH247437   3.603   1.098  10.627 -0.0191  0.3506  0.0700
 8649TIP3    H147438   3.544   1.045  10.681 -1.6488  2.0084  0.0435
 8649TIP3    H247439   3.690   1.062  10.643 -0.6193 -0.0996  2.7423
 8650TIP3   OH247440   3.760   3.509  14.024  0.3523  0.8696  0.2792
 8650TIP3    H147441   3.694   3.578  14.015  0.1012  0.7346  1.0303
 8650TIP3    H247442   3.794   3.498  13.936 -1.0433  0.5270 -0.2492
 8651TIP3   OH247443   3.168   5.530   2.956 -0.0231  0.2686  0.3319
 8651TIP3    H147444   3.189   5.437   2.964  0.5768  0.4466  0.8343
 8651TIP3    H247445   3.108   5.548   3.029 -0.5640  0.1590 -0.0792
 8652TIP3   OH247446   6.256   4.465   2.634  0.0457 -0.6709  0.5805
 8652TIP3    H147447   6.230   4.557   2.626 -0.4942 -0.9543 -1.8733
 8652TIP3    H247448   6.326   4.455   2.569  0.1868 -1.9695  0.9146
 8653TIP3   OH247449   0.039   6.034  10.371 -0.2937  0.4711  0.0959
 8653TIP3    H147450  -0.015   5.955  10.372  1.3453 -0.7240  2.2323
 8653TIP3    H247451  -0.012   6.097  10.319 -2.8572 -1.1258  0.4791
 8654TIP3   OH247452   1.262   3.011   1.569 -0.0800  0.0318 -0.6037
 8654TIP3    H147453   1.341   2.980   1.613 -1.5098 -0.7639  1.5655
 8654TIP3    H247454   1.215   2.932   1.544 -0.1841  0.4924 -1.9647
 8655TIP3   OH247455   4.628   2.195   3.716 -0.1508  0.0135 -0.0730
 8655TIP3    H147456   4.649   2.104   3.694 -0.8715 -0.0253 -0.6448
 8655TIP3    H247457   4.594   2.232   3.635  2.0476  1.4156 -0.4444
 8656TIP3   OH247458   0.318   2.722  13.129  0.7949  0.8136  0.4821
 8656TIP3    H147459   0.337   2.773  13.208  0.5052  1.3552  0.2069
 8656TIP3    H247460   0.358   2.772  13.058  1.8854 -0.1662  0.3865
 8657TIP3   OH247461   4.626   1.240   5.726  0.5242 -0.2380 -0.4097
 8657TIP3    H147462   4.541   1.211   5.759  1.1432 -1.0252  0.5486
 8657TIP3    H247463   4.619   1.335   5.720  0.2399 -0.0701  1.7009
 8658TIP3   OH247464   3.122   5.339   3.359 -0.0847  0.0660  0.3439
 8658TIP3    H147465   3.141   5.249   3.386  1.1612  0.4454  0.7615
 8658TIP3    H247466   3.186   5.393   3.405  0.1208  1.0344 -1.0054
 8659TIP3   OH247467   5.746   2.521   6.416 -0.4876  0.1613 -0.5376
 8659TIP3    H147468   5.721   2.585   6.483 -0.8830  0.8616 -1.3443
 8659TIP3    H247469   5.776   2.573   6.342  0.0114 -0.6052 -0.8911
 8660TIP3   OH247470   1.560   5.265  14.289  0.3001  0.3113  0.2623
 8660TIP3    H147471   1.533   5.319  14.363 -0.2116 -1.8350  1.7421
 8660TIP3    H247472   1.485   5.265  14.230 -0.1996  0.1563  0.8925
 8661TIP3   OH247473   6.461   0.007  13.190  0.6471  0.7304 -0.3205
 8661TIP3    H147474   6.380   0.012  13.139  0.3806 -1.2927 -0.1979
 8661TIP3    H247475   6.529  -0.017  13.127  0.5554 -0.5198  0.0196
 8662TIP3   OH247476   1.412   3.958   0.266 -0.0851  0.1946 -0.3313
 8662TIP3    H147477   1.421   3.904   0.345  0.8222  0.3566 -0.3093
 8662TIP3    H247478   1.340   3.918   0.218 -0.2938 -0.2355  0.3238
 8663TIP3   OH247479   5.428   5.477   6.480 -0.3021  0.0055 -0.2857
 8663TIP3    H147480   5.418   5.462   6.386 -0.9724 -1.4393 -0.0151
 8663TIP3    H247481   5.367   5.415   6.521  0.3030  0.2936  1.1147
 8664TIP3   OH247482   1.604   4.036  12.680  0.4639 -0.2354  0.5210
 8664TIP3    H147483   1.534   3.976  12.655  0.4909 -1.3092  2.8260
 8664TIP3    H247484   1.628   4.080  12.598 -2.1675 -0.5717 -0.5211
 8665TIP3   OH247485   0.180   1.506  13.402  0.0167 -0.1995 -0.0924
 8665TIP3    H147486   0.137   1.434  13.357  0.4098 -0.8235  0.5188
 8665TIP3    H247487   0.145   1.504  13.491 -1.1693  1.3711 -0.4789
 8666TIP3   OH247488   2.544   2.580  11.327 -0.1762 -0.5906  0.1712
 8666TIP3    H147489   2.521   2.624  11.409  1.9368 -0.0435  0.5278
 8666TIP3    H247490   2.526   2.644  11.259  0.2293 -0.1997  0.4277
 8667TIP3   OH247491   2.834   2.937  16.772  0.0544 -0.3368  0.0137
 8667TIP3    H147492   2.802   3.018  16.810 -0.9879 -0.9695  0.5499
 8667TIP3    H247493   2.765   2.911  16.710 -0.0612 -1.2644  0.5111
 8668TIP3   OH247494   0.106   1.373   5.692 -0.4492  0.5235  0.0744
 8668TIP3    H147495   0.180   1.424   5.658  1.6849  0.2350  3.7376
 8668TIP3    H247496   0.135   1.282   5.689 -0.6366  0.3908  1.4017
 8669TIP3   OH247497   2.597   5.549  16.891 -0.3852 -0.1974 -0.8817
 8669TIP3    H147498   2.579   5.478  16.829 -1.7191 -1.1520  0.5352
 8669TIP3    H247499   2.517   5.602  16.889 -0.9912 -0.9795  0.9437
 8670TIP3   OH247500   6.754   1.084   5.004  0.7887 -0.6291  0.3847
 8670TIP3    H147501   6.788   1.142   5.072 -0.0547 -0.6641  0.8535
 8670TIP3    H247502   6.659   1.099   5.006  0.8519  0.3336 -1.6649
 8671TIP3   OH247503   3.238   3.617   4.327  0.7410  0.2419  0.1103
 8671TIP3    H147504   3.175   3.686   4.310 -0.5492 -0.7364  0.7232
 8671TIP3    H247505   3.254   3.576   4.241 -1.3913 -1.0667  0.2740
 8672TIP3   OH247506   3.042   1.489   5.823 -0.2507 -0.2032  0.7226
 8672TIP3    H147507   3.100   1.456   5.754 -0.5685  1.2160 -0.2789
 8672TIP3    H247508   3.070   1.443   5.902  2.1895  0.3323  0.2555
 8673TIP3   OH247509   4.596   5.749  16.688  0.1650  0.3438 -0.4029
 8673TIP3    H147510   4.557   5.707  16.611  0.0275 -0.7340  0.2263
 8673TIP3    H247511   4.593   5.843  16.669 -3.0648  0.3991 -0.2943
 8674TIP3   OH247512   0.661   5.839  14.473  0.5275 -0.2536 -0.3012
 8674TIP3    H147513   0.587   5.780  14.461 -0.1278  0.7229 -1.2399
 8674TIP3    H247514   0.662   5.858  14.567 -1.0241  0.4735 -0.4011
 8675TIP3   OH247515   3.168   3.126  10.747  0.1252  0.3710 -0.2100
 8675TIP3    H147516   3.210   3.211  10.753  1.0355 -0.0236 -0.7915
 8675TIP3    H247517   3.204   3.087  10.667 -0.6881 -0.3381 -0.2464
 8676TIP3   OH247518   5.876   6.701  16.727  0.3790 -0.1484 -0.2586
 8676TIP3    H147519   5.933   6.626  16.746 -1.5262 -1.6167 -0.0221
 8676TIP3    H247520   5.819   6.670  16.657  0.1746  1.4448 -0.8334
 8677TIP3   OH247521   3.615   4.641  11.993 -0.3096 -0.0318  0.2106
 8677TIP3    H147522   3.676   4.568  11.982 -0.3763 -0.1913  0.8668
 8677TIP3    H247523   3.596   4.670  11.904  1.4085  0.5967  0.0109
 8678TIP3   OH247524   2.411   6.382  15.684 -0.2878 -0.2200  0.2552
 8678TIP3    H147525   2.378   6.453  15.740 -0.0943 -2.2329  3.0850
 8678TIP3    H247526   2.338   6.321  15.677  0.0515 -0.5250 -0.8585
 8679TIP3   OH247527   6.475   2.589  15.086 -0.1475  0.8898  0.0524
 8679TIP3    H147528   6.520   2.544  15.015  1.6720  1.9462  0.4646
 8679TIP3    H247529   6.435   2.666  15.045 -0.2466  0.7751 -0.0621
 8680TIP3   OH247530   0.448   0.044   2.322 -0.5682  0.1341 -0.0168
 8680TIP3    H147531   0.522   0.012   2.271 -0.1784  0.0286  0.6000
 8680TIP3    H247532   0.487   0.110   2.380 -1.5401  2.8499 -2.1914
 8681TIP3   OH247533   3.551   6.366  14.211 -0.0694 -0.6832 -0.2744
 8681TIP3    H147534   3.567   6.425  14.285 -1.4302 -0.5134 -0.1036
 8681TIP3    H247535   3.631   6.314  14.205  0.7306  0.4343  0.2582
 8682TIP3   OH247536   1.729   1.391  11.607 -0.5378 -0.6028 -0.5194
 8682TIP3    H147537   1.723   1.336  11.528 -1.6997  0.4999 -1.2361
 8682TIP3    H247538   1.650   1.445  11.604  1.4557  2.4909 -0.8759
 8683TIP3   OH247539   3.383   1.223  16.389 -0.3087 -0.3228  0.3719
 8683TIP3    H147540   3.457   1.277  16.359 -1.4173  1.2010  0.2599
 8683TIP3    H247541   3.307   1.279  16.378 -1.5604 -2.0026  0.0955
 8684TIP3   OH247542   5.948   4.964   3.408  0.2767  0.3454  0.4114
 8684TIP3    H147543   6.017   4.948   3.473  2.2587  1.4043 -1.3076
 8684TIP3    H247544   5.932   4.878   3.369 -0.4360 -0.1698  1.7765
 8685TIP3   OH247545   5.765   6.243  13.259  0.1191  0.3370  0.0521
 8685TIP3    H147546   5.780   6.315  13.197  2.6190  0.5753  0.8044
 8685TIP3    H247547   5.735   6.287  13.339 -1.8390  0.1458 -0.5225
 8686TIP3   OH247548   1.956   2.554   1.037  0.7228 -0.0636  0.2927
 8686TIP3    H147549   1.899   2.615   0.992  1.6238 -0.0280 -0.8480
 8686TIP3    H247550   1.923   2.552   1.127 -1.5423 -0.6633 -0.5046
 8687TIP3   OH247551   5.823   0.417   0.369  0.6671 -1.0990  0.0396
 8687TIP3    H147552   5.866   0.468   0.438  0.0443 -0.4248 -0.0707
 8687TIP3    H247553   5.870   0.333   0.370  2.9924  0.0931 -1.0733
 8688TIP3   OH247554   4.748   5.941  13.172  0.6474  0.0312  0.0949
 8688TIP3    H147555   4.724   5.980  13.088  0.0294 -0.9793 -0.2153
 8688TIP3    H247556   4.826   5.989  13.200  0.9194  0.3067 -1.1009
 8689TIP3   OH247557   2.007   5.442   1.271 -0.5282  0.4916 -0.2447
 8689TIP3    H147558   1.962   5.527   1.277 -0.6777  0.4198 -0.3303
 8689TIP3    H247559   2.077   5.447   1.336 -1.0724  0.3566  0.3669
 8690TIP3   OH247560   0.328   0.756  11.613 -0.4922 -0.4685  0.2281
 8690TIP3    H147561   0.407   0.732  11.661  0.6574  0.8105 -0.9229
 8690TIP3    H247562   0.283   0.673  11.597  1.3163 -1.4001 -0.2453
 8691TIP3   OH247563   4.601   2.687  11.231 -0.2936  0.2815  0.3106
 8691TIP3    H147564   4.543   2.651  11.299  0.0065 -1.8059 -0.4592
 8691TIP3    H247565   4.547   2.751  11.185 -2.0649 -1.6119 -0.4019
 8692TIP3   OH247566   3.704   4.863   2.759 -0.2708  0.2553 -0.1732
 8692TIP3    H147567   3.635   4.860   2.692  0.1113 -1.2508 -0.5370
 8692TIP3    H247568   3.660   4.892   2.838 -0.5729  3.0083 -1.2168
 8693TIP3   OH247569   4.889   0.366  16.541  0.3444 -0.1116  0.2983
 8693TIP3    H147570   4.902   0.445  16.489 -0.9812 -0.9285 -1.3591
 8693TIP3    H247571   4.977   0.328  16.548  0.9032  1.1755  0.6387
 8694TIP3   OH247572   1.636   1.426   5.677 -0.3997  0.0613  0.1396
 8694TIP3    H147573   1.689   1.492   5.632  0.1439 -0.8793 -0.6336
 8694TIP3    H247574   1.635   1.455   5.769  3.0559 -0.8522  0.5908
 8695TIP3   OH247575   1.699   2.232  10.869  0.0246  0.0249  0.4369
 8695TIP3    H147576   1.720   2.182  10.790 -1.0351 -0.9375  0.7407
 8695TIP3    H247577   1.617   2.277  10.849 -0.0523  0.0824  0.8610
 8696TIP3   OH247578   2.338   0.444   4.858  0.1443  0.0641  0.0110
 8696TIP3    H147579   2.407   0.435   4.793  0.2033  1.2172 -0.1168
 8696TIP3    H247580   2.256   0.444   4.808  0.0462 -1.2114  0.1536
 8697TIP3   OH247581   2.589   6.426   2.591 -0.5470  0.0830  0.0843
 8697TIP3    H147582   2.660   6.473   2.635 -0.3672 -1.1282  1.1607
 8697TIP3    H247583   2.618   6.419   2.500  1.2589 -1.3144  0.7058
 8698TIP3   OH247584   2.766   3.726  12.506  0.1004  0.3429 -0.2600
 8698TIP3    H147585   2.711   3.702  12.431 -0.1626 -0.9491  0.3080
 8698TIP3    H247586   2.841   3.667  12.500  0.3631  0.6283  0.1785
 8699TIP3   OH247587   0.736   0.316   4.619 -0.4889  0.4830 -0.7214
 8699TIP3    H147588   0.731   0.378   4.692 -0.3287  2.4360 -2.2904
 8699TIP3    H247589   0.650   0.274   4.617 -0.4783  0.3554  0.5889
 8700TIP3   OH247590   1.650   4.175  15.270 -0.1042  0.0734  0.0693
 8700TIP3    H147591   1.639   4.155  15.177  2.7264 -1.3017 -0.0916
 8700TIP3    H247592   1.671   4.268  15.271  0.4288 -0.0150 -0.7866
 8701TIP3   OH247593   6.340   1.261  11.500 -0.2105  0.4029 -0.6837
 8701TIP3    H147594   6.425   1.303  11.506  0.1463  0.0475 -2.4597
 8701TIP3    H247595   6.321   1.229  11.588  0.8090  1.7680  0.0454
 8702TIP3   OH247596   4.708   3.516  12.153 -0.2162 -0.1901 -0.1700
 8702TIP3    H147597   4.702   3.439  12.097  3.0522  1.6542 -3.5369
 8702TIP3    H247598   4.729   3.482  12.240 -0.2712 -3.0841 -1.1918
 8703TIP3   OH247599   4.096   0.051   4.268  0.1918  0.5259  0.0087
 8703TIP3    H147600   4.153   0.127   4.281 -1.0526  1.2579  1.4469
 8703TIP3    H247601   4.141  -0.021   4.313  0.9916  0.5689 -0.6919
 8704TIP3   OH247602   4.457   6.106   3.345  0.4350 -0.2382  0.5478
 8704TIP3    H147603   4.542   6.145   3.366  0.6089 -0.7559  0.8167
 8704TIP3    H247604   4.479   6.024   3.300  0.0741 -0.0002 -0.0784
 8705TIP3   OH247605   4.042   3.240   2.264 -0.0409 -0.7536 -0.2749
 8705TIP3    H147606   4.005   3.311   2.212 -0.6441  0.5074  1.7593
 8705TIP3    H247607   3.971   3.211   2.320  0.5639 -2.1189 -0.1625
 8706TIP3   OH247608   2.915   4.175   1.859  0.3912 -0.0507  0.1762
 8706TIP3    H147609   2.821   4.172   1.878  0.1961  2.4419 -0.0544
 8706TIP3    H247610   2.957   4.147   1.940 -0.5461 -1.0552  0.3256
 8707TIP3   OH247611   4.669   2.676   0.128  0.0491  0.5348  0.3614
 8707TIP3    H147612   4.692   2.672   0.035  0.1056  0.4799  0.3781
 8707TIP3    H247613   4.743   2.720   0.169  0.0096  0.5878  0.3759
 8708TIP3   OH247614   0.576   6.115   1.833 -0.2041  0.1887 -0.1423
 8708TIP3    H147615   0.621   6.060   1.897  1.5899 -0.2955 -1.7283
 8708TIP3    H247616   0.483   6.096   1.846  0.2475 -1.7155  0.6820
 8709TIP3   OH247617   6.085   2.229   6.109 -0.1589 -0.2008 -0.0445
 8709TIP3    H147618   6.032   2.185   6.043 -0.6281 -2.6249  1.7704
 8709TIP3    H247619   6.169   2.182   6.108  0.2588  0.5165  0.2778
 8710TIP3   OH247620   0.436   6.367   3.207  0.1282  0.1105  0.8662
 8710TIP3    H147621   0.426   6.428   3.135  1.5800  0.9259  1.3234
 8710TIP3    H247622   0.510   6.400   3.257  0.4552 -1.5867  1.5742
 8711TIP3   OH247623   1.062   6.248  15.802 -0.6911  0.3163 -0.3686
 8711TIP3    H147624   1.090   6.203  15.881 -0.7918 -1.7056 -1.4167
 8711TIP3    H247625   0.988   6.302  15.830  0.7556  1.5529  1.3390
 8712TIP3   OH247626   4.285   3.958   0.669 -0.0275 -0.7320  0.1722
 8712TIP3    H147627   4.263   3.967   0.576  1.9619 -1.8617 -0.4600
 8712TIP3    H247628   4.271   3.865   0.687 -0.2174 -0.5493  0.9776
 8713TIP3   OH247629   0.492   3.008  13.886  0.6345  0.3928 -0.3297
 8713TIP3    H147630   0.526   3.097  13.894  1.8873 -0.1644  1.1427
 8713TIP3    H247631   0.476   2.980  13.976 -1.3453 -0.3047 -0.8638
 8714TIP3   OH247632   5.190   3.966  13.437 -0.4092 -0.3049  0.0758
 8714TIP3    H147633   5.237   3.894  13.395 -0.7819 -0.1397 -0.6572
 8714TIP3    H247634   5.247   3.995  13.508 -0.1102 -1.1046  0.1621
 8715TIP3   OH247635   5.626   5.534  14.906  0.2109 -0.4545 -0.0099
 8715TIP3    H147636   5.705   5.585  14.887 -0.2188  0.5113  0.7215
 8715TIP3    H247637   5.657   5.458  14.955  0.6510  0.1034  0.5898
 8716TIP3   OH247638   2.119   6.082  13.753 -0.6261  0.1619 -0.2028
 8716TIP3    H147639   2.114   5.997  13.709  0.1188 -0.0754  0.1511
 8716TIP3    H247640   2.189   6.129  13.708  0.8246 -0.4517  1.3009
 8717TIP3   OH247641   3.236   6.605   5.081 -0.1953  0.2981 -0.2628
 8717TIP3    H147642   3.174   6.533   5.078  0.2567 -0.1456  0.6191
 8717TIP3    H247643   3.316   6.567   5.117 -0.2741  1.4505  1.2364
 8718TIP3   OH247644   6.343   1.407  10.409 -0.9533  0.7672  0.4456
 8718TIP3    H147645   6.297   1.491  10.408 -0.6501  1.0477  3.3312
 8718TIP3    H247646   6.427   1.426  10.367 -0.8875  1.9487  1.0675
 8719TIP3   OH247647   5.612   5.866   5.471  0.1386 -0.7276 -0.2067
 8719TIP3    H147648   5.653   5.937   5.421  0.5600 -1.9794 -1.7128
 8719TIP3    H247649   5.672   5.848   5.542  0.4039 -0.1086 -0.2655
 8720TIP3   OH247650   3.811   2.035   5.649  0.1598 -0.7839  0.3701
 8720TIP3    H147651   3.862   2.086   5.711 -0.6802  0.0549  0.3913
 8720TIP3    H247652   3.745   1.990   5.702  0.2251 -1.0498  0.2293
 8721TIP3   OH247653   0.121   4.706   5.078  0.2937 -0.3470 -0.1441
 8721TIP3    H147654   0.059   4.648   5.035 -0.4415  1.2433 -1.3149
 8721TIP3    H247655   0.090   4.712   5.168 -0.5132 -0.5544 -0.4020
 8722TIP3   OH247656   2.617   2.625   0.245 -0.0777  1.0512 -0.0016
 8722TIP3    H147657   2.571   2.637   0.328 -0.3052 -0.3542  0.1018
 8722TIP3    H247658   2.548   2.629   0.179 -0.4037 -1.0261  0.1512
 8723TIP3   OH247659   6.600   6.652  12.485 -0.1214 -0.3154 -0.1076
 8723TIP3    H147660   6.597   6.558  12.466 -2.9092 -0.0486 -1.4381
 8723TIP3    H247661   6.511   6.674  12.512  0.7142  1.7999  1.2020
 8724TIP3   OH247662   4.872   0.029  14.484  0.0302  0.1133  0.3000
 8724TIP3    H147663   4.892  -0.064  14.485  2.3793  0.5540 -0.4378
 8724TIP3    H247664   4.934   0.068  14.546  0.3665  1.3703 -0.7750
 8725TIP3   OH247665   0.781   2.584  11.738  0.4710 -0.0717 -0.2345
 8725TIP3    H147666   0.876   2.580  11.747  0.5801  3.0201  0.8991
 8725TIP3    H247667   0.766   2.633  11.657 -0.2150 -1.1600 -0.7966
 8726TIP3   OH247668   2.195   0.054   4.994  0.2849  0.1233  0.2762
 8726TIP3    H147669   2.195  -0.015   4.927  0.4426  0.1056  0.2940
 8726TIP3    H247670   2.123   0.113   4.968  0.9339  0.6230 -0.4317
 8727TIP3   OH247671   6.063   1.266  12.679 -0.1141  0.7982 -0.4612
 8727TIP3    H147672   6.080   1.265  12.585 -0.6528  1.1369 -0.5632
 8727TIP3    H247673   6.041   1.175  12.700 -1.4144  0.9816 -0.9347
 8728TIP3   OH247674   5.955   1.019   4.249  0.0207  0.0298 -0.3656
 8728TIP3    H147675   6.006   1.015   4.168  0.1458  0.3766 -0.3052
 8728TIP3    H247676   5.866   1.039   4.222  0.0255 -0.0307 -0.4281
 8729TIP3   OH247677   2.757   5.023  15.870  0.3950  0.3042  0.1347
 8729TIP3    H147678   2.780   5.056  15.956 -0.1638  1.1609 -0.0340
 8729TIP3    H247679   2.825   4.958  15.850  0.1967 -0.3351  1.4534
 8730TIP3   OH247680   4.778   0.713  17.095  0.1436 -0.8202 -0.1485
 8730TIP3    H147681   4.688   0.745  17.092  1.0307  1.8173 -1.7484
 8730TIP3    H247682   4.790   0.683  17.186 -1.9452 -0.0967  0.4211
 8731TIP3   OH247683   1.794   3.417  13.500 -0.0104  0.5414  0.2264
 8731TIP3    H147684   1.756   3.371  13.425 -0.2415  2.0065 -0.6088
 8731TIP3    H247685   1.821   3.502  13.464  1.5267  0.5943  1.4177
 8732TIP3   OH247686   2.626   0.422  12.507  0.9610  0.0609  0.3184
 8732TIP3    H147687   2.639   0.517  12.513 -0.0734  0.2164  0.2805
 8732TIP3    H247688   2.692   0.385  12.567  0.5220  0.8753  1.3293
 8733TIP3   OH247689   6.816   4.003  10.701 -0.1232  0.0356  0.3874
 8733TIP3    H147690   6.746   3.940  10.686  0.2292 -0.6364  1.4861
 8733TIP3    H247691   6.785   4.057  10.774 -0.6993  1.5990 -0.9315
 8734TIP3   OH247692   1.980   1.873   4.670  0.0450  0.0701  0.3536
 8734TIP3    H147693   1.929   1.793   4.677  0.6861 -0.5886 -1.7387
 8734TIP3    H247694   1.941   1.920   4.597  0.5851  0.9705  0.6260
 8735TIP3   OH247695   2.710   5.734   2.524  0.1482  0.4842  0.5937
 8735TIP3    H147696   2.722   5.687   2.606 -0.7700 -1.4645 -0.3218
 8735TIP3    H247697   2.797   5.766   2.502  0.6760 -0.1979  1.5994
 8736TIP3   OH247698   6.740   0.053  14.049 -0.2878 -0.0680 -0.0345
 8736TIP3    H147699   6.754   0.085  13.959  0.1655  0.6001  0.2679
 8736TIP3    H247700   6.736   0.133  14.102  1.6058 -0.5060  0.8464
 8737TIP3   OH247701   1.251   0.527  14.437  0.3249 -0.1230 -0.1294
 8737TIP3    H147702   1.212   0.568  14.359 -0.2933  1.5338  0.9780
 8737TIP3    H247703   1.236   0.433  14.425  0.4599  0.0527 -2.0953
 8738TIP3   OH247704   3.719   4.134   2.934  0.3872  0.7283 -0.2963
 8738TIP3    H147705   3.635   4.176   2.915 -0.3259 -1.2378 -1.7813
 8738TIP3    H247706   3.740   4.162   3.023 -3.4407 -1.2396  1.4561
 8739TIP3   OH247707   2.713   3.871   3.266 -0.4480 -0.3715 -0.4653
 8739TIP3    H147708   2.633   3.923   3.273 -0.8439 -0.8869 -1.0493
 8739TIP3    H247709   2.682   3.783   3.244  0.3496 -0.3167 -1.8981
 8740TIP3   OH247710   4.135   0.671  11.581  0.0955 -0.0326  0.2124
 8740TIP3    H147711   4.183   0.754  11.578 -0.4616  0.2929  0.2028
 8740TIP3    H247712   4.199   0.605  11.554  0.1691  0.5642 -1.1235
 8741TIP3   OH247713   1.499   0.319   4.568  0.0279  0.0946 -0.1057
 8741TIP3    H147714   1.474   0.355   4.482 -1.0225 -0.2846  0.0268
 8741TIP3    H247715   1.416   0.300   4.611  0.5386 -1.3492  0.3112
 8742TIP3   OH247716   5.998   3.057  15.533  0.1664  0.1897  0.1539
 8742TIP3    H147717   6.050   2.997  15.480 -0.1154  0.2604 -0.2091
 8742TIP3    H247718   6.060   3.095  15.595  0.0347 -1.8590  1.6646
 8743TIP3   OH247719   5.599   6.848  14.570  0.2570 -0.2884  0.3491
 8743TIP3    H147720   5.646   6.899  14.636  0.9198 -0.6152  0.1305
 8743TIP3    H247721   5.658   6.846  14.495 -0.3174 -0.2783 -0.1047
 8744TIP3   OH247722   1.786   0.395   0.623 -0.2659  0.6710  0.2429
 8744TIP3    H147723   1.746   0.447   0.553 -0.7482  0.7948  0.6080
 8744TIP3    H247724   1.735   0.313   0.624 -0.0270  0.5205  0.2087
 8745TIP3   OH247725   5.420   1.024   3.188  0.2449 -0.1823  0.4579
 8745TIP3    H147726   5.469   1.102   3.215 -0.1433  0.6125 -1.0355
 8745TIP3    H247727   5.332   1.056   3.169 -0.1037 -1.1157  0.4398
 8746TIP3   OH247728   4.996   4.317   3.177  0.1637  0.2377  0.0048
 8746TIP3    H147729   5.060   4.368   3.226  0.0734 -0.4718  0.8994
 8746TIP3    H247730   4.911   4.351   3.205  0.1330  0.8549 -0.8185
 8747TIP3   OH247731   0.462   6.408  13.408 -0.2085 -0.2632 -0.0076
 8747TIP3    H147732   0.484   6.320  13.439  1.0853  0.2299  0.5486
 8747TIP3    H247733   0.502   6.466  13.473 -1.0272  0.7373 -0.3841
 8748TIP3   OH247734   4.194   1.500   0.684  0.0188  0.0620  0.0968
 8748TIP3    H147735   4.220   1.590   0.704  1.0159 -0.3188  0.6073
 8748TIP3    H247736   4.240   1.447   0.748 -0.6721 -0.8114 -0.1055
 8749TIP3   OH247737   2.328   4.825   0.976 -0.2767 -0.1765  0.2276
 8749TIP3    H147738   2.248   4.808   0.926 -0.1352  0.6508 -0.2998
 8749TIP3    H247739   2.300   4.880   1.048 -0.2595 -0.2932  0.3243
 8750TIP3   OH247740   3.331   0.262  12.808  0.1010  0.4191  0.2069
 8750TIP3    H147741   3.375   0.211  12.876  1.1077 -0.2177 -0.8873
 8750TIP3    H247742   3.237   0.251  12.826  0.3144  2.0997  2.8046
 8751TIP3   OH247743   5.945   5.446  11.975 -0.3259  0.6849 -0.1802
 8751TIP3    H147744   5.968   5.425  12.066  1.2942  2.7519 -0.0226
 8751TIP3    H247745   5.984   5.375  11.923 -0.4229  0.0061  0.6484
 8752TIP3   OH247746   1.502   0.957   5.069 -0.1279 -0.3416 -0.1710
 8752TIP3    H147747   1.491   0.932   4.978 -1.7184 -1.1319  0.2076
 8752TIP3    H247748   1.458   0.887   5.118 -1.6681  1.4260  1.0873
 8753TIP3   OH247749   1.807   1.631  15.991 -0.5892  0.0991 -0.3993
 8753TIP3    H147750   1.815   1.666  15.902 -0.6769  0.8438 -0.1201
 8753TIP3    H247751   1.721   1.660  16.021 -1.0768 -1.1644 -0.4950
 8754TIP3   OH247752   6.646   5.336   6.170 -0.4499 -0.2100 -0.6444
 8754TIP3    H147753   6.715   5.326   6.104  0.6864 -0.7331  0.5626
 8754TIP3    H247754   6.675   5.279   6.242 -2.9793 -1.7598 -0.7432
 8755TIP3   OH247755   1.074   1.160  11.072  0.5179 -0.5567  0.1715
 8755TIP3    H147756   1.127   1.239  11.079 -1.9803  1.2088  0.7698
 8755TIP3    H247757   1.047   1.157  10.981  0.2860 -0.4804  0.2364
 8756TIP3   OH247758   2.064   4.591  10.603 -0.1885 -0.7605  0.4990
 8756TIP3    H147759   2.100   4.540  10.530 -0.5858  1.4823 -1.3754
 8756TIP3    H247760   2.140   4.637  10.639 -0.0356 -1.6777  1.4197
 8757TIP3   OH247761   4.958   5.519   4.649  0.1976  0.3088  0.4995
 8757TIP3    H147762   4.980   5.564   4.731 -1.7800  0.9860  0.7300
 8757TIP3    H247763   5.026   5.546   4.588  1.2417  0.4779  1.6774
 8758TIP3   OH247764   5.600   0.462  15.638 -1.0262 -0.0639 -0.2598
 8758TIP3    H147765   5.694   0.457  15.658 -0.8876 -1.5421 -1.1186
 8758TIP3    H247766   5.567   0.530  15.696  0.5743  0.4906  0.0697
 8759TIP3   OH247767   2.965   4.160   0.741 -0.3074  0.3998  0.1197
 8759TIP3    H147768   3.050   4.204   0.736  0.0857 -0.2404  0.9115
 8759TIP3    H247769   2.919   4.187   0.662  0.1927  1.6676  0.2427
 8760TIP3   OH247770   5.458   0.498   1.347  0.6995  0.7272  0.0313
 8760TIP3    H147771   5.485   0.486   1.438 -0.5114 -0.4358  0.2600
 8760TIP3    H247772   5.522   0.448   1.296 -0.3284 -1.1421  0.4896
 8761TIP3   OH247773   3.151   6.145   2.173 -0.3404  0.1154  0.6486
 8761TIP3    H147774   3.097   6.199   2.115  0.7133  0.1828 -0.3076
 8761TIP3    H247775   3.228   6.199   2.189  0.2988 -0.7324  0.4394
 8762TIP3   OH247776   3.085   3.172  14.900 -0.4235  0.3001 -0.6605
 8762TIP3    H147777   3.094   3.088  14.945  1.2208  0.0655 -1.3353
 8762TIP3    H247778   3.096   3.238  14.969 -1.4244 -0.0262 -0.1770
 8763TIP3   OH247779   2.376   3.848   0.375  0.0064 -0.0512  0.2043
 8763TIP3    H147780   2.381   3.921   0.436 -3.1013  0.8955 -0.4578
 8763TIP3    H247781   2.411   3.882   0.293  1.0585 -0.2175  0.5786
 8764TIP3   OH247782   3.411   5.315  11.941  0.3124  0.0735  0.5088
 8764TIP3    H147783   3.399   5.410  11.932 -1.1299 -0.0932  0.4068
 8764TIP3    H247784   3.420   5.284  11.851  1.2512  0.1594  0.5684
 8765TIP3   OH247785   1.669   4.925   5.845 -0.1645  0.0598  0.4498
 8765TIP3    H147786   1.662   4.922   5.940  0.3299  0.6575  0.5067
 8765TIP3    H247787   1.613   4.853   5.815  0.3106 -0.6407  1.2163
 8766TIP3   OH247788   4.760   3.103  15.781 -0.3035 -0.3124  0.0110
 8766TIP3    H147789   4.764   3.102  15.685  1.4426 -0.2911  0.0505
 8766TIP3    H247790   4.684   3.156  15.802 -2.0095 -2.0661 -1.3631
 8767TIP3   OH247791   3.803   0.606   0.451  0.0484 -0.4504  0.0677
 8767TIP3    H147792   3.898   0.602   0.438 -0.0131 -0.1717 -0.5330
 8767TIP3    H247793   3.788   0.686   0.501  0.1377 -0.5303  0.2207
 8768TIP3   OH247794   2.959   1.522   3.699  0.1594 -0.2547  0.2279
 8768TIP3    H147795   2.868   1.549   3.697 -0.3490 -1.9370 -0.9562
 8768TIP3    H247796   2.957   1.431   3.728  1.4198 -0.4566 -0.2390
 8769TIP3   OH247797   3.590   2.829  16.533  0.2924  0.0413 -0.5788
 8769TIP3    H147798   3.668   2.774  16.538  0.8840  0.9294  0.1384
 8769TIP3    H247799   3.621   2.912  16.498  0.2946  1.4421  2.4426
 8770TIP3   OH247800   2.711   5.387  13.736 -0.2288 -0.2294  0.6147
 8770TIP3    H147801   2.642   5.431  13.785  0.4394  1.1426  0.3589
 8770TIP3    H247802   2.790   5.398  13.789  0.6185  1.7399 -0.9485
 8771TIP3   OH247803   0.739   0.697   2.363  0.3969 -0.6767  0.4596
 8771TIP3    H147804   0.644   0.697   2.363  0.3290  0.1513 -1.9301
 8771TIP3    H247805   0.763   0.741   2.444 -1.3090  0.6949  0.2781
 8772TIP3   OH247806   4.393   2.053   3.928 -0.2792  0.1509  0.0776
 8772TIP3    H147807   4.435   2.129   3.970  0.3503 -1.5080  2.6601
 8772TIP3    H247808   4.466   2.000   3.897 -0.7276  0.6943 -2.0905
 8773TIP3   OH247809   5.890   3.635  11.424 -0.2393 -0.0149  0.1818
 8773TIP3    H147810   5.971   3.624  11.474 -0.4089  0.4833  0.5885
 8773TIP3    H247811   5.901   3.580  11.347  0.4659  0.0062  0.2559
 8774TIP3   OH247812   5.754   2.539   1.605 -0.5415 -0.6827 -0.5334
 8774TIP3    H147813   5.750   2.596   1.682 -1.3702 -0.9482 -0.3704
 8774TIP3    H247814   5.822   2.475   1.626 -0.9751 -0.9377  0.1142
 8775TIP3   OH247815   1.851   0.674   1.202 -0.5268  1.0970  0.1971
 8775TIP3    H147816   1.835   0.685   1.296 -0.9317  0.7202  0.1812
 8775TIP3    H247817   1.772   0.708   1.161 -0.6616  0.6032  0.0332
 8776TIP3   OH247818   6.049   3.978   2.404  0.1501  0.1959 -0.5368
 8776TIP3    H147819   5.994   3.915   2.358  2.0199  0.0170 -2.7498
 8776TIP3    H247820   6.137   3.942   2.397  0.9550  1.8950  0.2186
 8777TIP3   OH247821   4.897   4.822  13.340  0.6748 -0.1135 -0.1233
 8777TIP3    H147822   4.863   4.838  13.253 -0.5567 -0.2646  0.3191
 8777TIP3    H247823   4.907   4.727  13.345  0.1057 -0.1578  0.1390
 8778TIP3   OH247824   3.043   0.150  16.158 -0.6915 -0.1081 -0.8065
 8778TIP3    H147825   3.102   0.223  16.140 -0.1882 -0.2770  0.0593
 8778TIP3    H247826   3.093   0.072  16.132 -0.5690 -0.2420 -0.2002
 8779TIP3   OH247827   0.232   1.999   3.783 -0.0513 -0.0531 -0.2547
 8779TIP3    H147828   0.246   1.905   3.792 -0.6800 -0.4989 -2.9714
 8779TIP3    H247829   0.161   2.019   3.844 -0.1319 -1.3988  0.1243
 8780TIP3   OH247830   0.376   2.260  10.643  0.2536 -0.4324  0.2448
 8780TIP3    H147831   0.449   2.198  10.637  0.8511  0.0943  1.6471
 8780TIP3    H247832   0.411   2.342  10.607  1.1173  0.4097  2.7585
 8781TIP3   OH247833   2.528   5.952  14.482 -0.3224 -0.1075  0.1739
 8781TIP3    H147834   2.522   5.983  14.572  1.3968  0.4999  0.1196
 8781TIP3    H247835   2.479   5.870  14.481  0.8245 -0.8665  2.0271
 8782TIP3   OH247836   6.399   2.427  14.692  0.0005 -0.1456 -0.1599
 8782TIP3    H147837   6.386   2.335  14.717 -0.2030 -0.2910 -0.7654
 8782TIP3    H247838   6.472   2.456  14.746 -0.3964 -0.4506  0.5563
 8783TIP3   OH247839   6.342   4.759  14.327 -0.0340 -0.1292 -0.3442
 8783TIP3    H147840   6.276   4.821  14.358  0.4138  0.2793 -0.1936
 8783TIP3    H247841   6.401   4.748  14.402 -0.4313 -1.1869 -0.1736
 8784TIP3   OH247842   2.890   2.515  12.639  0.3634 -0.1144  0.2418
 8784TIP3    H147843   2.915   2.457  12.568 -2.0261 -1.0443  0.0666
 8784TIP3    H247844   2.875   2.600  12.597 -0.7822 -0.5945 -0.3624
 8785TIP3   OH247845   2.776   0.644   2.381 -0.3873  0.2841 -0.0153
 8785TIP3    H147846   2.686   0.636   2.348 -0.3304 -1.9039  0.1795
 8785TIP3    H247847   2.766   0.655   2.476 -0.4610 -0.0162  0.0136
 8786TIP3   OH247848   5.675   6.398  12.576  0.1778  0.0232  0.1248
 8786TIP3    H147849   5.714   6.434  12.497 -1.0516 -0.0524 -0.5380
 8786TIP3    H247850   5.682   6.303  12.566 -0.7690 -0.0152 -0.3378
 8787TIP3   OH247851   4.949   4.992   2.742  0.1007 -0.7878  0.2546
 8787TIP3    H147852   4.914   4.915   2.698  0.5733 -0.6364 -0.4054
 8787TIP3    H247853   4.975   5.051   2.671 -0.2985  0.0007  0.7539
 8788TIP3   OH247854   3.023   0.302  15.502  0.5175 -0.6368  0.2019
 8788TIP3    H147855   3.030   0.292  15.597  1.1861  1.1354  0.3669
 8788TIP3    H247856   2.931   0.283  15.482 -0.2520  1.4353  1.5453
 8789TIP3   OH247857   6.295   3.362   1.590 -0.0658 -0.5480 -0.0051
 8789TIP3    H147858   6.382   3.324   1.597 -0.1694 -1.2474 -1.8380
 8789TIP3    H247859   6.294   3.403   1.503 -1.2966  0.1619  0.3140
 8790TIP3   OH247860   0.543   6.327  16.689  0.5047 -0.0149 -0.2682
 8790TIP3    H147861   0.620   6.293  16.735  1.3881  0.2235 -1.5198
 8790TIP3    H247862   0.523   6.409  16.734 -0.5076 -1.2058  1.5810
 8791TIP3   OH247863   6.563   2.500   1.808  0.2047 -0.4243  0.5694
 8791TIP3    H147864   6.587   2.475   1.719 -0.0598  1.0779  0.0442
 8791TIP3    H247865   6.596   2.429   1.863  1.0928 -0.9881 -0.6453
 8792TIP3   OH247866   5.329   1.228  13.038 -0.2637  0.5905 -0.2131
 8792TIP3    H147867   5.324   1.218  13.133 -0.0878  0.2327 -0.2399
 8792TIP3    H247868   5.252   1.279  13.015 -1.5514 -1.2257 -0.1333
 8793TIP3   OH247869   6.182   5.894   6.020  0.5792  0.0302  0.2808
 8793TIP3    H147870   6.158   5.805   6.046  2.6297 -0.7924 -0.4380
 8793TIP3    H247871   6.098   5.939   6.010 -0.5364 -1.9101  0.2857
 8794TIP3   OH247872   4.401   2.889   4.498 -0.0453  0.6994  0.1004
 8794TIP3    H147873   4.418   2.913   4.590 -1.6753  1.7441  0.1798
 8794TIP3    H247874   4.313   2.852   4.500  1.1619 -2.4553 -0.5706
 8795TIP3   OH247875   0.651   5.805  11.141  0.1750  0.5742  0.3641
 8795TIP3    H147876   0.703   5.807  11.221  1.6340  2.3896 -0.5816
 8795TIP3    H247877   0.597   5.726  11.150  1.7859 -0.3974  2.1845
 8796TIP3   OH247878   3.306   4.876  16.501 -0.0431 -0.0072 -0.7250
 8796TIP3    H147879   3.376   4.818  16.470  0.3935 -0.3349  0.7667
 8796TIP3    H247880   3.300   4.944  16.434  1.2321 -0.3600 -1.2348
 8797TIP3   OH247881   0.080   0.399  14.726 -0.4027  0.9140  0.2987
 8797TIP3    H147882   0.057   0.331  14.663 -0.6167 -0.0168  1.3497
 8797TIP3    H247883   0.176   0.406  14.720 -0.4694  1.2479 -0.5236
 8798TIP3   OH247884   6.681   1.142  16.713 -0.2810  0.2543 -0.4387
 8798TIP3    H147885   6.600   1.143  16.662 -1.5019 -1.7903  1.2959
 8798TIP3    H247886   6.662   1.197  16.789  0.6122  1.2174 -0.9040
 8799TIP3   OH247887   0.101   6.698   1.650 -0.0947 -0.2670 -0.2788
 8799TIP3    H147888   0.062   6.750   1.720 -0.1735 -1.4913  0.6358
 8799TIP3    H247889   0.102   6.608   1.685  3.9590 -0.3153  0.0558
 8800TIP3   OH247890   4.897   5.200  11.569 -0.2363  0.3255 -0.3469
 8800TIP3    H147891   4.921   5.285  11.605 -1.6131  0.6317 -0.0816
 8800TIP3    H247892   4.913   5.138  11.640 -1.8026  0.7624  0.4244
 8801TIP3   OH247893   2.649   3.152  12.729  0.0319 -0.1963  0.9821
 8801TIP3    H147894   2.736   3.190  12.713 -0.3383  0.2783  0.0225
 8801TIP3    H247895   2.662   3.058  12.720  0.7595 -0.2627  2.4130
 8802TIP3   OH247896   6.713   1.559   6.485  0.8440 -0.4405  0.1448
 8802TIP3    H147897   6.627   1.594   6.508  0.2490 -1.5052 -0.3642
 8802TIP3    H247898   6.699   1.464   6.480  1.5096 -0.4787 -2.0735
 8803TIP3   OH247899   6.821   1.915   2.877  0.0183 -0.4735 -0.2627
 8803TIP3    H147900   6.827   1.820   2.882  0.4830 -0.4067  0.6292
 8803TIP3    H247901   6.728   1.934   2.869 -0.1401 -0.9695  0.4205
 8804TIP3   OH247902   4.840   0.190   6.222  0.0595 -0.1710 -0.1866
 8804TIP3    H147903   4.899   0.181   6.297 -0.7467 -0.4180  0.4364
 8804TIP3    H247904   4.760   0.146   6.249  0.0964 -1.1850 -1.5936
 8805TIP3   OH247905   1.005   2.617  13.108 -0.2883 -0.0212  0.1739
 8805TIP3    H147906   1.014   2.667  13.027 -0.9582 -1.2775 -0.7198
 8805TIP3    H247907   1.093   2.618  13.146  0.0239  0.6600 -0.5373
 8806TIP3   OH247908   6.445   3.177   6.773  0.0166 -0.5109  0.1543
 8806TIP3    H147909   6.434   3.143   6.684  1.1949 -0.9840  0.1704
 8806TIP3    H247910   6.445   3.272   6.762 -1.0171 -0.5342 -0.1866
 8807TIP3   OH247911   0.506   0.890   1.631 -0.0805  0.1098 -0.0677
 8807TIP3    H147912   0.461   0.970   1.659 -2.7322 -1.4778  0.4983
 8807TIP3    H247913   0.599   0.915   1.628 -0.8787  3.4300 -0.8296
 8808TIP3   OH247914   0.589   3.608   4.700  0.1237  0.2510  0.8529
 8808TIP3    H147915   0.611   3.590   4.609 -0.3323 -0.1036  0.8115
 8808TIP3    H247916   0.512   3.664   4.696  0.5914  0.9324  1.0129
 8809TIP3   OH247917   4.176   3.488  13.927  0.4957 -0.1501  0.1681
 8809TIP3    H147918   4.162   3.582  13.944  0.2509 -0.1221 -0.1879
 8809TIP3    H247919   4.182   3.449  14.015 -1.2349 -0.0798  0.3506
 8810TIP3   OH247920   1.592   2.329   1.359 -0.2213  0.6076  0.1170
 8810TIP3    H147921   1.540   2.260   1.319 -0.2836  0.6418  0.1383
 8810TIP3    H247922   1.663   2.283   1.404  2.0558  0.6985 -3.0841
 8811TIP3   OH247923   3.678   2.823   5.660  0.1977  0.3483 -0.0387
 8811TIP3    H147924   3.704   2.825   5.568  0.5348 -0.5180  0.0280
 8811TIP3    H247925   3.747   2.871   5.705 -0.3151  1.3537 -0.3123
 8812TIP3   OH247926   5.402   4.068  11.974 -0.3556  0.1167 -0.1255
 8812TIP3    H147927   5.455   4.128  11.922 -0.5117 -0.3822 -0.8827
 8812TIP3    H247928   5.441   4.070  12.061 -0.5441  1.5389 -0.0506
 8813TIP3   OH247929   3.055   6.750  15.953 -0.2984 -0.1699  0.6384
 8813TIP3    H147930   2.987   6.688  15.977  1.7380 -2.5642  0.6814
 8813TIP3    H247931   3.035   6.773  15.862 -0.6541 -1.5765  0.3412
 8814TIP3   OH247932   5.370   5.225  13.195  0.1605 -0.0761  0.5694
 8814TIP3    H147933   5.451   5.215  13.245 -0.1255 -1.0033  0.8662
 8814TIP3    H247934   5.382   5.306  13.145  1.4242 -0.3972  0.3203
 8815TIP3   OH247935   2.341   6.504  16.291 -0.2559 -0.4817  0.1500
 8815TIP3    H147936   2.253   6.476  16.315 -0.3043 -0.6865 -0.2427
 8815TIP3    H247937   2.388   6.513  16.374 -0.4364 -1.0805  0.3210
 8816TIP3   OH247938   6.826   1.885  16.736 -0.1601  0.3095 -0.2851
 8816TIP3    H147939   6.909   1.928  16.718 -0.3014  0.1888 -1.2849
 8816TIP3    H247940   6.815   1.822  16.664 -1.1406  0.3666 -0.2054
 8817TIP3   OH247941   5.895   1.620  16.077 -0.8621 -0.6065 -0.3055
 8817TIP3    H147942   5.849   1.595  15.997  2.1452  0.0266 -2.4255
 8817TIP3    H247943   5.907   1.539  16.125 -0.5595 -1.4846 -1.7887
 8818TIP3   OH247944   4.975   4.796   3.447 -1.2264 -0.2435 -0.1358
 8818TIP3    H147945   4.891   4.752   3.438 -1.4986  0.3297 -0.4257
 8818TIP3    H247946   5.037   4.726   3.462 -1.7168 -0.6946 -0.1960
 8819TIP3   OH247947   5.586   0.125   4.265  0.2254  0.1209  0.1425
 8819TIP3    H147948   5.657   0.189   4.275  1.6026 -1.3160 -0.0134
 8819TIP3    H247949   5.630   0.044   4.239 -1.4555 -0.9236  0.3815
 8820TIP3   OH247950   0.084   1.817  16.984 -0.2525 -0.4599  0.1631
 8820TIP3    H147951   0.005   1.788  16.939 -0.1496 -0.3937 -0.0668
 8820TIP3    H247952   0.082   1.913  16.977 -0.4067 -0.4292  0.5969
 8821TIP3   OH247953   1.932   1.231   6.167  0.0566 -0.4030  0.2573
 8821TIP3    H147954   1.862   1.267   6.221  0.4816 -1.7607  1.8147
 8821TIP3    H247955   1.888   1.173   6.106 -0.4983  1.6332 -1.3969
 8822TIP3   OH247956   2.143   5.045  13.744  0.4767 -0.2966 -0.8344
 8822TIP3    H147957   2.107   5.090  13.668  0.2331  0.1796 -0.4419
 8822TIP3    H247958   2.226   5.009  13.714  0.1059 -0.6095 -1.4858
 8823TIP3   OH247959   3.234   1.113   1.997  0.3300 -0.3403 -0.1782
 8823TIP3    H147960   3.243   1.101   1.902 -2.0768 -2.1074 -0.2940
 8823TIP3    H247961   3.157   1.169   2.007 -0.1224 -1.0971  0.7258
 8824TIP3   OH247962   1.593   4.630   0.652 -0.3321 -0.2863  0.0997
 8824TIP3    H147963   1.535   4.554   0.641 -0.7230  0.0817 -0.4093
 8824TIP3    H247964   1.593   4.646   0.747 -0.4456 -0.7631  0.1852
 8825TIP3   OH247965   3.353   5.920   3.489 -0.3786  0.1787 -0.6801
 8825TIP3    H147966   3.326   6.012   3.493  2.5357  1.1193 -0.2677
 8825TIP3    H247967   3.310   5.885   3.411 -2.2357  1.6192 -0.3590
 8826TIP3   OH247968   1.054   3.210   3.139  0.0089 -0.3300  0.2238
 8826TIP3    H147969   1.139   3.180   3.171  0.0584 -0.7626 -0.3016
 8826TIP3    H247970   1.075   3.274   3.072 -0.0950  1.5201  1.8768
 8827TIP3   OH247971   3.860   3.769  16.266  0.0829 -0.1037 -0.0879
 8827TIP3    H147972   3.895   3.811  16.188  2.1938  0.1634  0.9572
 8827TIP3    H247973   3.802   3.701  16.231 -0.4466  1.1584 -1.8355
 8828TIP3   OH247974   2.295   0.686  13.219  0.1901 -0.5260 -0.3852
 8828TIP3    H147975   2.254   0.756  13.170  1.6248  0.2700 -0.5075
 8828TIP3    H247976   2.306   0.615  13.155 -0.9564 -0.7584 -0.3423
 8829TIP3   OH247977   1.819   4.864   0.793 -0.0747  0.1306 -0.4148
 8829TIP3    H147978   1.742   4.822   0.832  1.9098 -2.3257  1.1762
 8829TIP3    H247979   1.815   4.840   0.700 -1.3609  0.3343 -0.4346
 8830TIP3   OH247980   6.531   0.273  16.062 -0.6821 -0.0568  0.0194
 8830TIP3    H147981   6.512   0.285  16.155 -0.9794  2.0447 -0.2469
 8830TIP3    H247982   6.613   0.223  16.060  0.4614  1.6087  1.5129
 8831TIP3   OH247983   3.786   0.309  13.585  1.0009  0.8199 -0.0963
 8831TIP3    H147984   3.795   0.339  13.675  0.6177 -0.2751  0.3127
 8831TIP3    H247985   3.849   0.363  13.536  0.7919  1.8315  0.7096
 8832TIP3   OH247986   1.346   3.634  10.740 -0.1495  0.4210  0.1764
 8832TIP3    H147987   1.324   3.560  10.796  2.4047  1.2894  2.5262
 8832TIP3    H247988   1.404   3.597  10.673  0.8140  0.2031  1.1135
 8833TIP3   OH247989   1.039   5.516   5.783 -0.2471  0.1729 -0.4350
 8833TIP3    H147990   1.054   5.495   5.875 -0.5747  1.6784 -0.0069
 8833TIP3    H247991   1.031   5.612   5.781  0.1832  0.2077 -2.0917
 8834TIP3   OH247992   1.554   4.783   0.876  0.0484 -0.7090  0.5320
 8834TIP3    H147993   1.543   4.779   0.971 -0.4274  1.4606  0.6101
 8834TIP3    H247994   1.556   4.876   0.856  0.2791 -1.1256 -1.5921
 8835TIP3   OH247995   2.247   2.501  11.617 -0.1260  0.4671 -0.3812
 8835TIP3    H147996   2.337   2.476  11.638  0.4453  1.6574 -1.3241
 8835TIP3    H247997   2.203   2.418  11.598  1.3592  0.0054 -2.0764
 8836TIP3   OH247998   1.291   5.411  12.326  0.5712 -0.0720  0.3147
 8836TIP3    H147999   1.315   5.503  12.323  0.1708  0.0054 -0.6999
 8836TIP3    H248000   1.317   5.383  12.414 -0.2229  1.2511  1.0016
 8837TIP3   OH248001   2.576   4.173   6.058  0.3902  0.3699 -0.0425
 8837TIP3    H148002   2.628   4.253   6.050 -0.9942  1.6924  2.5764
 8837TIP3    H248003   2.639   4.106   6.085  1.2975  0.9793 -0.5828
 8838TIP3   OH248004   0.541   3.928   3.665 -0.0808  0.1630 -0.4080
 8838TIP3    H148005   0.455   3.886   3.664  0.2112 -0.4462 -0.5224
 8838TIP3    H248006   0.529   4.009   3.615 -1.1388  1.2435  1.4564
 8839TIP3   OH248007   3.197   3.784   5.783  0.1557 -0.6079 -0.2014
 8839TIP3    H148008   3.278   3.732   5.786  1.1627  0.8794 -0.6050
 8839TIP3    H248009   3.226   3.874   5.796 -1.5451 -0.1248  0.4354
 8840TIP3   OH248010   1.340   2.400  14.639  0.7878  0.4543  0.1315
 8840TIP3    H148011   1.392   2.470  14.679  0.1253 -0.3083  2.5192
 8840TIP3    H248012   1.278   2.445  14.582  0.8303  1.7667  1.0810
 8841TIP3   OH248013   5.128   2.723   4.358  0.0404 -0.8054 -0.0738
 8841TIP3    H148014   5.090   2.790   4.415 -1.2323  0.1243 -1.9096
 8841TIP3    H248015   5.202   2.689   4.407 -0.5589  0.4498  1.8125
 8842TIP3   OH248016   3.153   3.120   4.219 -0.4004 -0.6692 -0.3797
 8842TIP3    H148017   3.099   3.156   4.289 -0.3569 -3.4650  1.2521
 8842TIP3    H248018   3.091   3.073   4.163 -0.1450 -0.3515 -0.9369
 8843TIP3   OH248019   3.395   3.648   3.585  0.7259  0.0532 -0.1628
 8843TIP3    H148020   3.330   3.622   3.651  0.4449 -1.0703 -0.8606
 8843TIP3    H248021   3.392   3.744   3.586  0.8684  0.0805  1.5892
 8844TIP3   OH248022   4.020   6.605   1.298  0.1797  0.0800  0.4885
 8844TIP3    H148023   3.974   6.604   1.382 -1.9653  0.8920 -0.6076
 8844TIP3    H248024   4.008   6.694   1.265 -0.4707 -0.6713 -1.4085
 8845TIP3   OH248025   6.011   2.697   6.305  0.5326 -0.5302  0.1889
 8845TIP3    H148026   5.971   2.649   6.233 -2.1984  1.9953 -0.1594
 8845TIP3    H248027   6.049   2.629   6.361  0.8457 -2.6968 -2.4719
 8846TIP3   OH248028   2.748   4.529  12.476 -0.0068 -0.0607  0.6037
 8846TIP3    H148029   2.750   4.433  12.470  0.3455 -0.0979  1.2526
 8846TIP3    H248030   2.717   4.557  12.390  2.1433 -0.6483 -0.4366
 8847TIP3   OH248031   4.860   0.060   2.382 -0.7261 -0.2870 -0.0075
 8847TIP3    H148032   4.915  -0.002   2.431  1.3503  1.7336  0.3676
 8847TIP3    H248033   4.791   0.084   2.444 -1.3079 -1.8223 -0.0079
 8848TIP3   OH248034   3.809   4.402   5.599 -0.1022  0.3045 -0.0817
 8848TIP3    H148035   3.761   4.454   5.663  1.4813 -0.9826  2.2767
 8848TIP3    H248036   3.900   4.404   5.629  0.4322 -1.6724 -1.3799
 8849TIP3   OH248037   1.027   1.084   5.561  0.3296  0.0996 -0.3468
 8849TIP3    H148038   1.050   1.176   5.567 -1.1449  0.4504  0.7279
 8849TIP3    H248039   1.025   1.065   5.468 -1.7435  1.8561 -0.7423
 8850TIP3   OH248040   4.229   1.605  11.451  0.2439 -0.4675 -0.0913
 8850TIP3    H148041   4.277   1.675  11.495 -0.3827 -1.1047  1.7196
 8850TIP3    H248042   4.293   1.566  11.391  0.8615  1.0443 -0.4555
 8851TIP3   OH248043   5.669   6.501   3.207 -0.5004 -0.3662  0.9460
 8851TIP3    H148044   5.654   6.595   3.196 -0.7895 -0.4982  0.2091
 8851TIP3    H248045   5.760   6.495   3.236 -0.3319  0.1126  0.5237
 8852TIP3   OH248046   0.745   3.224  13.744  0.3056  0.5873 -0.1068
 8852TIP3    H148047   0.728   3.313  13.712  1.0823  1.6431  2.1932
 8852TIP3    H248048   0.841   3.218  13.748  0.2609 -0.4051 -0.2897
 8853TIP3   OH248049   2.330   0.448   0.596  0.1741  0.5228 -0.5284
 8853TIP3    H148050   2.378   0.369   0.622 -1.9039 -1.3149 -1.9611
 8853TIP3    H248051   2.385   0.520   0.627  2.6451 -1.4389 -0.0168
 8854TIP3   OH248052   3.203   4.299  12.207  0.0843 -0.0507  0.3091
 8854TIP3    H148053   3.146   4.293  12.284  1.1076  0.5825  1.1317
 8854TIP3    H248054   3.170   4.376  12.160  0.1174  0.1877  0.6689
 8855TIP3   OH248055   2.612   6.541  10.891  0.0919  0.1494 -0.6468
 8855TIP3    H148056   2.556   6.480  10.844  0.9525  0.3624 -2.0196
 8855TIP3    H248057   2.576   6.627  10.870  0.3022  0.2286 -0.6830
 8856TIP3   OH248058   6.809   3.468  15.085 -0.2353  0.4746  0.3209
 8856TIP3    H148059   6.806   3.435  15.174 -0.7619 -0.5643 -0.0770
 8856TIP3    H248060   6.858   3.402  15.036 -0.7319  0.5954 -0.3508
 8857TIP3   OH248061   0.234   5.976   6.683 -0.2449 -0.4014  0.4537
 8857TIP3    H148062   0.241   5.943   6.593 -1.1448  0.4507  0.0511
 8857TIP3    H248063   0.316   5.951   6.724  0.5709 -0.0109 -0.8778
 8858TIP3   OH248064   3.808   0.029  13.526 -0.4099  0.0792 -0.4598
 8858TIP3    H148065   3.883  -0.022  13.557  0.0748 -0.2374 -2.0800
 8858TIP3    H248066   3.811   0.109  13.579 -0.1632 -0.8097  0.9153
 8859TIP3   OH248067   3.993   3.568   0.984  0.2399 -0.5897  0.1576
 8859TIP3    H148068   4.036   3.484   0.967 -1.5177 -1.5038 -0.0579
 8859TIP3    H248069   4.058   3.619   1.032  1.0673 -2.4095  1.0903
 8860TIP3   OH248070   6.535   0.023   1.078  0.0687  0.0602  0.2198
 8860TIP3    H148071   6.545  -0.066   1.046  0.3516  0.0915  0.2184
 8860TIP3    H248072   6.544   0.016   1.173  0.8150  0.1809  0.1676
 8861TIP3   OH248073   1.283   5.611  16.277  0.0598 -0.1857  0.6980
 8861TIP3    H148074   1.198   5.603  16.235  0.1629 -0.4439  0.5345
 8861TIP3    H248075   1.279   5.550  16.351 -0.1838  0.3939  1.1707
 8862TIP3   OH248076   4.290   3.167   2.362 -0.2866 -0.0626 -0.3900
 8862TIP3    H148077   4.353   3.174   2.291  0.2594  0.1812  0.1086
 8862TIP3    H248078   4.208   3.201   2.325 -1.2331 -3.7871 -2.2685
 8863TIP3   OH248079   1.715   6.708   4.409  0.4565  0.4985  0.1992
 8863TIP3    H148080   1.808   6.683   4.405  0.3899  0.2969 -0.0912
 8863TIP3    H248081   1.704   6.767   4.334  0.3243  0.4391  0.1733
 8864TIP3   OH248082   0.496   0.133   4.145 -0.2074 -0.4415 -0.4078
 8864TIP3    H148083   0.480   0.217   4.103 -1.7085 -0.4636  0.0664
 8864TIP3    H248084   0.447   0.069   4.092  0.3365 -0.9090 -0.3546
 8865TIP3   OH248085   0.732   6.317   1.927  0.0278 -0.1124 -0.1630
 8865TIP3    H148086   0.683   6.301   2.008  1.3271  1.6915  1.0506
 8865TIP3    H248087   0.673   6.286   1.857 -1.7908 -0.2686  1.3563
 8866TIP3   OH248088   4.202   5.121   2.835 -0.4777  0.3641 -0.6016
 8866TIP3    H148089   4.236   5.175   2.763  1.5050  1.1101  0.7995
 8866TIP3    H248090   4.146   5.056   2.792 -0.2081  1.4226 -2.6949
 8867TIP3   OH248091   2.438   6.345  12.642  0.2802  0.1300 -0.7774
 8867TIP3    H148092   2.437   6.409  12.713 -3.3652  0.8792 -1.2915
 8867TIP3    H248093   2.442   6.398  12.562  1.0050 -0.5186 -1.1815
 8868TIP3   OH248094   1.150   5.090   1.770 -0.8202  0.6806 -0.7422
 8868TIP3    H148095   1.181   5.025   1.707  0.6227  1.0796 -0.4838
 8868TIP3    H248096   1.059   5.106   1.746 -1.0745 -1.0926 -1.0802
 8869TIP3   OH248097   4.147   1.689  12.237  0.1992  1.0507  0.4331
 8869TIP3    H148098   4.201   1.704  12.159 -1.4676  0.7568 -0.8227
 8869TIP3    H248099   4.117   1.776  12.263  0.9782  1.1807  0.9575
 8870TIP3   OH248100   4.700   1.929   2.914 -0.1029 -0.3314  0.2138
 8870TIP3    H148101   4.760   1.875   2.965  0.1127 -0.3395 -0.0401
 8870TIP3    H248102   4.621   1.876   2.904  0.0954 -0.5877 -0.0052
 8871TIP3   OH248103   1.038   3.382  15.840 -0.2413  0.1815  0.1910
 8871TIP3    H148104   0.981   3.306  15.835 -1.4115  1.1063 -3.3379
 8871TIP3    H248105   0.979   3.455  15.861  0.2209  0.6464 -0.0916
 8872TIP3   OH248106   3.548   3.341   6.252  0.5487  0.1590 -0.7654
 8872TIP3    H148107   3.609   3.275   6.283  1.6451  0.5869 -1.9540
 8872TIP3    H248108   3.596   3.389   6.185 -0.6753  1.3095 -0.8545
 8873TIP3   OH248109   1.649   0.720  13.961  0.2020  0.0186  0.0504
 8873TIP3    H148110   1.726   0.745  14.012 -0.7603 -2.1268  2.7975
 8873TIP3    H248111   1.575   0.745  14.015 -0.9663 -0.4203 -1.2823
 8874TIP3   OH248112   0.344   3.032   3.468  0.2400  0.0962 -0.2489
 8874TIP3    H148113   0.290   2.954   3.456  0.0513  0.3178 -0.8772
 8874TIP3    H248114   0.432   2.999   3.486 -0.0578 -0.2683  0.5683
 8875TIP3   OH248115   1.455   2.419   3.621 -0.4832 -0.2772  0.1599
 8875TIP3    H148116   1.468   2.512   3.639  0.9469 -0.2590 -0.7569
 8875TIP3    H248117   1.496   2.374   3.695 -0.0883 -0.1671  0.0129
 8876TIP3   OH248118   1.381   4.248   1.882 -0.3826  0.3039 -0.2214
 8876TIP3    H148119   1.332   4.166   1.879 -0.7240  0.5054 -0.0795
 8876TIP3    H248120   1.447   4.234   1.950  0.8434 -0.5723 -1.5243
 8877TIP3   OH248121   5.630   1.680   6.029 -0.3963 -0.2539  0.3728
 8877TIP3    H148122   5.725   1.686   6.025 -0.2854  0.0142  2.4167
 8877TIP3    H248123   5.612   1.586   6.041 -0.3564 -0.2565  0.4122
 8878TIP3   OH248124   0.707   1.628   4.099  0.5446  0.0039 -0.3231
 8878TIP3    H148125   0.617   1.597   4.102  0.4287  0.3929  0.9597
 8878TIP3    H248126   0.737   1.624   4.190  1.6573  0.3545 -0.6528
 8879TIP3   OH248127   1.814   2.026   1.726 -0.7404 -0.2994  0.0829
 8879TIP3    H148128   1.803   2.094   1.792 -0.5619 -0.0845 -0.1093
 8879TIP3    H248129   1.907   2.029   1.704 -0.6804 -0.7787  0.2653
 8880TIP3   OH248130   1.650   2.746   1.427 -0.5379  0.5358  0.1968
 8880TIP3    H148131   1.606   2.830   1.413 -0.2226  0.9800  1.7413
 8880TIP3    H248132   1.579   2.681   1.423 -0.9548  0.9861  0.1490
 8881TIP3   OH248133   6.645   5.335  14.143 -0.6164 -0.2278  0.3969
 8881TIP3    H148134   6.618   5.381  14.063  1.3607  0.4742  0.0621
 8881TIP3    H248135   6.730   5.374  14.164 -0.2703 -1.6805  1.8244
 8882TIP3   OH248136   4.355   2.619   6.651 -0.4040  0.0339 -0.9680
 8882TIP3    H148137   4.296   2.631   6.577 -0.5217  0.0787 -0.8671
 8882TIP3    H248138   4.373   2.708   6.682 -1.2245 -0.0359 -0.2619
 8883TIP3   OH248139   0.885   4.750   1.160 -0.1146 -0.3604 -0.9369
 8883TIP3    H148140   0.950   4.790   1.103  1.4974 -0.2750  0.8442
 8883TIP3    H248141   0.859   4.670   1.114 -0.4789  0.7402 -2.7304
 8884TIP3   OH248142   1.907   3.922   4.245  0.0526  0.3581 -0.3593
 8884TIP3    H148143   1.882   3.846   4.297  1.3384  0.0444 -0.1530
 8884TIP3    H248144   1.989   3.952   4.284  1.0805  0.0916 -2.1836
 8885TIP3   OH248145   2.956   3.663  16.984 -0.1732  0.4303  0.3114
 8885TIP3    H148146   2.956   3.577  17.026 -0.5984 -0.3392 -1.2147
 8885TIP3    H248147   2.866   3.675  16.952  0.5686  0.0918 -2.0974
 8886TIP3   OH248148   2.703   5.974   5.203 -0.2614 -0.4216 -0.2904
 8886TIP3    H148149   2.774   5.975   5.138  0.3671 -1.5026  0.3413
 8886TIP3    H248150   2.654   5.895   5.183  0.7425 -1.5206  1.3377
 8887TIP3   OH248151   0.664   2.528   4.927  0.2959 -0.2334 -0.6229
 8887TIP3    H148152   0.743   2.478   4.945 -0.4314 -1.5039 -0.8748
 8887TIP3    H248153   0.663   2.538   4.831  0.2103 -0.1191 -0.6103
 8888TIP3   OH248154   3.337   0.029   0.996  0.0197  0.3356  0.3633
 8888TIP3    H148155   3.291  -0.008   0.921  0.0534  1.2074 -0.1076
 8888TIP3    H248156   3.269   0.076   1.045 -0.0540 -0.4588  1.0334
 8889TIP3   OH248157   3.804   6.205   1.046 -0.7184  0.4118  0.0906
 8889TIP3    H148158   3.746   6.198   0.970 -0.0012  0.8028 -0.4967
 8889TIP3    H248159   3.882   6.155   1.022 -0.4659  0.5843  0.5505
 8890TIP3   OH248160   1.158   0.998   1.906  0.1908  0.6771 -0.0550
 8890TIP3    H148161   1.211   0.963   1.834 -0.3665 -0.8273  0.2262
 8890TIP3    H248162   1.205   1.076   1.935  2.0011 -0.3187 -0.1527
 8891TIP3   OH248163   4.068   4.777   5.281 -0.1952 -0.8133  0.2203
 8891TIP3    H148164   4.056   4.838   5.354  0.8927  0.8434 -0.8989
 8891TIP3    H248165   4.025   4.820   5.207  1.6457 -0.7710 -0.8915
 8892TIP3   OH248166   6.598   1.589  14.985 -0.0392 -0.4823  0.4982
 8892TIP3    H148167   6.581   1.666  15.040 -1.4423 -1.6608  1.8131
 8892TIP3    H248168   6.650   1.623  14.912  0.2063  1.5246  1.5248
 8893TIP3   OH248169   5.496   4.168  10.679 -0.4084  0.5264  0.5614
 8893TIP3    H148170   5.433   4.202  10.743  1.3577 -0.8039  3.1809
 8893TIP3    H248171   5.557   4.240  10.666 -0.6561  0.7348  0.5426
 8894TIP3   OH248172   0.365   3.597   2.523  0.0722 -0.1360 -0.2945
 8894TIP3    H148173   0.289   3.633   2.478 -0.4390 -0.1555  0.5449
 8894TIP3    H248174   0.385   3.516   2.477  0.3560  0.4931 -1.3034
 8895TIP3   OH248175   1.045   6.220  16.376 -0.6391  0.0902 -0.0166
 8895TIP3    H148176   0.984   6.146  16.376 -1.5980  0.8000 -2.3405
 8895TIP3    H248177   1.127   6.184  16.342  0.0971 -0.6880  2.3846
 8896TIP3   OH248178   0.679   0.161   0.270 -0.6497  0.1450  0.0706
 8896TIP3    H148179   0.766   0.198   0.286 -0.0460  0.1577 -2.7336
 8896TIP3    H248180   0.683   0.073   0.307  0.6641  0.0522 -0.2447
 8897TIP3   OH248181   2.321   3.904  12.977  0.0911 -0.2727 -0.1238
 8897TIP3    H148182   2.240   3.941  12.941  0.2476  0.3141  0.1299
 8897TIP3    H248183   2.322   3.932  13.068  0.1346 -1.0338  0.1181
 8898TIP3   OH248184   0.752   5.602   5.686 -0.0407 -0.6269  0.0071
 8898TIP3    H148185   0.804   5.641   5.616  0.0204  0.0806  0.4346
 8898TIP3    H248186   0.754   5.508   5.668  0.1876 -0.4785 -0.7882
 8899TIP3   OH248187   3.237   0.051   5.294  0.4873  0.4931 -0.0438
 8899TIP3    H148188   3.192   0.047   5.209  1.3882  0.7364 -0.5512
 8899TIP3    H248189   3.178   0.099   5.351 -1.3965 -2.0261  0.3092
 8900TIP3   OH248190   5.338   1.753  12.731 -0.1437  0.7521  0.8501
 8900TIP3    H148191   5.253   1.783  12.700 -0.1069  0.8720  0.8651
 8900TIP3    H248192   5.384   1.833  12.755  1.1588  1.0282 -2.0979
 8901TIP3   OH248193   4.811   1.275   3.432 -0.1172  0.5483 -0.5107
 8901TIP3    H148194   4.728   1.254   3.389 -0.3075 -0.8085  0.4751
 8901TIP3    H248195   4.841   1.354   3.387 -1.5993  0.6805 -1.3445
 8902TIP3   OH248196   1.283   0.707   5.936 -0.2725  0.2338  0.0158
 8902TIP3    H148197   1.227   0.677   5.864  0.8135 -0.3829 -0.6025
 8902TIP3    H248198   1.262   0.648   6.009  0.5574 -0.9407 -0.6490
 8903TIP3   OH248199   0.815   0.206  15.598  0.0872  0.1045 -0.0136
 8903TIP3    H148200   0.731   0.248  15.578  0.2638  0.1740 -0.6107
 8903TIP3    H248201   0.881   0.269  15.568  0.3572  0.0891  0.5341
 8904TIP3   OH248202   6.688   4.813  15.468  0.1815 -0.3150 -0.4854
 8904TIP3    H148203   6.713   4.903  15.451  1.3800 -0.7287 -0.9674
 8904TIP3    H248204   6.764   4.761  15.443 -0.8959 -1.5613 -1.2922
 8905TIP3   OH248205   4.527   4.502  12.590  0.0134  0.2155 -0.2671
 8905TIP3    H148206   4.560   4.559  12.660  0.2939 -0.2903  0.0169
 8905TIP3    H248207   4.487   4.428  12.637  0.1074 -0.0736 -0.6424
 8906TIP3   OH248208   3.164   2.934   3.131 -0.0325 -0.5192  0.1582
 8906TIP3    H148209   3.100   2.870   3.162 -0.5541 -0.4877 -0.7947
 8906TIP3    H248210   3.121   2.976   3.056  0.9703 -0.2533 -0.2884
 8907TIP3   OH248211   5.506   4.958   6.048  0.4690  0.4829 -0.2037
 8907TIP3    H148212   5.447   5.025   6.081  0.1682  0.6727 -1.0945
 8907TIP3    H248213   5.592   4.984   6.078  0.3339  1.1984 -0.4190
 8908TIP3   OH248214   3.565   6.070   1.306  0.1145  0.0103  0.1515
 8908TIP3    H148215   3.512   6.150   1.311  1.1525  0.8368 -1.4379
 8908TIP3    H248216   3.655   6.101   1.311  0.5135 -1.3336  2.2178
 8909TIP3   OH248217   0.822   0.083  13.277 -0.0789 -0.1976 -0.0419
 8909TIP3    H148218   0.800   0.019  13.345  0.8480 -0.2085  0.2569
 8909TIP3    H248219   0.907   0.118  13.303 -0.7744  1.5197  0.0527
 8910TIP3   OH248220   0.592   2.386  12.471 -0.4672  0.0404 -0.3697
 8910TIP3    H148221   0.583   2.380  12.566  1.2011 -0.6921 -0.2103
 8910TIP3    H248222   0.687   2.393  12.457 -0.6247 -0.6585 -2.0118
 8911TIP3   OH248223   5.541   0.276  11.270  0.4983 -0.2756 -0.0857
 8911TIP3    H148224   5.612   0.242  11.215 -1.0693 -0.9660 -1.7931
 8911TIP3    H248225   5.489   0.199  11.291 -2.0221  0.6667 -2.3666
 8912TIP3   OH248226   3.971   0.049  14.831 -0.1795 -0.0658  0.0234
 8912TIP3    H148227   3.954  -0.034  14.787 -1.0839  1.0357 -1.8148
 8912TIP3    H248228   4.063   0.044  14.857  1.0552 -0.1020 -3.7278
 8913TIP3   OH248229   6.355   5.045   1.883  0.1100  0.1630 -0.1894
 8913TIP3    H148230   6.398   5.002   1.809 -0.1383 -2.2701  0.9853
 8913TIP3    H248231   6.266   5.064   1.852  0.3351  0.1638 -0.8415
 8914TIP3   OH248232   5.073   1.744  12.606  0.3066 -0.0447 -0.4157
 8914TIP3    H148233   5.053   1.837  12.592  0.5502 -0.0457 -0.7892
 8914TIP3    H248234   4.989   1.700  12.597  0.3207  0.0508 -1.0738
 8915TIP3   OH248235   6.357   4.896   3.903 -0.4553  0.0095  0.2341
 8915TIP3    H148236   6.395   4.830   3.844 -0.0041 -0.4358  1.0151
 8915TIP3    H248237   6.430   4.928   3.954 -0.7566  0.8047  0.1757
 8916TIP3   OH248238   1.741   1.248   1.043 -0.8607  0.0842  0.6727
 8916TIP3    H148239   1.809   1.183   1.064  0.1167  0.3284 -1.4364
 8916TIP3    H248240   1.664   1.195   1.022  0.1870 -0.5463 -1.9344
 8917TIP3   OH248241   2.972   4.058   2.639  0.7717 -0.2276  0.5577
 8917TIP3    H148242   3.009   4.132   2.590  0.6627 -0.2949  0.3709
 8917TIP3    H248243   2.979   4.084   2.731  0.8427 -0.0358  0.4992
 8918TIP3   OH248244   4.459   5.863   0.973 -0.4762 -0.1182 -0.0597
 8918TIP3    H148245   4.512   5.827   0.902 -0.6940 -0.2178 -0.1702
 8918TIP3    H248246   4.481   5.956   0.974 -0.1846 -0.1855 -0.0073
 8919TIP3   OH248247   5.900   6.259   5.124 -0.0633 -0.0447 -0.4916
 8919TIP3    H148248   5.811   6.295   5.119 -0.1687 -0.2896 -0.3688
 8919TIP3    H248249   5.955   6.328   5.088 -0.2614  0.2694 -0.2044
 8920TIP3   OH248250   0.776   4.092  12.648  0.0317 -0.4000  0.6643
 8920TIP3    H148251   0.756   4.158  12.581  2.1469 -0.9586 -0.6434
 8920TIP3    H248252   0.708   4.102  12.713 -0.0919  2.6739  0.2113
 8921TIP3   OH248253   3.114   3.720   1.434  0.5553 -0.7178 -0.0476
 8921TIP3    H148254   3.190   3.740   1.379  1.2957 -1.2821  0.7482
 8921TIP3    H248255   3.120   3.626   1.450 -0.0560 -0.6864  0.4020
 8922TIP3   OH248256   4.628   4.083   6.408 -0.3865 -0.0410 -0.6180
 8922TIP3    H148257   4.694   4.139   6.369  0.0316 -0.9647 -1.2770
 8922TIP3    H248258   4.653   3.994   6.382 -0.5648 -0.6171  1.0735
 8923TIP3   OH248259   4.340   6.033   0.466  0.9751  0.0691 -0.0617
 8923TIP3    H148260   4.311   6.078   0.386  0.3689 -0.6772 -0.2773
 8923TIP3    H248261   4.272   5.968   0.482  1.0980  0.2003  1.0657
 8924TIP3   OH248262   1.917   4.075   3.521  0.0292 -0.3856  0.3042
 8924TIP3    H148263   1.982   4.093   3.588  1.4424  0.6935 -1.2615
 8924TIP3    H248264   1.930   3.982   3.499 -0.8476 -0.9076  1.8707
 8925TIP3   OH248265   1.847   5.986   5.061 -0.4636  0.0322  0.3593
 8925TIP3    H148266   1.930   6.022   5.093  0.1203  0.0984 -1.1487
 8925TIP3    H248267   1.842   5.899   5.102  0.4079 -0.0197  0.3821
 8926TIP3   OH248268   1.500   0.249  13.012  0.2301  0.6039 -0.5347
 8926TIP3    H148269   1.565   0.248  13.082 -0.1087 -1.6640 -0.1530
 8926TIP3    H248270   1.416   0.254  13.058  0.0636  2.1711 -0.9611
 8927TIP3   OH248271   4.470   2.737   1.944  0.3912  0.0663 -0.2010
 8927TIP3    H148272   4.413   2.661   1.956  0.4583 -0.0431 -0.5846
 8927TIP3    H248273   4.553   2.701   1.915  0.2776  0.3195 -0.8520
 8928TIP3   OH248274   4.058   3.260   5.865  0.4556 -0.0278 -0.9618
 8928TIP3    H148275   4.044   3.292   5.954  2.5813 -3.5554  0.8952
 8928TIP3    H248276   4.001   3.313   5.811 -3.4318  0.2750  2.8760
 8929TIP3   OH248277   2.115   5.782   2.360  0.4459  0.1944  0.2981
 8929TIP3    H148278   2.167   5.773   2.279 -0.5647 -1.3175 -0.2183
 8929TIP3    H248279   2.154   5.720   2.421  0.0022 -0.0672  0.3186
 8930TIP3   OH248280   4.268   1.336   2.048  0.5813 -0.0155 -0.6326
 8930TIP3    H148281   4.337   1.342   1.982  1.7797  1.2994  0.6924
 8930TIP3    H248282   4.308   1.290   2.121 -0.4997 -0.7889 -0.5081
 8931TIP3   OH248283   5.008   5.568   2.034  0.5102 -0.3988 -0.2107
 8931TIP3    H148284   4.971   5.651   2.063 -3.3488 -1.7267 -0.7486
 8931TIP3    H248285   5.058   5.536   2.109  0.4432  1.4823  0.6894
 8932TIP3   OH248286   5.223   2.081  13.035 -0.1660  0.4022 -0.6337
 8932TIP3    H148287   5.166   2.029  13.091  0.7159 -0.0883 -0.1596
 8932TIP3    H248288   5.309   2.040  13.044  0.1167  0.6678 -1.9044
 8933TIP3   OH248289   4.425   6.297   4.333  0.2627  0.3303  0.1997
 8933TIP3    H148290   4.506   6.330   4.293 -0.1567  0.2936 -0.7052
 8933TIP3    H248291   4.356   6.352   4.296 -0.5432 -1.8180 -1.8247
 8934TIP3   OH248292   0.981   2.923  16.269 -0.4310  0.7402 -0.1529
 8934TIP3    H148293   1.054   2.875  16.308  0.2318  2.0612  0.2869
 8934TIP3    H248294   0.905   2.898  16.322 -0.2848 -0.4867 -0.4881
 8935TIP3   OH248295   0.383   4.861   1.010  0.1511  0.3430 -0.2598
 8935TIP3    H148296   0.473   4.895   1.003 -0.3443  2.0736  1.0440
 8935TIP3    H248297   0.332   4.916   0.952  0.1176 -1.6939 -2.2964
 8936TIP3   OH248298   1.123   2.944   5.045  0.1286 -0.3242  0.1988
 8936TIP3    H148299   1.153   2.853   5.052  0.7436 -0.0917  0.6068
 8936TIP3    H248300   1.132   2.964   4.952  2.7070  0.2089  0.4784
 8937TIP3   OH248301   5.108   0.298  16.846  0.7326 -0.1535 -0.3579
 8937TIP3    H148302   5.080   0.222  16.897  1.7978 -0.5034 -0.2655
 8937TIP3    H248303   5.050   0.369  16.873 -0.1052 -0.8631 -0.2527
 8938TIP3   OH248304   4.716   1.354  14.256  0.1368  0.1553  0.5995
 8938TIP3    H148305   4.737   1.447  14.247 -0.7099  0.4777  1.7032
 8938TIP3    H248306   4.661   1.335  14.179  1.7755  0.0804 -0.6039
 8939TIP3   OH248307   1.947   5.302   1.579 -0.3681 -0.3065  0.1564
 8939TIP3    H148308   1.918   5.219   1.615 -0.0207  0.1794  1.6401
 8939TIP3    H248309   2.036   5.314   1.614 -0.6937  1.0245  0.6151
 8940TIP3   OH248310   5.497   4.015  15.092  0.3476  0.5314 -0.7472
 8940TIP3    H148311   5.420   3.966  15.120  1.2597 -0.6512 -0.2779
 8940TIP3    H248312   5.467   4.106  15.091 -1.2596  0.0303 -1.2783
 8941TIP3   OH248313   2.403   3.109   0.994  0.0246  0.3722  0.4238
 8941TIP3    H148314   2.492   3.120   1.027  1.2323  0.8533 -2.6618
 8941TIP3    H248315   2.356   3.187   1.024  0.6269  0.1644  1.9845
 8942TIP3   OH248316   1.532   0.595   4.988  0.0413 -0.0065 -0.4884
 8942TIP3    H148317   1.544   0.512   4.943 -0.1173 -0.0774 -0.3989
 8942TIP3    H248318   1.494   0.572   5.073  1.0855  0.0467  0.0169
 8943TIP3   OH248319   0.069   1.295  13.286 -0.2739 -0.1033 -0.2563
 8943TIP3    H148320   0.078   1.218  13.341  2.9085  0.2090 -0.1673
 8943TIP3    H248321   0.091   1.265  13.198 -3.8950 -0.2701 -1.2693
 8944TIP3   OH248322   1.619   3.738  11.071  0.7663 -0.7462 -0.7032
 8944TIP3    H148323   1.688   3.700  11.018 -0.0633 -0.2595 -2.1982
 8944TIP3    H248324   1.579   3.805  11.015 -0.7361 -0.8265  0.1986
 8945TIP3   OH248325   4.743   0.734  12.106 -0.1312  0.0158 -0.0400
 8945TIP3    H148326   4.827   0.753  12.064  1.3668 -3.5258  0.9538
 8945TIP3    H248327   4.760   0.747  12.199 -1.1544  0.5937  0.0843
 8946TIP3   OH248328   1.697   3.676   4.566  0.1135 -0.1769 -0.4097
 8946TIP3    H148329   1.633   3.697   4.497  1.5091  1.2072 -1.3416
 8946TIP3    H248330   1.768   3.632   4.520  0.8202  0.2782  0.2325
 8947TIP3   OH248331   2.092   1.954   3.668  0.5764 -0.0265  0.1541
 8947TIP3    H148332   2.031   1.900   3.619  0.1693  0.7399 -0.2085
 8947TIP3    H248333   2.038   2.021   3.709  0.9950 -0.2409  1.0989
 8948TIP3   OH248334   6.577   6.796  11.833  0.2881  0.3612 -0.1313
 8948TIP3    H148335   6.581   6.791  11.928 -1.3795  2.0900  0.1036
 8948TIP3    H248336   6.611   6.712  11.802  2.2074  0.3007  1.9086
 8949TIP3   OH248337   5.996   3.109   0.952 -0.2287 -0.4073  0.4011
 8949TIP3    H148338   6.011   3.199   0.980  0.0984 -1.2085  3.1531
 8949TIP3    H248339   5.921   3.114   0.892  0.0799  1.7221  0.1286
 8950TIP3   OH248340   3.692   1.430   4.581 -0.3562 -0.0184 -0.1592
 8950TIP3    H148341   3.731   1.512   4.612 -1.4979  0.8103 -0.8395
 8950TIP3    H248342   3.657   1.389   4.660  1.3057 -0.4850  0.3709
 8951TIP3   OH248343   4.176   4.739   0.940 -0.2378  0.4212 -0.5630
 8951TIP3    H148344   4.207   4.775   1.024 -1.7880  1.8108 -0.5401
 8951TIP3    H248345   4.199   4.805   0.876 -1.9098  0.8926 -0.7298
 8952TIP3   OH248346   4.498   6.454   1.791 -0.2259 -0.1043  0.1468
 8952TIP3    H148347   4.592   6.450   1.807 -0.0490 -2.8367 -0.9361
 8952TIP3    H248348   4.468   6.364   1.807 -2.3787  0.3541 -0.9790
 8953TIP3   OH248349   6.284   5.428   4.708  0.2638 -0.3949  0.1886
 8953TIP3    H148350   6.250   5.515   4.731  0.0387 -0.6215  0.7321
 8953TIP3    H248351   6.206   5.375   4.692  0.4170 -0.2826 -0.9712
 8954TIP3   OH248352   1.210   6.617   3.617 -0.0038  0.1631  0.0145
 8954TIP3    H148353   1.272   6.660   3.676  0.9266 -0.6736 -0.3163
 8954TIP3    H248354   1.265   6.577   3.550 -0.7483 -1.8634  0.5242
 8955TIP3   OH248355   4.180   2.409  14.279  0.2162  0.2147 -0.3106
 8955TIP3    H148356   4.258   2.462  14.297  0.7687 -0.4518 -0.7199
 8955TIP3    H248357   4.150   2.440  14.194  0.3805  0.0525 -0.4266
 8956TIP3   OH248358   2.762   6.197  17.101  0.1903 -0.1188  0.3913
 8956TIP3    H148359   2.827   6.244  17.154  0.6921 -0.3561  0.0003
 8956TIP3    H248360   2.758   6.248  17.020  0.2935 -0.4122  0.2020
 8957TIP3   OH248361   0.142   2.815  12.249  0.3076 -0.0045 -0.2848
 8957TIP3    H148362   0.049   2.816  12.225  0.5981 -2.5102 -1.8530
 8957TIP3    H248363   0.150   2.739  12.307  1.2288  0.7862  0.6565
 8958TIP3   OH248364   5.435   5.082  15.681  0.3729  0.2358 -0.2456
 8958TIP3    H148365   5.431   5.138  15.603  0.6541  2.4783  1.2649
 8958TIP3    H248366   5.510   5.115  15.730 -0.2187 -0.6717  1.3200
 8959TIP3   OH248367   1.973   0.732  16.554  0.0310  0.0050 -0.3970
 8959TIP3    H148368   2.045   0.671  16.534 -0.1274 -0.0116 -0.9282
 8959TIP3    H248369   1.909   0.678  16.601 -0.1462 -0.2660 -0.9373
 8960TIP3   OH248370   1.248   2.831  16.277 -0.1315 -0.1178  0.2627
 8960TIP3    H148371   1.268   2.760  16.215  0.5613 -0.3400  0.7328
 8960TIP3    H248372   1.334   2.862  16.306 -0.4200 -1.1429  2.3847
 8961TIP3   OH248373   3.810   5.676   5.741 -0.0035 -0.2651  0.0322
 8961TIP3    H148374   3.843   5.595   5.780  0.8730 -0.2101 -0.5774
 8961TIP3    H248375   3.888   5.728   5.723 -0.5952  1.1542  1.3056
 8962TIP3   OH248376   6.184   4.013   1.206 -0.1200  0.5265  0.4874
 8962TIP3    H148377   6.117   4.042   1.267 -1.7323  0.3694 -1.1048
 8962TIP3    H248378   6.253   4.079   1.211 -1.0906  1.5114  1.0689
 8963TIP3   OH248379   1.903   0.401  14.184 -0.3155 -0.5300 -0.8193
 8963TIP3    H148380   1.917   0.485  14.140 -0.0512 -1.3292 -2.3339
 8963TIP3    H248381   1.991   0.375  14.213 -0.4932  0.0095  0.2648
 8964TIP3   OH248382   0.255   5.838  11.979  0.3535 -0.5871 -0.3066
 8964TIP3    H148383   0.343   5.803  11.994  0.2226 -0.8424 -0.1311
 8964TIP3    H248384   0.197   5.775  12.022  0.0958 -0.3353 -0.2876
 8965TIP3   OH248385   3.575   3.419   0.565  0.3111 -0.2377 -0.2302
 8965TIP3    H148386   3.616   3.500   0.535  1.3490 -0.4053  0.6530
 8965TIP3    H248387   3.510   3.447   0.630  1.0455 -0.1198  0.4747
 8966TIP3   OH248388   5.816   4.558  13.003 -0.1119 -0.0274 -0.9033
 8966TIP3    H148389   5.891   4.520  13.048  0.8234  2.1277 -0.5319
 8966TIP3    H248390   5.793   4.635  13.055 -2.7105 -0.6813 -0.9313
 8967TIP3   OH248391   4.337   3.114   1.371  0.5538 -0.0041  0.2462
 8967TIP3    H148392   4.344   3.018   1.374 -1.0296 -0.1345  1.0672
 8967TIP3    H248393   4.339   3.141   1.463 -0.6155  0.5940  0.1132
 8968TIP3   OH248394   3.295   2.503  16.553 -0.0676  0.4125 -0.2435
 8968TIP3    H148395   3.249   2.585  16.570  0.7768  0.6569  1.0435
 8968TIP3    H248396   3.267   2.444  16.623  1.0808  0.3757  0.2161
 8969TIP3   OH248397   4.256   1.759  15.754 -0.0167 -0.0223  0.1401
 8969TIP3    H148398   4.212   1.753  15.839  1.2784 -2.8441  0.7301
 8969TIP3    H248399   4.348   1.770  15.776  0.1860  0.5901 -0.9543
 8970TIP3   OH248400   4.771   6.020  15.112  0.2870  0.2837 -0.1661
 8970TIP3    H148401   4.793   6.041  15.203 -0.1222 -1.1658  0.3096
 8970TIP3    H248402   4.772   5.924  15.109 -0.1184  0.2968 -1.5897
 8971TIP3   OH248403   4.586   6.029   1.183  0.1634 -0.0584 -0.1255
 8971TIP3    H148404   4.651   5.974   1.227  0.2867  0.7959  0.7871
 8971TIP3    H248405   4.522   5.967   1.149  0.8253 -0.8328  0.0057
 8972TIP3   OH248406   6.175   6.738  16.692  0.3141  0.8555  0.1531
 8972TIP3    H148407   6.227   6.765  16.617 -0.6670  0.5593 -0.6455
 8972TIP3    H248408   6.096   6.791  16.687  0.9504  2.0760  1.9533
 8973TIP3   OH248409   2.699   5.043  13.830  0.4828  0.0036 -0.5075
 8973TIP3    H148410   2.770   4.979  13.838 -0.0754 -0.4966  0.7142
 8973TIP3    H248411   2.676   5.041  13.737  1.4374 -0.5047 -0.7529
 8974TIP3   OH248412   6.644   5.704   2.986  0.2652 -0.2339  0.4640
 8974TIP3    H148413   6.722   5.663   3.022  1.9096  1.2771 -1.1488
 8974TIP3    H248414   6.636   5.786   3.035  0.7402  0.4131 -0.5132
 8975TIP3   OH248415   0.637   2.013   3.954 -0.3657 -0.0648  0.2835
 8975TIP3    H148416   0.561   2.070   3.968 -1.5677 -1.9631  2.1947
 8975TIP3    H248417   0.699   2.067   3.905 -1.1645  3.0879  2.4350
 8976TIP3   OH248418   2.854   5.178  14.183  0.6643  0.0672  0.2999
 8976TIP3    H148419   2.840   5.159  14.276 -0.5352 -1.7226 -0.2041
 8976TIP3    H248420   2.910   5.107  14.153 -2.6892 -2.1379 -1.3122
 8977TIP3   OH248421   3.506   1.290   6.278  0.9739  0.3196 -0.7078
 8977TIP3    H148422   3.528   1.243   6.198 -1.2121  0.6783 -1.5743
 8977TIP3    H248423   3.433   1.240   6.316  1.1091  0.9048  0.3721
 8978TIP3   OH248424   5.214   6.379  13.667 -0.4220  0.5463 -0.2186
 8978TIP3    H148425   5.183   6.377  13.577  2.9600  0.4641 -1.5204
 8978TIP3    H248426   5.192   6.292  13.702  0.4802 -0.4132 -1.8845
 8979TIP3   OH248427   4.075   5.934  15.713 -0.1430 -0.1928  0.1795
 8979TIP3    H148428   4.039   6.021  15.694 -0.2194 -0.3686 -0.4834
 8979TIP3    H248429   4.125   5.910  15.635 -0.4810 -0.9361  0.1850
 8980TIP3   OH248430   6.112   5.954   3.573  0.6667  0.1527  0.3808
 8980TIP3    H148431   6.124   5.971   3.666 -2.0362 -0.1430  0.8794
 8980TIP3    H248432   6.077   5.865   3.569 -2.0558  1.1557 -0.5649
 8981TIP3   OH248433   1.347   1.488   0.073  0.1241  0.1317  0.0295
 8981TIP3    H148434   1.280   1.531   0.126  0.3546  3.4414 -2.0179
 8981TIP3    H248435   1.317   1.399   0.061 -1.3612  0.1015  3.2052
 8982TIP3   OH248436   4.740   5.034  16.054 -0.0194  0.0816  0.3767
 8982TIP3    H148437   4.725   5.129  16.051 -1.6965 -0.1658 -1.5950
 8982TIP3    H248438   4.825   5.022  16.011 -0.1155  0.6516  0.0191
 8983TIP3   OH248439   2.881   3.294  13.071  0.9264 -0.4075  0.0818
 8983TIP3    H148440   2.843   3.331  12.991  0.8669 -0.4399  0.0956
 8983TIP3    H248441   2.861   3.358  13.139  0.4925 -0.6451  0.1773
 8984TIP3   OH248442   5.645   1.524   1.301  0.0949  0.2479 -0.3600
 8984TIP3    H148443   5.601   1.536   1.385 -0.8977 -1.3890 -0.5984
 8984TIP3    H248444   5.653   1.612   1.265 -0.0547  0.9031  1.1574
 8985TIP3   OH248445   5.076   2.000  10.636  0.5873  0.4112  0.5163
 8985TIP3    H148446   5.171   1.996  10.648  0.5418  0.2348  0.8257
 8985TIP3    H248447   5.043   2.039  10.716  0.1929 -1.6892  1.4498
 8986TIP3   OH248448   0.046   6.313   3.929  0.4560  0.0244 -0.1390
 8986TIP3    H148449   0.014   6.233   3.888  0.0332 -1.5707  3.0048
 8986TIP3    H248450  -0.033   6.361   3.953  0.6091 -0.1291  0.7046
 8987TIP3   OH248451   5.263   3.953   1.346 -0.5259 -0.0798 -0.7967
 8987TIP3    H148452   5.249   4.045   1.324 -1.5102 -0.0907 -0.2427
 8987TIP3    H248453   5.186   3.928   1.396  0.7882 -0.5749  1.0624
 8988TIP3   OH248454   2.819   0.459   3.135  0.2627 -0.0586 -0.1642
 8988TIP3    H148455   2.822   0.531   3.198  0.0848  0.7493 -1.0506
 8988TIP3    H248456   2.794   0.383   3.187  2.3685  0.0718  1.1819
 8989TIP3   OH248457   6.178   2.349   4.359 -0.4041 -0.1784 -0.1683
 8989TIP3    H148458   6.142   2.294   4.429 -3.5039 -0.0684 -1.4989
 8989TIP3    H248459   6.214   2.287   4.296 -1.7902 -0.6213 -0.5701
 8990TIP3   OH248460   2.184   6.241  12.399  0.3415  0.3770  0.1803
 8990TIP3    H148461   2.265   6.249  12.348 -0.2557  1.3489 -0.6498
 8990TIP3    H248462   2.184   6.317  12.457 -0.3065  0.7879 -0.3356
 8991TIP3   OH248463   2.888   5.274  13.432  0.0704  0.0401  0.0750
 8991TIP3    H148464   2.935   5.281  13.515 -1.3458 -1.1986  1.0312
 8991TIP3    H248465   2.823   5.205  13.447 -1.3820  0.9901 -1.4953
 8992TIP3   OH248466   4.015   0.197   1.544 -0.3093 -0.2382  0.2805
 8992TIP3    H148467   4.055   0.116   1.575  0.9683  0.5208  0.6615
 8992TIP3    H248468   3.949   0.168   1.481  0.2414 -1.5656  0.2822
 8993TIP3   OH248469   0.443   0.070   1.821 -0.2383 -0.4489  0.3186
 8993TIP3    H148470   0.496  -0.002   1.787 -1.5800 -0.1362 -2.8306
 8993TIP3    H248471   0.497   0.148   1.809 -0.2931 -0.4781 -0.1545
 8994TIP3   OH248472   5.846   4.658   2.619 -1.0370  0.0132  0.0286
 8994TIP3    H148473   5.811   4.578   2.578  2.3703 -1.5964 -0.1189
 8994TIP3    H248474   5.900   4.698   2.551 -0.0764  0.6238  1.1184
 8995TIP3   OH248475   6.735   0.392  15.534 -0.3927 -0.5275  0.8304
 8995TIP3    H148476   6.772   0.479  15.526 -0.5396 -0.2640  2.6591
 8995TIP3    H248477   6.760   0.362  15.621  0.5948 -2.7870 -0.1441
 8996TIP3   OH248478   2.710   5.828  15.324 -0.1308 -0.4035 -0.1518
 8996TIP3    H148479   2.783   5.862  15.272  1.0606 -0.7957  1.1875
 8996TIP3    H248480   2.744   5.825  15.414 -1.3610 -1.8022  0.3155
 8997TIP3   OH248481   6.702   1.704   3.172  0.2231 -0.2923 -0.4849
 8997TIP3    H148482   6.692   1.663   3.258 -4.0468  0.1664 -0.5350
 8997TIP3    H248483   6.638   1.659   3.117  1.6548  0.5822 -3.0225
 8998TIP3   OH248484   4.069   2.858  16.485  0.3557  0.1053 -0.8398
 8998TIP3    H148485   4.111   2.906  16.414 -0.0217 -1.0048 -1.8520
 8998TIP3    H248486   3.997   2.811  16.443 -0.4532  0.1474  0.4532
 8999TIP3   OH248487   3.174   2.504   1.879 -0.6985 -0.0718  0.3099
 8999TIP3    H148488   3.083   2.527   1.897 -1.2159  0.5400 -2.6626
 8999TIP3    H248489   3.176   2.484   1.786  1.6223 -3.2249  0.8883
 9000TIP3   OH248490   5.214   2.262  12.282 -0.2197  0.2906 -0.1468
 9000TIP3    H148491   5.207   2.173  12.317 -0.6339  0.5008  0.3074
 9000TIP3    H248492   5.164   2.316  12.342 -1.8654  0.5121 -1.6333
 9001TIP3   OH248493   0.153   2.150  12.824 -0.1459 -0.3991  0.3275
 9001TIP3    H148494   0.111   2.133  12.908  0.3834  0.0691  0.6980
 9001TIP3    H248495   0.139   2.070  12.773 -2.3563  0.0980  0.0567
 9002TIP3   OH248496   2.400   6.230  14.933  0.1689  0.7361  0.0691
 9002TIP3    H148497   2.447   6.291  14.875 -0.7806  0.5978 -0.8790
 9002TIP3    H248498   2.470   6.181  14.976  0.9428  0.2753 -1.5894
 9003TIP3   OH248499   1.539   2.061   4.419 -0.0340  0.2328  0.1953
 9003TIP3    H148500   1.500   1.981   4.384 -1.0169  0.8597 -0.1687
 9003TIP3    H248501   1.572   2.036   4.505  0.1595 -0.6952 -0.1372
 9004TIP3   OH248502   1.984   6.421  14.277  0.2439  0.3069  0.1883
 9004TIP3    H148503   1.916   6.442  14.340  0.2673  1.5452 -0.1629
 9004TIP3    H248504   2.043   6.496  14.280  2.3632 -1.3052  1.4585
 9005TIP3   OH248505   2.079   0.881  11.847  0.6917  0.0795  0.1898
 9005TIP3    H148506   2.122   0.904  11.930 -0.9289 -2.5318  1.8977
 9005TIP3    H248507   2.089   0.787  11.841  1.3440  0.2684 -3.0348
 9006TIP3   OH248508   1.487   0.962   1.563 -0.3289  0.0918  0.0982
 9006TIP3    H148509   1.461   0.915   1.484 -1.1118  1.6052 -0.6016
 9006TIP3    H248510   1.534   1.039   1.531 -0.5876  0.6865  1.0949
 9007TIP3   OH248511   0.861   4.000  12.307  0.3256  0.0605  0.5416
 9007TIP3    H148512   0.897   4.086  12.327  2.5919 -0.5142 -0.7544
 9007TIP3    H248513   0.810   4.013  12.228  0.5529  0.2423  0.4243
 9008TIP3   OH248514   3.214   4.729   4.621 -0.4296 -0.4435 -0.0951
 9008TIP3    H148515   3.210   4.808   4.566  0.1260 -1.2286 -1.3089
 9008TIP3    H248516   3.205   4.762   4.710  1.1656  1.1504 -0.4588
 9009TIP3   OH248517   3.362   4.937  14.392 -0.2413 -0.0665  0.1802
 9009TIP3    H148518   3.410   4.911  14.313 -0.7629 -1.6800  0.3424
 9009TIP3    H248519   3.340   4.853  14.434 -1.3638  0.7139  1.1985
 9010TIP3   OH248520   4.942   2.747  16.164  0.3142  0.5573  0.1913
 9010TIP3    H148521   4.851   2.777  16.159 -0.1909 -0.9220  0.1349
 9010TIP3    H248522   4.962   2.717  16.076 -0.6356 -3.1363  1.0566
 9011TIP3   OH248523   2.061   3.292   5.038  0.0748  0.6063 -0.1210
 9011TIP3    H148524   2.015   3.262   5.116 -0.7252  1.6163 -0.1760
 9011TIP3    H248525   2.144   3.245   5.039  0.0579  0.5724  1.3209
 9012TIP3   OH248526   0.089   4.979  15.397 -0.5431 -0.0649 -0.1390
 9012TIP3    H148527   0.104   5.073  15.404  0.0581  0.0694 -2.3683
 9012TIP3    H248528   0.131   4.942  15.475 -0.1552  1.4359  0.4055
 9013TIP3   OH248529   3.427   6.592  15.297 -0.1620 -0.1707  0.5238
 9013TIP3    H148530   3.411   6.504  15.261  1.7007 -0.4790  0.3496
 9013TIP3    H248531   3.416   6.651  15.222  0.0127 -0.4096  0.3076
 9014TIP3   OH248532   4.373   1.761   4.709 -0.2847 -0.4133  0.4851
 9014TIP3    H148533   4.459   1.721   4.726 -0.3394 -0.9655 -0.4936
 9014TIP3    H248534   4.337   1.776   4.797  1.1980  0.7189  0.9549
 9015TIP3   OH248535   4.927   2.509   1.109 -0.6078 -0.5149  0.0186
 9015TIP3    H148536   4.909   2.459   1.189 -0.7030 -0.6073 -0.0598
 9015TIP3    H248537   5.021   2.499   1.095 -0.8599 -1.9465 -0.8348
 9016TIP3   OH248538   2.945   0.140  16.856  0.5666 -0.0766 -0.0468
 9016TIP3    H148539   2.852   0.138  16.834  0.3806 -1.4079  0.7457
 9016TIP3    H248540   2.977   0.053  16.830  1.3342 -0.0227  0.6916
 9017TIP3   OH248541   6.268   3.546  12.613  0.4079  0.2754 -0.7614
 9017TIP3    H148542   6.196   3.581  12.665  0.7623 -2.0181  1.5136
 9017TIP3    H248543   6.338   3.611  12.621  0.1306  0.4069  0.9368
 9018TIP3   OH248544   5.920   3.257   2.555 -0.3842 -0.3380  0.1145
 9018TIP3    H148545   5.899   3.350   2.546  0.2671 -0.2096 -0.1756
 9018TIP3    H248546   5.967   3.251   2.639  0.4058 -0.2397 -0.3089
 9019TIP3   OH248547   1.421   6.500   3.431  0.0176  0.6047  0.6675
 9019TIP3    H148548   1.444   6.479   3.340  0.2598  0.8806  0.6641
 9019TIP3    H248549   1.450   6.423   3.481 -1.7487 -0.3377  0.2998
 9020TIP3   OH248550   4.890   5.201  14.282  0.4656 -0.5865 -0.0390
 9020TIP3    H148551   4.912   5.221  14.373  1.4645 -1.2075 -0.1303
 9020TIP3    H248552   4.810   5.251  14.266  0.3300 -0.3774  1.1414
 9021TIP3   OH248553   1.648   5.938  16.261 -0.1255  0.1815 -0.3863
 9021TIP3    H148554   1.563   5.952  16.219 -0.6766 -0.2683  0.5484
 9021TIP3    H248555   1.626   5.915  16.352  0.9463 -0.9804 -0.3957
 9022TIP3   OH248556   3.449   6.773  14.196  0.1619  0.2287  0.3697
 9022TIP3    H148557   3.434   6.689  14.238  0.0190 -0.8702 -1.7220
 9022TIP3    H248558   3.530   6.806  14.235  2.1114 -2.4908 -1.0582
 9023TIP3   OH248559   6.358   5.042  12.234 -0.3028  0.0524 -0.2463
 9023TIP3    H148560   6.386   5.008  12.319 -1.1180  0.6461  0.2851
 9023TIP3    H248561   6.435   5.086  12.199 -0.0581  0.1196  0.3585
 9024TIP3   OH248562   0.035   3.208   4.249  0.3673  0.0918 -0.2644
 9024TIP3    H148563   0.094   3.199   4.174  1.9110 -1.1082  1.0321
 9024TIP3    H248564   0.062   3.288   4.292  0.2811  0.1398 -0.2982
 9025TIP3   OH248565   1.215   2.764  13.642  0.1838 -0.1959 -0.4207
 9025TIP3    H148566   1.144   2.825  13.622 -1.1779 -1.2330  1.0449
 9025TIP3    H248567   1.249   2.793  13.727  0.9844 -0.2135 -0.7206
 9026TIP3   OH248568   1.003   6.641   1.890  0.0850  0.4596  0.5651
 9026TIP3    H148569   1.090   6.663   1.924  0.1684 -1.9267  2.1834
 9026TIP3    H248570   1.011   6.549   1.862 -2.0237 -0.0163  1.3397
 9027TIP3   OH248571   5.089   3.200   5.306 -0.0421 -0.0006  0.5016
 9027TIP3    H148572   5.058   3.283   5.345  0.3790  0.8649 -0.9421
 9027TIP3    H248573   5.050   3.199   5.219  1.3812 -0.4541 -0.1594
 9028TIP3   OH248574   1.332   2.361  11.202  0.5751  0.0611  0.0014
 9028TIP3    H148575   1.302   2.426  11.265  3.1024  0.7561  0.6184
 9028TIP3    H248576   1.311   2.399  11.116  0.4096  0.8758  0.3907
 9029TIP3   OH248577   5.230   3.062   1.612  0.5428  0.2918 -0.3543
 9029TIP3    H148578   5.247   2.968   1.602 -1.6592 -0.1387 -0.4873
 9029TIP3    H248579   5.315   3.099   1.636  1.1790 -1.9398  1.1304
 9030TIP3   OH248580   5.215   0.880  15.846  0.2959  0.2861 -0.4910
 9030TIP3    H148581   5.183   0.883  15.936 -3.3684  0.1710 -1.5889
 9030TIP3    H248582   5.269   0.959  15.837  1.1161  0.0664  1.8619
 9031TIP3   OH248583   1.335   5.262   3.311  0.2265 -0.7834  0.0150
 9031TIP3    H148584   1.351   5.172   3.280 -1.0050 -1.1520  0.4062
 9031TIP3    H248585   1.329   5.254   3.406  1.2969 -0.0774  0.1601
 9032TIP3   OH248586   0.890   6.455  11.900  0.5098  0.5186 -0.2411
 9032TIP3    H148587   0.974   6.472  11.858  0.7602  0.3664  0.1908
 9032TIP3    H248588   0.851   6.542  11.910  0.0240  0.4811 -1.6294
 9033TIP3   OH248589   2.589   2.148  12.975  0.0717 -0.1915  0.4923
 9033TIP3    H148590   2.505   2.171  13.014  1.0027  3.8296  0.5039
 9033TIP3    H248591   2.576   2.158  12.881 -0.0169 -1.9839  0.2682
 9034TIP3   OH248592   2.692   0.521   5.266  0.9526 -0.0957  0.1893
 9034TIP3    H148593   2.612   0.567   5.239 -0.5688 -1.8643  1.4043
 9034TIP3    H248594   2.734   0.496   5.183  0.9044  1.8661 -0.4684
 9035TIP3   OH248595   1.992   4.163  14.256  0.3276 -0.4114  0.4689
 9035TIP3    H148596   2.061   4.182  14.319  1.1462 -2.1925  0.1747
 9035TIP3    H248597   1.998   4.069  14.241 -2.1086 -0.6157  0.3388
 9036TIP3   OH248598   6.351   4.785   4.693 -0.5993  0.5020 -0.2879
 9036TIP3    H148599   6.374   4.876   4.711  0.6218  0.6914 -2.5065
 9036TIP3    H248600   6.298   4.789   4.613  0.3849 -0.8013 -1.0310
 9037TIP3   OH248601   0.322   0.866  12.842  0.0308 -0.1429 -0.1597
 9037TIP3    H148602   0.348   0.941  12.789 -1.8763  0.0206 -0.9479
 9037TIP3    H248603   0.358   0.790  12.796  2.8424  0.2355  1.1718
 9038TIP3   OH248604   4.169   6.542   6.024 -0.0952  0.1781 -0.2381
 9038TIP3    H148605   4.199   6.585   6.104  1.2651  1.2374 -1.2810
 9038TIP3    H248606   4.108   6.474   6.055 -0.2599  1.1167  1.6136
 9039TIP3   OH248607   3.395   0.500   3.767  0.0997 -0.4150  0.8060
 9039TIP3    H148608   3.476   0.467   3.806  0.4610 -1.1694 -0.5334
 9039TIP3    H248609   3.395   0.465   3.678 -1.5487 -0.1542  0.6764
 9040TIP3   OH248610   6.005   0.218  12.107  0.5604 -0.2228  0.1285
 9040TIP3    H148611   5.936   0.249  12.166  1.4619  1.0099  0.5697
 9040TIP3    H248612   5.998   0.122  12.111 -0.7895 -0.1282  0.5426
 9041TIP3   OH248613   4.328   2.463   5.664  0.1220 -0.3544  0.3406
 9041TIP3    H148614   4.399   2.417   5.618 -0.5359 -0.9207 -0.1341
 9041TIP3    H248615   4.263   2.480   5.596  0.6103  1.9036  0.3601
 9042TIP3   OH248616   5.123   3.384   4.829 -0.0126 -0.5067  0.2316
 9042TIP3    H148617   5.114   3.479   4.828  0.9702 -0.4002 -0.3522
 9042TIP3    H248618   5.213   3.369   4.858  0.0614 -1.2344 -0.3215
 9043TIP3   OH248619   3.756   3.639  10.294  0.0737 -0.1209  0.3800
 9043TIP3    H148620   3.691   3.620  10.228  2.0614 -0.8123 -1.4821
 9043TIP3    H248621   3.775   3.732  10.283  0.9779 -0.4054 -0.6261
 9044TIP3   OH248622   1.384   1.049   3.193  0.8020 -0.6569 -0.0666
 9044TIP3    H148623   1.402   1.116   3.259 -1.0065 -0.9035  0.7145
 9044TIP3    H248624   1.292   1.061   3.171  1.1454 -1.1485 -1.9290
 9045TIP3   OH248625   4.746   6.481  12.684  0.1080 -0.4345  0.2706
 9045TIP3    H148626   4.799   6.524  12.751 -0.1804 -0.8071  0.7441
 9045TIP3    H248627   4.749   6.388  12.707  0.3789 -0.6202 -0.4961
 9046TIP3   OH248628   4.597   4.054   3.856 -0.0827 -0.3247  0.7441
 9046TIP3    H148629   4.534   4.030   3.788 -0.9237 -0.4905  1.5728
 9046TIP3    H248630   4.668   4.096   3.808  0.3107 -2.2453 -0.4867
 9047TIP3   OH248631   0.258   5.774   1.328  0.5006 -0.2658  0.3059
 9047TIP3    H148632   0.233   5.748   1.239 -3.3125  2.2030  0.4220
 9047TIP3    H248633   0.199   5.724   1.385  2.5166 -1.3992  1.5009
 9048TIP3   OH248634   4.133   4.005  13.589 -0.0279 -0.3007  0.7450
 9048TIP3    H148635   4.119   3.910  13.581  0.1109 -0.3131  0.6410
 9048TIP3    H248636   4.131   4.037  13.499  0.3987 -0.2729  0.7436
 9049TIP3   OH248637   6.740   2.317   2.222 -0.0811 -0.2757  0.3258
 9049TIP3    H148638   6.750   2.313   2.317 -0.0542  0.8561  0.3943
 9049TIP3    H248639   6.770   2.232   2.190  1.1011 -0.2172  1.2353
 9050TIP3   OH248640   0.200   1.127   5.513 -0.1983  0.3677  0.2031
 9050TIP3    H148641   0.258   1.116   5.589  0.7792  0.9331 -0.4324
 9050TIP3    H248642   0.244   1.193   5.460 -1.3652  0.6853 -0.3874
 9051TIP3   OH248643   2.350   5.080   0.675 -0.5616 -0.8949  0.1970
 9051TIP3    H148644   2.304   5.135   0.738 -0.8735 -0.4634 -0.4088
 9051TIP3    H248645   2.401   5.020   0.730 -0.6166 -0.3490  0.8609
 9052TIP3   OH248646   1.769   0.693  14.384  0.4509 -0.7877  0.8469
 9052TIP3    H148647   1.838   0.646  14.337 -0.2904 -1.5217  0.4535
 9052TIP3    H248648   1.786   0.675  14.477  0.7408 -1.0180  0.7489
 9053TIP3   OH248649   0.976   6.687  12.928  0.0378 -0.1019 -0.2035
 9053TIP3    H148650   0.944   6.714  12.842  0.0890  1.9881  0.3921
 9053TIP3    H248651   0.975   6.591  12.925 -1.0526 -0.0694 -2.1138
 9054TIP3   OH248652   1.835   2.081   2.563 -0.2542 -0.1276 -0.3649
 9054TIP3    H148653   1.824   2.058   2.655 -0.1896 -0.0037 -0.3252
 9054TIP3    H248654   1.857   2.174   2.564 -0.5226 -0.0605 -0.5239
 9055TIP3   OH248655   5.957   5.988   5.055  0.2124 -0.3113 -0.2393
 9055TIP3    H148656   6.045   6.020   5.033  0.2391  0.7963  1.3626
 9055TIP3    H248657   5.918   6.059   5.106 -1.2080 -1.2625  0.0343
 9056TIP3   OH248658   2.593   6.671   6.235  0.6221 -0.3875  0.0029
 9056TIP3    H148659   2.650   6.683   6.311 -1.4058  2.3956  1.2310
 9056TIP3    H248660   2.519   6.620   6.267  0.4668 -0.4887 -0.5063
 9057TIP3   OH248661   1.139   4.216   5.827 -0.3545 -0.0687  0.2986
 9057TIP3    H148662   1.174   4.144   5.879 -0.7777  0.1391  0.8862
 9057TIP3    H248663   1.216   4.260   5.791 -0.0470 -0.1232  0.8752
 9058TIP3   OH248664   3.322   3.345   3.315  0.0181 -0.1739  0.1395
 9058TIP3    H148665   3.324   3.273   3.378 -1.1766 -0.1946  0.1775
 9058TIP3    H248666   3.253   3.404   3.348 -0.3588  0.0088 -0.9281
 9059TIP3   OH248667   5.555   5.385   1.218  0.4040  0.1352  0.4776
 9059TIP3    H148668   5.590   5.465   1.178  1.2032 -0.5244 -0.1825
 9059TIP3    H248669   5.633   5.339   1.249  0.1204 -1.1939 -0.6996
 9060TIP3   OH248670   4.224   1.305   5.701 -0.3521 -0.7844 -0.0289
 9060TIP3    H148671   4.259   1.387   5.664 -0.2391 -1.5315 -1.6680
 9060TIP3    H248672   4.132   1.324   5.719  0.4215  0.7574  2.9675
 9061TIP3   OH248673   0.652   4.691   0.501  0.3974 -0.0964  0.1022
 9061TIP3    H148674   0.596   4.719   0.573  1.8445  0.2674  1.1407
 9061TIP3    H248675   0.741   4.694   0.538  1.1946  0.2862 -1.7535
 9062TIP3   OH248676   4.748   3.915  15.150 -0.0575  0.0301 -0.3983
 9062TIP3    H148677   4.738   3.993  15.096 -0.7844 -1.3862 -2.4172
 9062TIP3    H248678   4.829   3.874  15.119  0.0482 -0.3047  0.2902
 9063TIP3   OH248679   5.929   3.909   0.693  0.6059 -0.1009 -0.4957
 9063TIP3    H148680   5.903   3.842   0.630 -0.1031 -0.3361  0.0257
 9063TIP3    H248681   5.939   3.989   0.642  2.0294 -0.7189 -1.2214
 9064TIP3   OH248682   6.150   3.676   0.124 -0.2272 -0.1614  0.3231
 9064TIP3    H148683   6.146   3.648   0.215 -0.0565 -1.1499  0.0400
 9064TIP3    H248684   6.068   3.723   0.109 -0.2482  0.0145  0.9836
 9065TIP3   OH248685   4.863   3.480  14.065 -0.1811 -0.1629 -0.2705
 9065TIP3    H148686   4.783   3.514  14.024  0.6617  1.2808 -0.7567
 9065TIP3    H248687   4.831   3.409  14.122 -1.8510  0.5737 -0.2075
 9066TIP3   OH248688   2.708   6.791  15.754 -0.4510  0.7476 -0.1217
 9066TIP3    H148689   2.651   6.865  15.733 -2.0008  0.0997  1.5855
 9066TIP3    H248690   2.683   6.723  15.692 -2.2664  0.1568  1.1741
 9067TIP3   OH248691   4.935   0.744  14.578 -0.0416 -0.3066 -0.0931
 9067TIP3    H148692   5.012   0.737  14.521  0.5844 -0.2035  0.7178
 9067TIP3    H248693   4.904   0.834  14.565  1.6551  0.5921  1.6247
 9068TIP3   OH248694   4.541   1.086  13.331 -0.1788 -0.2438  0.1706
 9068TIP3    H148695   4.572   1.142  13.402  2.1051  0.2842 -1.1384
 9068TIP3    H248696   4.456   1.123  13.306  0.3480  1.3691  0.6869
 9069TIP3   OH248697   2.736   6.363  14.623 -0.1011  0.0516 -0.4224
 9069TIP3    H148698   2.801   6.329  14.561 -0.2622  0.2144 -0.6816
 9069TIP3    H248699   2.766   6.332  14.709  0.9157  1.0057 -0.4038
 9070TIP3   OH248700   2.475   5.327   0.913 -0.2699  0.6668  0.2658
 9070TIP3    H148701   2.549   5.290   0.865  0.7201  1.3834  1.1873
 9070TIP3    H248702   2.425   5.250   0.943  0.3715  0.1580  0.0400
 9071TIP3   OH248703   6.797   5.497   4.488 -0.0860  0.0907  0.3952
 9071TIP3    H148704   6.746   5.480   4.567 -1.8991 -1.3096 -0.9954
 9071TIP3    H248705   6.861   5.426   4.486 -0.9924 -0.7306 -0.1201
 9072TIP3   OH248706   1.428   1.459  11.624  0.0828 -0.1975  0.5147
 9072TIP3    H148707   1.423   1.541  11.672  0.1882 -0.3915  0.8611
 9072TIP3    H248708   1.349   1.411  11.650  0.3434 -0.4700  0.8011
 9073TIP3   OH248709   1.790   6.239   4.227 -0.1494  0.3013  0.2203
 9073TIP3    H148710   1.793   6.266   4.135 -0.7301 -1.7955 -0.4673
 9073TIP3    H248711   1.751   6.313   4.272 -0.1783  1.2419 -1.2675
 9074TIP3   OH248712   1.515   5.447  14.515 -0.3481  0.3416  0.4084
 9074TIP3    H148713   1.583   5.408  14.570 -0.6323  1.9178  1.9730
 9074TIP3    H248714   1.435   5.401  14.539  0.1760 -2.3992 -2.3207
 9075TIP3   OH248715   0.345   4.225  14.115 -0.4644 -0.4945 -0.4578
 9075TIP3    H148716   0.275   4.179  14.069 -0.6150 -0.5744 -0.1489
 9075TIP3    H248717   0.319   4.317  14.112 -1.1708 -0.6331  0.6448
 9076TIP3   OH248718   3.573   0.857   6.245  0.3397 -0.2757 -0.2430
 9076TIP3    H148719   3.518   0.782   6.223  1.5538 -1.9441  1.8836
 9076TIP3    H248720   3.545   0.883   6.333  0.2276  1.5483 -0.7734
 9077TIP3   OH248721   5.647   3.202   0.880 -0.5271  0.2942 -0.3735
 9077TIP3    H148722   5.706   3.245   0.819  2.5266 -1.0269  1.4056
 9077TIP3    H248723   5.656   3.251   0.962 -0.1624 -1.2218  0.5340
 9078TIP3   OH248724   6.023   5.410  10.452  0.0500  0.0607  0.3792
 9078TIP3    H148725   6.099   5.452  10.492  1.1599 -0.7610 -0.7752
 9078TIP3    H248726   5.998   5.342  10.515  0.4632  0.1484  0.6430
 9079TIP3   OH248727   4.235   3.687   0.418  0.0446  0.0982  0.0328
 9079TIP3    H148728   4.309   3.635   0.384 -1.9111 -1.6403 -1.8894
 9079TIP3    H248729   4.206   3.639   0.495 -0.8643 -0.9951 -0.9316
 9080TIP3   OH248730   1.980   2.962   3.972  0.0760 -0.3975  0.0927
 9080TIP3    H148731   1.944   2.888   3.923  0.0009 -1.1553  1.2582
 9080TIP3    H248732   2.066   2.977   3.933 -0.7369  0.2817 -1.5349
 9081TIP3   OH248733   3.613   2.954   1.500  0.2577  0.5750  0.7170
 9081TIP3    H148734   3.537   3.002   1.532 -0.1646  1.6209 -1.6327
 9081TIP3    H248735   3.676   2.958   1.572 -1.9438 -0.5855  2.8498
 9082TIP3   OH248736   5.998   1.369   6.117 -0.0284 -0.3489 -0.5057
 9082TIP3    H148737   5.950   1.351   6.036 -1.5798  0.1612  0.2568
 9082TIP3    H248738   6.088   1.386   6.088 -0.1826 -1.6928 -1.9541
 9083TIP3   OH248739   6.658   5.528  16.691  0.5031  0.4606  0.4528
 9083TIP3    H148740   6.564   5.543  16.681  0.6089  0.4213 -0.7683
 9083TIP3    H248741   6.664   5.438  16.724  0.1359 -0.0618 -0.8404
 9084TIP3   OH248742   6.774   5.085   0.829  0.0317  0.4654  0.0736
 9084TIP3    H148743   6.765   5.180   0.838  0.1635  0.6311 -1.3312
 9084TIP3    H248744   6.811   5.073   0.741 -2.0470 -0.9755 -0.6588
 9085TIP3   OH248745   4.478   2.955  13.902  0.5302  0.7344 -0.2053
 9085TIP3    H148746   4.531   2.888  13.945 -2.2445 -1.7240 -0.3296
 9085TIP3    H248747   4.415   2.982  13.969  0.9877  2.6241 -0.4581
 9086TIP3   OH248748   6.507   4.336   1.820  0.7415 -0.0427  0.2201
 9086TIP3    H148749   6.494   4.247   1.788  0.9067 -0.6732  1.8440
 9086TIP3    H248750   6.435   4.350   1.882  1.3937  0.5306  0.8566
 9087TIP3   OH248751   4.065   3.820  14.232  0.2630 -0.1533  0.4595
 9087TIP3    H148752   4.048   3.734  14.270  1.2159 -0.6570 -0.1983
 9087TIP3    H248753   4.135   3.857  14.285  0.8222 -0.3895 -0.0919
 9088TIP3   OH248754   1.614   4.080  13.750 -0.0310 -0.0082 -0.3431
 9088TIP3    H148755   1.647   4.001  13.795 -0.2461 -0.6123 -1.2284
 9088TIP3    H248756   1.685   4.105  13.691  0.6180  1.3116  0.9123
 9089TIP3   OH248757   6.256   1.339  11.113  0.2607 -0.2220 -0.2337
 9089TIP3    H148758   6.202   1.261  11.127 -1.1711  0.6889 -0.4854
 9089TIP3    H248759   6.194   1.407  11.087  1.5879  0.7814 -0.9086
 9090TIP3   OH248760   3.146   3.444  15.365  0.1610  0.3892 -0.6243
 9090TIP3    H148761   3.118   3.519  15.417 -1.6058 -1.5051  1.3399
 9090TIP3    H248762   3.067   3.391  15.354  1.9263 -2.9346  1.1470
 9091TIP3   OH248763   5.925   6.546  17.022  0.2120  0.5400  0.4860
 9091TIP3    H148764   5.849   6.580  16.975 -0.1056  3.5805  2.8461
 9091TIP3    H248765   5.889   6.483  17.085  0.1406 -0.5305 -0.5981
 9092TIP3   OH248766   5.819   3.635   5.783 -0.3536 -0.3137  0.0946
 9092TIP3    H148767   5.746   3.666   5.729 -0.9256 -0.1605  0.9400
 9092TIP3    H248768   5.868   3.576   5.725 -2.3531 -2.1221  0.1280
 9093TIP3   OH248769   5.676   3.514   0.806 -0.1271  0.1159  0.0284
 9093TIP3    H148770   5.647   3.582   0.866  1.1562  2.1982 -1.5928
 9093TIP3    H248771   5.771   3.524   0.801  0.6661 -4.0278  2.2667
 9094TIP3   OH248772   1.681   6.690   5.102 -0.3683  0.5407  0.2821
 9094TIP3    H148773   1.732   6.668   5.180  2.1146 -0.0759 -1.4074
 9094TIP3    H248774   1.592   6.703   5.135  0.1717 -1.5383  2.9275
 9095TIP3   OH248775   6.610   4.583   1.670 -0.4333  0.0341  0.4288
 9095TIP3    H148776   6.547   4.583   1.742  1.1057  0.5180  1.8465
 9095TIP3    H248777   6.693   4.606   1.711  0.7833 -1.0381 -1.2792
 9096TIP3   OH248778   2.382   4.942  13.632  0.0230  0.3146  0.5501
 9096TIP3    H148779   2.413   4.946  13.542 -0.1020  0.7068  0.5208
 9096TIP3    H248780   2.431   4.870  13.672 -0.0740  0.0065  0.1134
 9097TIP3   OH248781   5.528   6.268   5.773 -0.0843  0.3637  0.0400
 9097TIP3    H148782   5.470   6.256   5.698 -1.7447  0.1443  1.3040
 9097TIP3    H248783   5.597   6.204   5.761 -1.7362 -1.4879 -0.0163
 9098TIP3   OH248784   4.621   2.463   4.386 -0.7229  0.1332 -0.5545
 9098TIP3    H148785   4.544   2.438   4.437 -1.3983 -0.4954 -1.8282
 9098TIP3    H248786   4.695   2.448   4.445 -1.5515  0.5985  0.6424
 9099TIP3   OH248787   5.700   2.514  11.289  0.0060  0.2151  0.0647
 9099TIP3    H148788   5.785   2.533  11.329  1.3025 -3.2443 -0.7536
 9099TIP3    H248789   5.709   2.546  11.199 -0.5747  2.1746  0.6573
 9100TIP3   OH248790   2.658   6.445   2.266 -0.1426 -0.7663  1.0356
 9100TIP3    H148791   2.564   6.426   2.268 -0.7823  1.6849 -0.7271
 9100TIP3    H248792   2.681   6.441   2.173  1.0374  0.5593  1.2487
 9101TIP3   OH248793   4.615   5.780   0.767 -0.2015 -0.1500  0.0446
 9101TIP3    H148794   4.573   5.735   0.694 -0.7430  0.3489  0.0346
 9101TIP3    H248795   4.659   5.711   0.817 -0.0305 -0.5240 -0.6193
 9102TIP3   OH248796   6.746   4.489   3.367 -0.3411 -0.1216 -0.0053
 9102TIP3    H148797   6.725   4.548   3.440 -2.6512 -0.4308 -0.3418
 9102TIP3    H248798   6.754   4.402   3.408  1.2617  0.1001  0.2318
 9103TIP3   OH248799   1.329   2.659   4.283 -0.2595 -0.2749  0.0762
 9103TIP3    H148800   1.414   2.661   4.240 -0.3054  0.9613  0.0067
 9103TIP3    H248801   1.323   2.742   4.330 -1.7414 -0.0007 -0.5322
 9104TIP3   OH248802   6.418   6.626  15.516 -0.1050  0.9107 -0.6154
 9104TIP3    H148803   6.455   6.697  15.569  1.0029 -0.1396  0.0543
 9104TIP3    H248804   6.401   6.668  15.431  1.4562  1.7630 -0.5510
 9105TIP3   OH248805   1.505   3.263   2.701  0.0027 -0.3011 -0.4841
 9105TIP3    H148806   1.518   3.213   2.620 -0.5050 -0.0187 -0.7435
 9105TIP3    H248807   1.414   3.246   2.725 -0.3961  1.0660 -0.9609
 9106TIP3   OH248808   1.815   4.677  10.953 -0.4364  0.3193 -0.4506
 9106TIP3    H148809   1.838   4.603  11.009  2.7709  1.8113  0.4453
 9106TIP3    H248810   1.731   4.708  10.987 -0.3564 -1.0719  1.1302
 9107TIP3   OH248811   4.706   2.492  14.017 -0.5461  0.7116 -0.2114
 9107TIP3    H148812   4.799   2.499  13.994 -0.1541  0.4947  1.2187
 9107TIP3    H248813   4.690   2.398  14.025  0.1309  0.7474  3.1907
 9108TIP3   OH248814   0.216   0.407   2.843 -0.0185  0.7624 -0.1831
 9108TIP3    H148815   0.283   0.390   2.776 -0.6102  1.8059 -1.0820
 9108TIP3    H248816   0.239   0.493   2.879 -0.9485  1.2129 -0.6224
 9109TIP3   OH248817   3.542   6.115   2.465  0.0761 -0.0958 -0.3144
 9109TIP3    H148818   3.624   6.152   2.434  1.4474 -2.2896  0.4951
 9109TIP3    H248819   3.559   6.089   2.555 -1.5771 -0.4298 -0.0541
 9110TIP3   OH248820   4.608   0.035   1.641 -0.3445  0.0511  0.1386
 9110TIP3    H148821   4.647   0.006   1.724  0.1332 -0.5417 -0.2826
 9110TIP3    H248822   4.552  -0.038   1.614  1.5294 -0.9508 -1.3652
 9111TIP3   OH248823   1.663   2.078   4.085  0.0962 -0.3450 -0.6631
 9111TIP3    H148824   1.635   2.084   4.176 -1.4633 -2.9717 -0.8735
 9111TIP3    H248825   1.714   2.158   4.070 -1.3586  1.1911  1.8773
 9112TIP3   OH248826   2.759   0.282  15.422 -0.2963 -0.1919 -0.0249
 9112TIP3    H148827   2.721   0.215  15.480 -1.0267  0.4927  0.2966
 9112TIP3    H248828   2.683   0.329  15.387  0.2033  0.2447 -0.5310
 9113TIP3   OH248829   4.135   5.305  14.432  0.6589  0.5790  0.3124
 9113TIP3    H148830   4.152   5.290  14.525  2.4027 -0.5522 -0.1449
 9113TIP3    H248831   4.052   5.260  14.416 -0.8193  2.5945  1.7163
 9114TIP3   OH248832   1.843   1.075   3.092 -0.3542  0.4604 -0.3983
 9114TIP3    H148833   1.833   1.165   3.060  1.9256  0.1078 -2.4065
 9114TIP3    H248834   1.812   1.021   3.019  3.5176 -0.3543 -1.6628
 9115TIP3   OH248835   6.334   3.318   3.709 -0.0908  0.1420 -0.4892
 9115TIP3    H148836   6.361   3.341   3.798 -0.2924  0.3757 -0.4878
 9115TIP3    H248837   6.343   3.222   3.706 -4.3238 -0.5439  1.3057
 9116TIP3   OH248838   0.824   5.690   1.043 -0.7735  0.3624 -0.0137
 9116TIP3    H148839   0.859   5.779   1.039 -0.1718  0.2456  1.6885
 9116TIP3    H248840   0.746   5.698   1.098 -0.7383 -0.1489  0.1102
 9117TIP3   OH248841   5.225   1.552  13.676  0.0249  0.0615  0.0403
 9117TIP3    H148842   5.230   1.644  13.703 -0.2468  0.2477 -0.5353
 9117TIP3    H248843   5.167   1.512  13.742  0.8100  0.1085  0.7791
 9118TIP3   OH248844   3.029   2.420  12.420 -0.2528  1.1262 -0.2218
 9118TIP3    H148845   2.981   2.375  12.351  2.8398 -0.5836 -1.4875
 9118TIP3    H248846   3.050   2.351  12.484  2.5541  1.1166 -1.0043
 9119TIP3   OH248847   4.912   3.990   3.662  0.2838  0.5625  0.4652
 9119TIP3    H148848   4.836   3.993   3.604  1.1979  3.2626 -0.7607
 9119TIP3    H248849   4.933   3.897   3.669  0.1826  0.0080 -3.7286
 9120TIP3   OH248850   1.853   2.504  13.562  0.7730 -0.4492  0.8332
 9120TIP3    H148851   1.827   2.596  13.553  1.2307 -0.2237  1.6901
 9120TIP3    H248852   1.948   2.505  13.556  0.7976 -0.8304  1.1032
 9121TIP3   OH248853   4.646   2.375   0.532  0.4163  0.1259  0.5235
 9121TIP3    H148854   4.592   2.429   0.474 -0.9095 -0.2122  1.3954
 9121TIP3    H248855   4.671   2.434   0.602  0.2446  0.0030  0.6891
 9122TIP3   OH248856   2.043   3.540  13.139 -0.2617 -0.0065 -0.4663
 9122TIP3    H148857   2.099   3.508  13.068  0.3379 -0.7063  0.3160
 9122TIP3    H248858   2.018   3.628  13.112  0.0390 -0.2257 -1.5007
 9123TIP3   OH248859   4.856   5.060  13.473  0.0634 -0.1251  0.2473
 9123TIP3    H148860   4.886   5.099  13.391 -1.8758 -0.6191 -0.7696
 9123TIP3    H248861   4.870   4.966  13.461  1.0602 -0.0974  1.0772
 9124TIP3   OH248862   4.550   5.282   1.287  0.0733  0.4696  0.2305
 9124TIP3    H148863   4.599   5.200   1.292  1.5365  1.2813 -0.3200
 9124TIP3    H248864   4.460   5.258   1.311  0.7499 -1.0287  1.3804
 9125TIP3   OH248865   4.428   2.990  12.511 -0.0159  0.1947  0.5842
 9125TIP3    H148866   4.456   3.078  12.484 -0.2368  0.3095  0.7326
 9125TIP3    H248867   4.375   3.004  12.589 -2.0022  0.1522 -0.6962
 9126TIP3   OH248868   0.057   5.115  12.590  0.1637  0.1327 -0.0905
 9126TIP3    H148869   0.136   5.097  12.642 -0.4444  0.6705  1.0517
 9126TIP3    H248870   0.091   5.142  12.504  1.2649  1.2961  0.6709
 9127TIP3   OH248871   1.963   1.179   4.228 -0.1914 -0.2754  0.0865
 9127TIP3    H148872   1.867   1.179   4.228 -0.2182 -1.1148 -1.2400
 9127TIP3    H248873   1.987   1.230   4.151  0.4789  0.9017  1.0336
 9128TIP3   OH248874   5.908   4.505   0.513 -0.0777  0.1293  0.2061
 9128TIP3    H148875   5.860   4.423   0.514  0.0635  0.0469  0.3007
 9128TIP3    H248876   5.916   4.527   0.420  0.9045 -0.5741  0.0965
 9129TIP3   OH248877   2.645   3.862   0.727 -0.2510  0.4216 -0.6191
 9129TIP3    H148878   2.567   3.916   0.740  0.9223  2.1093 -0.2186
 9129TIP3    H248879   2.680   3.849   0.815 -1.2880 -2.3430 -0.5164
 9130TIP3   OH248880   5.702   3.931   0.830  0.0324  0.4161 -0.2400
 9130TIP3    H148881   5.789   3.919   0.793 -0.5791  0.0633 -1.6296
 9130TIP3    H248882   5.711   4.004   0.891  1.1400  0.8423 -0.9018
 9131TIP3   OH248883   1.733   0.034   3.513 -0.6276  0.0180  0.0912
 9131TIP3    H148884   1.700  -0.003   3.430 -0.1027 -0.7862  0.2262
 9131TIP3    H248885   1.676   0.109   3.530  0.0065  0.9585 -1.6274
 9132TIP3   OH248886   0.176   3.502   3.030 -0.1910 -0.3452  0.2297
 9132TIP3    H148887   0.227   3.453   3.094  0.8675  1.7182  1.0689
 9132TIP3    H248888   0.087   3.469   3.039  0.7586 -3.4303 -0.6506
 9133TIP3   OH248889   3.516   5.427  14.306  0.0719  0.8670 -0.3298
 9133TIP3    H148890   3.566   5.472  14.239  1.5314 -0.2304 -0.0207
 9133TIP3    H248891   3.445   5.487  14.328 -0.9639  0.9120 -3.4105
 9134TIP3   OH248892   6.560   5.294   0.523 -0.3671  0.1907 -0.3136
 9134TIP3    H148893   6.492   5.237   0.559 -1.6523  2.4763  1.0831
 9134TIP3    H248894   6.641   5.245   0.536 -1.5421 -1.9610 -0.6194
 9135TIP3   OH248895   0.366   4.883  14.382  0.6875 -0.4723  0.4912
 9135TIP3    H148896   0.343   4.800  14.424  1.3658 -0.3923  1.0395
 9135TIP3    H248897   0.300   4.895  14.314  1.7114 -2.4493 -0.9257
 9136TIP3   OH248898   6.346   2.482   3.788  0.7091 -0.3179  0.0374
 9136TIP3    H148899   6.352   2.429   3.709 -0.4701 -1.2796  0.5561
 9136TIP3    H248900   6.343   2.419   3.859  1.8633  0.5376  0.8714
 9137TIP3   OH248901   2.224   5.331   1.591 -0.2509 -0.4112  0.4710
 9137TIP3    H148902   2.215   5.395   1.520 -0.4580  1.4289  2.0859
 9137TIP3    H248903   2.317   5.309   1.591 -0.0732  0.2877  0.2132
 9138TIP3   OH248904   6.221   2.275   5.058 -0.4293  0.2977  0.3450
 9138TIP3    H148905   6.295   2.321   5.098 -1.6438  0.1845  2.8903
 9138TIP3    H248906   6.256   2.243   4.975  2.8651 -1.0043  2.0330
 9139TIP3   OH248907   2.775   3.293   6.405  0.2405  0.0010  0.2799
 9139TIP3    H148908   2.790   3.387   6.389 -1.2116  0.2476  0.2088
 9139TIP3    H248909   2.679   3.284   6.404  0.3459 -1.3734  0.9477
 9140TIP3   OH248910   4.700   0.119   4.101 -0.1152  0.0461  0.1404
 9140TIP3    H148911   4.751   0.143   4.178  2.2481  0.8272 -1.5396
 9140TIP3    H248912   4.649   0.197   4.080  2.8112  1.6579 -1.6798
 9141TIP3   OH248913   6.426   5.606  14.217  0.0597  1.0902  0.2857
 9141TIP3    H148914   6.505   5.568  14.256 -0.1884  1.1921  0.9011
 9141TIP3    H248915   6.367   5.620  14.291 -0.2154  1.7939 -0.0535
 9142TIP3   OH248916   6.229   1.445   0.664 -0.2520 -0.5538 -0.4899
 9142TIP3    H148917   6.314   1.411   0.637  0.3602  0.4482  0.1089
 9142TIP3    H248918   6.166   1.384   0.625  0.7718 -2.4933  0.6929
 9143TIP3   OH248919   2.832   1.922   0.870 -0.0513  0.0600  0.2477
 9143TIP3    H148920   2.754   1.955   0.825  0.0175 -0.0608  0.0398
 9143TIP3    H248921   2.905   1.959   0.822  0.0194  0.3208  0.5547
 9144TIP3   OH248922   5.190   2.965  12.885  0.6211  0.0762  0.4069
 9144TIP3    H148923   5.217   2.898  12.948  0.9654  0.4595  0.6750
 9144TIP3    H248924   5.172   3.042  12.939  1.0764  0.4584  0.0209
 9145TIP3   OH248925   6.398   6.308  11.513  0.4487 -0.5669  0.1813
 9145TIP3    H148926   6.409   6.272  11.601  0.0016  0.3333  0.6194
 9145TIP3    H248927   6.366   6.235  11.461 -1.7942 -0.5218  1.3698
 9146TIP3   OH248928   3.140   1.215   5.722 -0.6966 -0.3655 -0.1671
 9146TIP3    H148929   3.047   1.200   5.707 -0.8224  1.3994 -1.5412
 9146TIP3    H248930   3.184   1.139   5.683 -1.5214 -0.8102 -0.2375
 9147TIP3   OH248931   2.174   6.253  14.631  0.2810 -0.0669  0.2571
 9147TIP3    H148932   2.130   6.202  14.699  1.8875 -1.3645  0.3860
 9147TIP3    H248933   2.191   6.338  14.672 -1.5160  0.2842  0.3821
 9148TIP3   OH248934   2.586   1.404   5.470 -0.3095  0.0354  0.5574
 9148TIP3    H148935   2.670   1.449   5.477 -0.3265  0.0543  0.6315
 9148TIP3    H248936   2.563   1.379   5.559  0.2981 -1.2246  0.3874
 9149TIP3   OH248937   0.367   4.472  16.519  0.0909 -0.0931 -0.1067
 9149TIP3    H148938   0.311   4.413  16.569 -0.0025 -0.5924 -0.7955
 9149TIP3    H248939   0.307   4.514  16.456  0.3600 -0.0980 -0.3655
 9150TIP3   OH248940   0.170   4.113  13.469  0.0290  0.2925 -0.1200
 9150TIP3    H148941   0.185   4.039  13.528  0.9196  1.7986  1.6183
 9150TIP3    H248942   0.157   4.188  13.526  0.1392  1.7018 -1.8472
 9151TIP3   OH248943   6.189   1.727   3.829  0.1998 -0.3759  0.0591
 9151TIP3    H148944   6.160   1.681   3.750 -0.7022 -1.7685  1.1495
 9151TIP3    H248945   6.255   1.670   3.867 -1.8068 -1.5144  2.0879
 9152TIP3   OH248946   2.398   1.295  14.337  0.1598 -0.1985  0.0159
 9152TIP3    H148947   2.304   1.292  14.351  0.2165  0.6631  0.6415
 9152TIP3    H248948   2.434   1.232  14.399  0.0107 -0.4157 -0.1174
 9153TIP3   OH248949   0.251   3.039  11.501 -0.0157  0.1662 -0.0294
 9153TIP3    H148950   0.219   3.050  11.411  0.0548  1.3982  0.0805
 9153TIP3    H248951   0.345   3.057  11.495 -0.2405  1.6131  0.5129
 9154TIP3   OH248952   5.332   3.204  12.298 -0.4480 -0.0326 -0.5456
 9154TIP3    H148953   5.281   3.176  12.222 -0.7335  0.2655 -0.4664
 9154TIP3    H248954   5.373   3.124  12.330 -2.5325 -0.7067  0.6512
 9155TIP3   OH248955   5.778   1.528   4.657  0.0314 -0.5341 -0.4658
 9155TIP3    H148956   5.697   1.515   4.607 -0.6172  0.2171  0.3504
 9155TIP3    H248957   5.769   1.470   4.732  0.1468 -0.2877 -0.2598
 9156TIP3   OH248958   4.036   4.946  11.769  0.3221  0.1832  0.1800
 9156TIP3    H148959   4.122   4.949  11.728  0.5043  0.2245  0.5602
 9156TIP3    H248960   4.029   5.028  11.818 -0.0397  0.2981 -0.0550
 9157TIP3   OH248961   4.265   5.770  14.444 -0.2085  0.4754 -0.0008
 9157TIP3    H148962   4.306   5.820  14.374  1.8710  1.9229  2.0631
 9157TIP3    H248963   4.173   5.794  14.440 -0.6523 -1.2236 -3.5173
 9158TIP3   OH248964   0.794   4.005   2.113 -0.1029 -0.1868  0.3142
 9158TIP3    H148965   0.844   4.040   2.039 -0.9737  0.1798 -0.1054
 9158TIP3    H248966   0.706   3.992   2.080 -0.3672 -0.5555  1.1319
 9159TIP3   OH248967   4.141   5.203   0.909 -0.0841  0.0229  0.1684
 9159TIP3    H148968   4.156   5.229   0.818  1.9132  0.7276  0.6541
 9159TIP3    H248969   4.228   5.188   0.945 -0.8542 -0.6886  1.8586
 9160TIP3   OH248970   4.179   4.556  10.266  0.1045 -0.5893  0.2722
 9160TIP3    H148971   4.127   4.636  10.279  1.0649  0.1102 -0.1313
 9160TIP3    H248972   4.116   4.485  10.278 -1.4830  0.2482 -2.3055
 9161TIP3   OH248973   4.584   1.578   0.978  0.4466 -0.5358  0.1840
 9161TIP3    H148974   4.657   1.640   0.976  0.1916 -0.2172  0.7664
 9161TIP3    H248975   4.592   1.533   1.062  0.0388 -0.5893  0.1965
 9162TIP3   OH248976   2.227   3.411   5.798 -0.2916  0.2355 -0.0441
 9162TIP3    H148977   2.169   3.335   5.794  1.7168 -1.3987  0.1815
 9162TIP3    H248978   2.264   3.417   5.710 -0.0870  0.6620  0.0692
 9163TIP3   OH248979   2.639   3.054   6.214 -0.2462 -0.1520  0.7545
 9163TIP3    H148980   2.605   2.997   6.282 -1.0533 -0.6972 -0.0775
 9163TIP3    H248981   2.581   3.130   6.214 -1.3527 -0.9419 -0.4564
 9164TIP3   OH248982   4.672   3.897  13.469 -0.6433  0.0024  0.1441
 9164TIP3    H148983   4.596   3.860  13.513 -0.6188 -1.1522 -0.7380
 9164TIP3    H248984   4.648   3.899  13.376 -0.5069  1.9145  0.1043
 9165TIP3   OH248985   4.498   1.891   1.122 -0.1197  0.2653 -0.2599
 9165TIP3    H148986   4.407   1.860   1.124  0.5695 -2.2855 -2.4781
 9165TIP3    H248987   4.546   1.828   1.176  0.6177  0.3440 -0.8093
 9166TIP3   OH248988   1.194   1.021  14.857  0.0432 -0.4304 -0.0060
 9166TIP3    H148989   1.128   1.036  14.924 -0.6478 -0.6250 -0.6345
 9166TIP3    H248990   1.254   1.096  14.865 -0.8538  0.3214 -0.1472
 9167TIP3   OH248991   2.669   3.445  12.618 -0.3387  0.3263 -0.3065
 9167TIP3    H148992   2.753   3.454  12.572 -0.2841  2.3268  0.1225
 9167TIP3    H248993   2.604   3.439  12.548  0.0325  0.1206 -0.6411
 9168TIP3   OH248994   2.772   4.352  17.075 -0.0569  0.6639  0.0464
 9168TIP3    H148995   2.728   4.323  17.155  2.7919 -0.1711  1.4030
 9168TIP3    H248996   2.824   4.427  17.102 -0.2758  1.3813 -1.4262
 9169TIP3   OH248997   4.846   1.154   2.284  0.6267  0.1010 -0.2318
 9169TIP3    H148998   4.921   1.188   2.235  0.6054  0.9467  0.3026
 9169TIP3    H248999   4.791   1.230   2.300 -0.2000 -0.4573 -0.3397
 9170TIP3   OH249000   3.860   6.697   0.470 -0.7445 -0.1710 -0.5304
 9170TIP3    H149001   3.890   6.639   0.400  3.1509 -0.7043  1.2729
 9170TIP3    H249002   3.894   6.783   0.446 -1.4501  0.1382 -0.4264
 9171TIP3   OH249003   1.840   6.163  13.193  0.4232 -0.5990  0.5419
 9171TIP3    H149004   1.905   6.149  13.261 -0.6548 -2.8463  1.1970
 9171TIP3    H249005   1.793   6.242  13.220  2.9266  1.2214 -0.0693
 9172TIP3   OH249006   1.396   5.965  13.396 -0.0757  0.3425  0.4358
 9172TIP3    H149007   1.354   5.881  13.419  1.5002 -0.8265 -0.7674
 9172TIP3    H249008   1.400   6.013  13.479 -0.7661 -0.8784  1.2075
 9173TIP3   OH249009   1.025   1.466  12.628 -0.1694 -0.0225  0.6031
 9173TIP3    H149010   1.105   1.422  12.597  0.6586 -1.1836  4.0181
 9173TIP3    H249011   1.055   1.551  12.659 -0.5097  0.0673  0.6804
 9174TIP3   OH249012   6.066   1.950  16.443 -0.2317 -0.0474  0.3917
 9174TIP3    H149013   6.020   2.002  16.377 -0.9802 -0.5941  0.4663
 9174TIP3    H249014   6.101   2.015  16.504  0.4579  0.4609 -0.5295
 9175TIP3   OH249015   0.841   4.388   1.755  0.2881  0.1911  0.0543
 9175TIP3    H149016   0.882   4.375   1.669  1.1620  0.5020  0.4213
 9175TIP3    H249017   0.768   4.448   1.737  0.4422  0.2285 -0.4717
 9176TIP3   OH249018   0.347   2.120  13.096  0.1573 -0.3743 -0.5098
 9176TIP3    H149019   0.287   2.125  13.170  0.2810 -0.7208 -0.3827
 9176TIP3    H249020   0.426   2.080  13.132  0.9981  1.3645 -0.3242
 9177TIP3   OH249021   0.609   0.065  14.083 -0.3265 -0.1329  0.2947
 9177TIP3    H149022   0.537   0.060  14.021  0.2899 -1.3687 -0.3450
 9177TIP3    H249023   0.672   0.124  14.042 -0.7631  0.6192  0.6690
 9178TIP3   OH249024   1.389   5.742  15.353  0.6244 -0.4751 -0.0586
 9178TIP3    H149025   1.423   5.655  15.334 -1.7068 -1.1710 -1.4475
 9178TIP3    H249026   1.366   5.740  15.446 -0.3757 -1.7471 -0.3047
 9179TIP3   OH249027   2.671   4.190   0.183 -0.3154  0.0553  0.3529
 9179TIP3    H149028   2.618   4.123   0.139 -0.3794  0.5858 -0.4130
 9179TIP3    H249029   2.731   4.141   0.238  0.1255 -0.6701 -0.7350
 9180TIP3   OH249030   1.434   2.677  13.040  0.3476 -0.2553  0.0942
 9180TIP3    H149031   1.397   2.639  13.120 -0.5575  0.7813  0.1900
 9180TIP3    H249032   1.373   2.747  13.017  0.9064 -0.1801 -1.1964
 9181TIP3   OH249033   6.684   1.785   6.724  0.0134  0.0126 -0.4229
 9181TIP3    H149034   6.741   1.787   6.647 -0.1211 -1.1604 -0.5743
 9181TIP3    H249035   6.743   1.793   6.799  0.5407 -2.1380 -0.5331
 9182TIP3   OH249036   5.449   2.865  11.149  0.2184  0.2378  0.3967
 9182TIP3    H149037   5.511   2.813  11.098  0.3312 -0.1866  0.9663
 9182TIP3    H249038   5.368   2.861  11.098 -0.2316 -1.8000  1.1878
 9183TIP3   OH249039   4.034   0.852   5.692  0.5730 -0.3191  0.1720
 9183TIP3    H149040   4.015   0.888   5.778  0.9770  1.0082 -0.2828
 9183TIP3    H249041   3.948   0.837   5.653  0.3796  1.5383 -0.1839
 9184TIP3   OH249042   3.786   2.378   2.927 -0.0145 -0.0406  0.1478
 9184TIP3    H149043   3.716   2.431   2.889 -0.3040 -0.9735 -0.6549
 9184TIP3    H249044   3.755   2.358   3.016  0.0914  1.0940  0.4557
 9185TIP3   OH249045   1.088   3.693  10.660  0.0881  0.2666  0.2992
 9185TIP3    H149046   1.181   3.695  10.682  0.2256 -1.8028  0.1146
 9185TIP3    H249047   1.085   3.706  10.566 -0.0059  2.3353  0.5361
 9186TIP3   OH249048   0.280   1.313   3.857  0.4851 -0.1708  0.5095
 9186TIP3    H149049   0.205   1.275   3.903 -0.4181  0.3491 -0.4993
 9186TIP3    H249050   0.351   1.250   3.871 -0.5665 -1.4787  0.1477
 9187TIP3   OH249051   3.196   1.105   2.614 -0.0986  0.2446  0.2926
 9187TIP3    H149052   3.122   1.121   2.672  0.2741  0.4373  0.7259
 9187TIP3    H249053   3.272   1.103   2.672  0.2162 -0.1306 -0.1210
 9188TIP3   OH249054   4.586   6.393  10.727 -0.5178  0.2325 -0.3183
 9188TIP3    H149055   4.628   6.315  10.766 -0.3242  1.5945  2.4479
 9188TIP3    H249056   4.659   6.445  10.693 -0.1694  1.1225  1.6591
 9189TIP3   OH249057   3.923   3.363  15.791 -0.4740  0.0056  0.2520
 9189TIP3    H149058   3.854   3.383  15.854 -0.5614  1.3246 -0.2230
 9189TIP3    H249059   3.963   3.282  15.823 -1.4951 -0.1640  1.1538
 9190TIP3   OH249060   1.759   6.199   5.772 -0.2856  0.2532  0.6095
 9190TIP3    H149061   1.734   6.139   5.701 -1.7537  0.9322  0.4952
 9190TIP3    H249062   1.754   6.146   5.851  3.3342 -1.0667  0.1256
 9191TIP3   OH249063   0.786   1.743  14.986 -0.3150 -0.3037 -0.4815
 9191TIP3    H149064   0.858   1.768  14.928 -0.9584  0.7688 -0.8645
 9191TIP3    H249065   0.784   1.648  14.983  0.0681 -0.2870 -1.7461
 9192TIP3   OH249066   5.578   5.947   4.564  0.6628 -0.7690 -0.6897
 9192TIP3    H149067   5.625   5.922   4.644  1.0070  1.2881 -0.1764
 9192TIP3    H249068   5.511   6.008   4.594  1.4855  0.8808 -2.0549
 9193TIP3   OH249069   2.431   3.100   0.704  0.5677  0.1492 -0.3930
 9193TIP3    H149070   2.434   3.123   0.797 -1.3771  0.3452 -0.3381
 9193TIP3    H249071   2.496   3.158   0.663  0.5806  0.9256  0.6643
 9194TIP3   OH249072   5.470   4.958   0.405 -0.0163  0.3539 -0.6118
 9194TIP3    H149073   5.489   4.912   0.487 -0.3590  0.6024 -0.3938
 9194TIP3    H249074   5.408   4.901   0.360  2.1944 -1.1860 -1.9728
 9195TIP3   OH249075   0.282   1.474  14.104 -0.1514  0.3334  0.7162
 9195TIP3    H149076   0.348   1.541  14.085 -1.1106  1.5044  1.3525
 9195TIP3    H249077   0.284   1.416  14.028 -0.4878  2.0872 -0.7141
 9196TIP3   OH249078   4.734   0.749   2.069  0.0810  0.6289  0.0131
 9196TIP3    H149079   4.826   0.775   2.065  0.3515 -0.0493  1.2355
 9196TIP3    H249080   4.733   0.674   2.129 -1.2095  0.3508 -0.3221
 9197TIP3   OH249081   6.489   2.378   5.663 -0.0920 -0.2279 -0.3452
 9197TIP3    H149082   6.393   2.373   5.658 -0.3786  0.2941  2.7595
 9197TIP3    H249083   6.511   2.336   5.746  1.9925  2.7098  0.7781
 9198TIP3   OH249084   3.140   3.301   2.225  0.0848 -0.1260  0.0580
 9198TIP3    H149085   3.106   3.307   2.314 -0.4381 -1.8315  0.0168
 9198TIP3    H249086   3.169   3.390   2.203 -3.7731  1.3497  0.3196
 9199TIP3   OH249087   0.402   3.592  16.601 -0.4012  0.3041  0.2299
 9199TIP3    H149088   0.394   3.620  16.510 -0.0002 -0.7578 -0.1512
 9199TIP3    H249089   0.474   3.529  16.600 -0.9148 -0.3102  1.1403
 9200TIP3   OH249090   5.338   4.786   2.003  0.0443 -0.3684 -0.3997
 9200TIP3    H149091   5.362   4.697   2.029 -1.4750 -0.2382  1.7876
 9200TIP3    H249092   5.242   4.787   2.008 -0.0373  1.0936 -1.4955
 9201TIP3   OH249093   2.952   0.100  16.535 -0.1200 -0.1434 -0.1932
 9201TIP3    H149094   2.928   0.061  16.451  0.9838 -0.3939 -0.4071
 9201TIP3    H249095   2.869   0.107  16.583 -0.4371 -2.3952 -0.2927
 9202TIP3   OH249096   2.395   4.198  16.855 -0.1390 -0.6159 -0.4656
 9202TIP3    H149097   2.466   4.224  16.796 -0.4968  1.3478 -0.0894
 9202TIP3    H249098   2.318   4.192  16.798 -0.2762  0.2810 -0.3884
 9203TIP3   OH249099   6.097   2.807  11.463  0.1984 -0.1462  0.1379
 9203TIP3    H149100   6.178   2.795  11.413  0.5239 -0.2868  0.6898
 9203TIP3    H249101   6.124   2.801  11.554 -0.3722  0.2132  0.3363
 9204TIP3   OH249102   4.002   4.040  10.677 -0.6004 -0.4133  0.0175
 9204TIP3    H149103   4.091   4.054  10.644 -0.8568  1.3181 -0.0561
 9204TIP3    H249104   3.973   4.128  10.704 -1.4824 -1.2705  2.0928
 9205TIP3   OH249105   6.481   3.315  12.189 -0.1292 -0.1532 -0.4034
 9205TIP3    H149106   6.415   3.313  12.259 -1.0038 -0.8788 -1.2186
 9205TIP3    H249107   6.508   3.406  12.184 -0.3764 -0.0128  0.5863
 9206TIP3   OH249108   0.852   1.820  16.576 -0.3628  0.5591  0.0629
 9206TIP3    H149109   0.860   1.728  16.553 -0.3889  0.5170  0.2203
 9206TIP3    H249110   0.872   1.867  16.495 -0.4715  0.4125 -0.0496
 9207TIP3   OH249111   0.067   4.734   5.645  0.0522 -0.6082  0.2485
 9207TIP3    H149112   0.130   4.806   5.651  0.5236 -1.0273  0.3553
 9207TIP3    H249113  -0.002   4.758   5.707  0.5296 -0.5620  0.7776
 9208TIP3   OH249114   0.845   4.592  15.771  0.1352 -0.1968 -0.1468
 9208TIP3    H149115   0.905   4.569  15.842  0.9127 -0.4232 -0.8559
 9208TIP3    H249116   0.835   4.687  15.778  1.8556  0.0890 -0.9587
 9209TIP3   OH249117   5.894   3.176  13.083  0.1967  0.3327 -0.5183
 9209TIP3    H149118   5.916   3.159  13.175  1.1467  1.8697 -0.4269
 9209TIP3    H249119   5.894   3.090  13.042 -1.1974 -0.5026  1.0936
 9210TIP3   OH249120   6.587   0.771   2.899 -0.0921 -0.0132  0.0385
 9210TIP3    H149121   6.674   0.786   2.863 -1.0121  2.2976 -1.4785
 9210TIP3    H249122   6.586   0.819   2.982 -0.0242  0.2870 -0.1317
 9211TIP3   OH249123   0.611   2.152   1.135  0.1302  0.0941  0.5066
 9211TIP3    H149124   0.549   2.210   1.179 -0.3467 -0.0543  0.0373
 9211TIP3    H249125   0.683   2.142   1.198 -0.1030  0.6361  0.8670
 9212TIP3   OH249126   3.741   1.991  15.684  0.2907 -0.4878 -0.4403
 9212TIP3    H149127   3.673   1.978  15.750  0.7735  0.1029  0.1794
 9212TIP3    H249128   3.723   1.924  15.618 -1.8415  0.6135 -1.0711
 9213TIP3   OH249129   2.146   4.316   3.997  0.3175 -0.3461 -0.4475
 9213TIP3    H149130   2.081   4.246   3.996  1.1352 -1.1721 -2.4753
 9213TIP3    H249131   2.094   4.396   3.991 -0.6218 -0.7216  1.6799
 9214TIP3   OH249132   0.170   3.813  14.110  0.3255  0.0480  0.0275
 9214TIP3    H149133   0.140   3.904  14.118  0.8445  0.2863 -0.6420
 9214TIP3    H249134   0.090   3.763  14.094  0.0679  0.4286  0.1123
 9215TIP3   OH249135   5.798   1.977  13.041 -0.2025 -0.5834 -0.2628
 9215TIP3    H149136   5.803   1.982  12.946 -2.9004  0.6557 -0.4574
 9215TIP3    H249137   5.759   2.061  13.067  0.0156 -1.0854  1.8863
 9216TIP3   OH249138   2.345   5.746  11.781  0.0564 -0.6177  0.1412
 9216TIP3    H149139   2.352   5.750  11.685 -0.8970  1.1154  0.1075
 9216TIP3    H249140   2.288   5.671  11.797 -0.4228 -0.4527 -0.7058
 9217TIP3   OH249141   2.623   1.365   3.333 -0.4025 -0.0252 -0.1611
 9217TIP3    H149142   2.643   1.309   3.408  2.1608  0.6735 -0.2119
 9217TIP3    H249143   2.699   1.423   3.327 -0.0749 -0.6279 -3.8304
 9218TIP3   OH249144   0.850   4.886   2.474  0.5140 -0.5046 -0.1345
 9218TIP3    H149145   0.833   4.837   2.393 -1.1781 -0.6902  0.3127
 9218TIP3    H249146   0.811   4.832   2.543 -5.2986  3.1419  0.0538
 9219TIP3   OH249147   3.962   1.761  16.296  0.6378  0.4669 -0.4329
 9219TIP3    H149148   3.881   1.800  16.329  0.7640 -0.1396  0.6570
 9219TIP3    H249149   4.029   1.829  16.309  0.8789 -0.0937  1.5601
 9220TIP3   OH249150   5.710   0.227  14.160 -0.0234 -0.2408 -0.5657
 9220TIP3    H149151   5.751   0.142  14.177 -0.2055 -0.4735 -1.2611
 9220TIP3    H249152   5.628   0.206  14.117 -1.0493  0.2106  1.0686
 9221TIP3   OH249153   6.650   0.675  12.040  0.1110 -0.0086  0.1179
 9221TIP3    H149154   6.690   0.618  11.974 -1.2638  1.9715 -2.5776
 9221TIP3    H249155   6.711   0.748  12.049 -0.3304  0.3653  0.0751
 9222TIP3   OH249156   0.407   4.421  13.603 -0.0927  0.2866  0.3311
 9222TIP3    H149157   0.435   4.367  13.529 -2.9237 -0.1726 -0.5368
 9222TIP3    H249158   0.471   4.492  13.607  0.3272  0.1582 -2.3667
 9223TIP3   OH249159   0.632   3.041   1.063  0.3661 -0.0769 -0.2516
 9223TIP3    H149160   0.573   3.109   1.097 -0.1808 -1.0346  0.7737
 9223TIP3    H249161   0.696   3.028   1.133  1.1330  0.1253 -0.8894
 9224TIP3   OH249162   3.849   0.097  12.460 -0.5888 -0.0970  0.0724
 9224TIP3    H149163   3.858   0.006  12.489 -0.8341 -0.0422  0.3263
 9224TIP3    H249164   3.808   0.091  12.374  0.7383 -0.2923 -0.5696
 9225TIP3   OH249165   3.600   5.341  13.605 -0.1466 -0.3519 -0.0906
 9225TIP3    H149166   3.632   5.374  13.689 -0.8324 -0.5567  0.2586
 9225TIP3    H249167   3.559   5.417  13.563  0.8450 -0.0686 -0.5768
 9226TIP3   OH249168   5.555   2.644   4.398 -0.1309  0.3286 -0.0063
 9226TIP3    H149169   5.544   2.685   4.312  0.5569 -0.9412 -0.7277
 9226TIP3    H249170   5.474   2.596   4.412 -0.2707  0.5906  0.0864
 9227TIP3   OH249171   5.693   2.947  11.296  0.0321 -0.5022  0.3191
 9227TIP3    H149172   5.663   2.941  11.387  0.1275  0.6491  0.4456
 9227TIP3    H249173   5.619   2.915  11.245 -0.5496  0.1263  0.7460
 9228TIP3   OH249174   0.130   0.671  12.403 -0.2790  0.3469 -0.3153
 9228TIP3    H149175   0.103   0.617  12.477 -0.7247 -1.1767 -1.5479
 9228TIP3    H249176   0.225   0.656  12.395 -0.4673 -0.6045 -0.9002
 9229TIP3   OH249177   5.781   2.415   0.637  0.1906 -0.1954  0.2224
 9229TIP3    H149178   5.856   2.360   0.657  0.9641  1.2612  1.5265
 9229TIP3    H249179   5.779   2.480   0.707 -1.7163  0.3980 -0.3096
 9230TIP3   OH249180   2.230   4.202  15.840  0.1067  0.1090 -0.2351
 9230TIP3    H149181   2.314   4.156  15.831 -0.4002 -1.1235  1.0910
 9230TIP3    H249182   2.180   4.149  15.901 -1.5998  0.9216 -0.8789
 9231TIP3   OH249183   6.106   1.892  14.032 -0.5612  0.1635 -0.4130
 9231TIP3    H149184   6.191   1.852  14.052 -0.2802  0.7637 -0.3617
 9231TIP3    H249185   6.046   1.858  14.098 -0.3394 -0.2081 -0.4051
 9232TIP3   OH249186   0.386   2.171   3.943 -0.1904 -0.5418 -0.0265
 9232TIP3    H149187   0.352   2.110   3.877  0.4704 -1.0182  0.0703
 9232TIP3    H249188   0.341   2.254   3.924 -3.9581 -1.8499  2.0942
 9233TIP3   OH249189   6.510   1.544  14.635 -0.0435 -0.1449 -0.5129
 9233TIP3    H149190   6.425   1.553  14.678  0.5741 -0.3837  0.8198
 9233TIP3    H249191   6.495   1.480  14.565 -0.8635 -0.5459  0.0058
 9234TIP3   OH249192   0.150   3.942  13.678  0.2889  0.2546 -0.2375
 9234TIP3    H149193   0.059   3.922  13.700  0.8274 -0.7774  1.1779
 9234TIP3    H249194   0.201   3.905  13.750  1.8111  1.1735 -0.7973
 9235TIP3   OH249195   3.732   4.727  13.875  0.3303  0.6844  0.2527
 9235TIP3    H149196   3.764   4.813  13.903 -1.1074  1.6223 -0.8154
 9235TIP3    H249197   3.658   4.747  13.817  0.3513 -1.2660 -0.5229
 9236TIP3   OH249198   2.550   5.756   0.108 -0.0574 -0.0805  0.4630
 9236TIP3    H149199   2.551   5.852   0.104  0.4203 -0.1205 -0.7071
 9236TIP3    H249200   2.489   5.729   0.040 -0.2492 -0.6121  0.8366
 9237TIP3   OH249201   6.464   0.810   4.355 -0.4787 -0.3128  0.7204
 9237TIP3    H149202   6.396   0.743   4.353 -0.4833 -0.4181  2.7200
 9237TIP3    H249203   6.459   0.851   4.268 -1.1621 -2.1825 -0.1886
 9238TIP3   OH249204   5.419   4.406   0.440 -0.3291 -0.1209 -0.3533
 9238TIP3    H149205   5.324   4.402   0.445 -0.5777  3.4961  0.6980
 9238TIP3    H249206   5.437   4.419   0.347 -0.8380 -0.9278 -0.5730
 9239TIP3   OH249207   5.727   1.877  11.688 -0.0490  0.2475  0.3817
 9239TIP3    H149208   5.770   1.913  11.610  0.0985 -0.2272  0.2456
 9239TIP3    H249209   5.746   1.784  11.685  2.4150  0.5905  2.5088
 9240TIP3   OH249210   2.576   5.976   2.484  0.1456  0.0040  0.3108
 9240TIP3    H149211   2.652   5.918   2.493  0.6624  0.6344  0.1189
 9240TIP3    H249212   2.512   5.924   2.437  1.1091  0.0316 -1.0969
 9241TIP3   OH249213   4.075   0.658   5.971 -0.4379 -0.2956 -0.1936
 9241TIP3    H149214   4.162   0.684   5.942 -0.4862  0.3357  0.2157
 9241TIP3    H249215   4.048   0.591   5.908  0.0787 -0.0367 -0.6969
 9242TIP3   OH249216   2.841   6.748   4.378 -0.7724  0.0714 -0.0576
 9242TIP3    H149217   2.831   6.837   4.411 -0.8666 -0.5295  1.6461
 9242TIP3    H249218   2.912   6.754   4.314 -1.2121  1.4697 -0.4595
 9243TIP3   OH249219   2.407   3.926  16.562  0.2572  0.2253 -0.1071
 9243TIP3    H149220   2.368   4.011  16.542 -1.6730 -0.0058  2.2303
 9243TIP3    H249221   2.482   3.947  16.618  0.8203  0.4447 -0.9279
 9244TIP3   OH249222   0.572   2.752   4.743  0.0707 -0.6643  0.6764
 9244TIP3    H149223   0.555   2.828   4.687 -1.2428 -1.9689 -0.8185
 9244TIP3    H249224   0.494   2.746   4.798 -0.8212 -2.0851 -0.6680
 9245TIP3   OH249225   5.123   1.093   3.241 -0.1315 -0.2465 -0.5931
 9245TIP3    H149226   5.106   1.132   3.155  0.1883  2.2181  0.4043
 9245TIP3    H249227   5.148   1.166   3.297 -1.2666 -1.6357  1.8826
 9246TIP3   OH249228   1.214   2.037   4.352  0.0516  0.0037  0.0396
 9246TIP3    H149229   1.275   1.966   4.369  0.7507  0.5232 -0.2247
 9246TIP3    H249230   1.142   2.023   4.413  1.0132  0.0713  1.2212
 9247TIP3   OH249231   0.792   2.775   5.836 -0.7458  0.3888 -0.2241
 9247TIP3    H149232   0.840   2.784   5.919 -1.9261 -0.2789  0.5643
 9247TIP3    H249233   0.811   2.686   5.807 -1.2037  0.2401 -0.0844
 9248TIP3   OH249234   5.632   0.088   0.396 -0.0313 -0.2494  0.6031
 9248TIP3    H149235   5.546   0.126   0.378 -0.9543 -1.8116  1.4761
 9248TIP3    H249236   5.655   0.041   0.317  1.1105  1.9667 -0.4797
 9249TIP3   OH249237   6.121   6.107   4.470 -0.1427  0.1728 -0.2252
 9249TIP3    H149238   6.032   6.073   4.474 -0.4203  0.9670  0.5676
 9249TIP3    H249239   6.177   6.030   4.479 -0.7548 -0.2011  0.4148
 9250TIP3   OH249240   3.776   1.787   1.562  0.4561  0.0549  0.0405
 9250TIP3    H149241   3.740   1.874   1.544  0.4574 -0.0769 -0.6166
 9250TIP3    H249242   3.783   1.745   1.476 -2.4428 -1.7598  0.5479
 9251TIP3   OH249243   3.346   1.327   0.616  0.3166 -0.0447  0.1848
 9251TIP3    H149244   3.392   1.314   0.534 -1.4590  2.1149 -1.2799
 9251TIP3    H249245   3.256   1.299   0.598  0.0800 -0.2946  1.6433
 9252TIP3   OH249246   2.239   3.486   1.687  0.0938  0.3886 -0.1236
 9252TIP3    H149247   2.198   3.541   1.754  0.0913  0.7551 -0.4242
 9252TIP3    H249248   2.278   3.413   1.736 -0.9806 -0.0190  0.1579
 9253TIP3   OH249249   4.312   4.838  11.199  0.4274 -0.1407 -0.3504
 9253TIP3    H149250   4.255   4.827  11.276  1.3439 -2.6208  0.0789
 9253TIP3    H249251   4.383   4.894  11.230  0.4764 -0.6274  0.4639
 9254TIP3   OH249252   1.233   6.497  11.258  0.4441  0.2964  0.3920
 9254TIP3    H149253   1.223   6.407  11.290  1.8261 -0.7165 -1.8098
 9254TIP3    H249254   1.296   6.490  11.187  0.4264  3.0117  0.0196
 9255TIP3   OH249255   1.694   3.909   5.472  0.8273  0.6581 -0.0019
 9255TIP3    H149256   1.711   3.827   5.517  1.4065  1.3460  1.0701
 9255TIP3    H249257   1.755   3.909   5.398 -0.7777 -0.9045 -1.4343
 9256TIP3   OH249258   1.841   1.815  14.452 -0.1783 -0.8451  0.6003
 9256TIP3    H149259   1.817   1.723  14.464 -1.2148 -0.5644  0.7909
 9256TIP3    H249260   1.851   1.849  14.541  1.7720 -1.1338  0.5412
 9257TIP3   OH249261   3.461   2.742  14.698 -0.6816 -0.5016  0.2411
 9257TIP3    H149262   3.425   2.675  14.758 -0.3380  0.5701  1.7019
 9257TIP3    H249263   3.536   2.778  14.745 -0.1394  0.0923 -1.0428
 9258TIP3   OH249264   3.405   5.667   5.808 -0.0468 -0.6940  0.6565
 9258TIP3    H149265   3.380   5.749   5.849 -0.6872 -1.5034  1.9286
 9258TIP3    H249266   3.324   5.632   5.772  0.2528 -0.7086 -0.0299
 9259TIP3   OH249267   5.368   0.016  12.918  0.7740 -0.0638 -0.0092
 9259TIP3    H149268   5.362  -0.079  12.913  0.9887 -0.0451 -0.7746
 9259TIP3    H249269   5.307   0.041  12.987 -0.3496 -0.6489 -0.7602
 9260TIP3   OH249270   0.474   0.894   4.912 -0.8098 -0.3063 -0.4094
 9260TIP3    H149271   0.459   0.844   4.832 -0.6124  1.0854 -1.3604
 9260TIP3    H249272   0.391   0.891   4.959 -1.1725 -0.4612 -1.0594
 9261TIP3   OH249273   6.246   5.015  11.462 -0.1867 -0.0953 -0.4284
 9261TIP3    H149274   6.272   4.936  11.509 -0.9210 -0.9652 -1.4521
 9261TIP3    H249275   6.152   5.003  11.445  0.2062 -0.1698 -2.7884
 9262TIP3   OH249276   5.783   1.255  12.796 -0.0889 -0.0568  0.2910
 9262TIP3    H149277   5.863   1.304  12.818 -1.2073  1.3698  1.3609
 9262TIP3    H249278   5.794   1.232  12.704  1.6425 -0.0885  0.4593
 9263TIP3   OH249279   0.868   1.498   0.223 -0.2563  0.0117  0.0165
 9263TIP3    H149280   0.933   1.430   0.237 -0.9536 -0.6570  0.0580
 9263TIP3    H249281   0.811   1.494   0.300  0.4769  1.5583  0.6790
 9264TIP3   OH249282   1.913   4.638  11.364 -0.1295  0.0364 -0.1138
 9264TIP3    H149283   1.966   4.591  11.428 -0.3129  1.2532  0.9799
 9264TIP3    H249284   1.922   4.730  11.388  0.9913  0.7147 -2.7819
 9265TIP3   OH249285   4.857   2.618   2.390 -0.4312  0.0858  0.2537
 9265TIP3    H149286   4.839   2.701   2.347 -1.2981 -0.6435 -0.8371
 9265TIP3    H249287   4.881   2.642   2.479 -0.7405  1.4986 -0.0217
 9266TIP3   OH249288   0.105   5.622   1.484 -0.0407  0.1780 -0.0592
 9266TIP3    H149289   0.130   5.552   1.545  1.7400  0.3405 -0.5555
 9266TIP3    H249290   0.081   5.695   1.541 -1.1957 -0.5653  0.4515
 9267TIP3   OH249291   3.635   0.440   1.336  0.4429  0.2599  0.5459
 9267TIP3    H149292   3.668   0.414   1.250  3.1591 -0.6671  1.7758
 9267TIP3    H249293   3.557   0.385   1.349  0.6585 -0.4241 -0.8287
 9268TIP3   OH249294   0.793   5.818  11.392 -0.3354  0.9095 -0.4885
 9268TIP3    H149295   0.805   5.788  11.482 -3.0349  1.5868  0.1858
 9268TIP3    H249296   0.814   5.912  11.396  0.8160  0.6859 -0.9012
 9269TIP3   OH249297   6.399   6.732   0.583  0.2321 -0.0164 -0.5864
 9269TIP3    H149298   6.421   6.744   0.490  1.3011 -0.6951 -0.4313
 9269TIP3    H249299   6.481   6.706   0.624 -0.3075 -0.0353  0.5026
 9270TIP3   OH249300   1.641   3.439  14.247  0.1233 -0.7736 -0.7823
 9270TIP3    H149301   1.720   3.468  14.292  0.6324 -0.7509 -1.6563
 9270TIP3    H249302   1.610   3.364  14.298  1.1025 -1.2107 -0.8004
 9271TIP3   OH249303   0.996   0.503   1.730 -0.3164 -0.0506 -0.8233
 9271TIP3    H149304   1.032   0.511   1.642 -0.7322  0.7059 -0.9370
 9271TIP3    H249305   1.013   0.589   1.771  0.3347 -0.5603  0.0118
 9272TIP3   OH249306   4.892   2.230  11.959 -0.6852  0.7790 -0.4704
 9272TIP3    H149307   4.844   2.247  11.878  1.0552  3.0020 -1.1274
 9272TIP3    H249308   4.827   2.191  12.018 -2.1720 -0.2242 -2.6660
 9273TIP3   OH249309   6.451   2.329   1.446  0.3739  0.0599 -0.1052
 9273TIP3    H149310   6.482   2.238   1.449 -0.2864 -0.2103 -1.0857
 9273TIP3    H249311   6.525   2.380   1.479  1.0337 -0.7642 -0.2619
 9274TIP3   OH249312   2.580   1.783   4.093  0.2396 -0.3899 -0.5667
 9274TIP3    H149313   2.514   1.853   4.087 -0.7767 -1.1893  0.6280
 9274TIP3    H249314   2.546   1.714   4.036 -1.1714 -1.6636  1.6416
 9275TIP3   OH249315   1.816   0.761   1.475  0.3075 -0.4179 -0.3417
 9275TIP3    H149316   1.796   0.708   1.552  0.4362 -0.0121 -0.0267
 9275TIP3    H249317   1.874   0.830   1.507 -1.4362  1.1105 -0.3125
 9276TIP3   OH249318   3.550   3.652  15.098 -0.1736 -0.1605 -0.0741
 9276TIP3    H149319   3.493   3.667  15.173  1.2280  2.4141  0.6173
 9276TIP3    H249320   3.496   3.672  15.022 -0.6294  0.8439  0.4872
 9277TIP3   OH249321   5.264   2.378   5.782  0.4230 -0.9083 -0.0867
 9277TIP3    H149322   5.286   2.444   5.847  0.4694 -0.6982 -0.3139
 9277TIP3    H249323   5.330   2.389   5.714  0.8996 -1.7057  0.2359
 9278TIP3   OH249324   2.582   0.736  13.790 -0.1179  0.4205 -0.3262
 9278TIP3    H149325   2.593   0.827  13.760 -0.3944  0.9575  1.1435
 9278TIP3    H249326   2.670   0.699  13.787 -0.0787  0.5576 -1.4213
 9279TIP3   OH249327   4.622   5.593   2.944 -0.0418 -0.8893 -0.0421
 9279TIP3    H149328   4.688   5.593   3.014  1.2156 -1.9998 -1.1785
 9279TIP3    H249329   4.620   5.684   2.914  1.6855 -0.9905 -0.5950
 9280TIP3   OH249330   3.540   4.351  16.746 -0.3446 -0.3896  0.3703
 9280TIP3    H149331   3.477   4.420  16.765 -1.4825 -1.2737 -0.0800
 9280TIP3    H249332   3.489   4.282  16.704  0.8330 -1.3459  0.4357
 9281TIP3   OH249333   1.458   6.073   5.652  0.6317  0.2194 -0.6116
 9281TIP3    H149334   1.366   6.096   5.640  0.9943  1.5320 -1.0000
 9281TIP3    H249335   1.466   6.052   5.745 -0.4171 -1.7049 -0.8940
 9282TIP3   OH249336   5.674   0.840   5.539 -0.6042 -0.1233 -0.7767
 9282TIP3    H149337   5.755   0.887   5.564 -0.8032  1.2048 -2.4680
 9282TIP3    H249338   5.703   0.751   5.522  0.5672  0.3838 -1.5788
 9283TIP3   OH249339   1.813   2.240   5.423 -0.4614  0.1401 -0.0896
 9283TIP3    H149340   1.883   2.273   5.480 -2.0556 -0.2527  2.2639
 9283TIP3    H249341   1.805   2.306   5.354  1.0883  1.0346  0.5208
 9284TIP3   OH249342   1.329   5.668  12.274  0.1645 -0.0631  0.0648
 9284TIP3    H149343   1.295   5.742  12.324 -3.5125 -1.9254  0.6316
 9284TIP3    H249344   1.331   5.699  12.184 -2.1905  0.5574  0.1615
 9285TIP3   OH249345   2.109   5.196   4.452  0.3333  0.1346 -0.0921
 9285TIP3    H149346   2.035   5.256   4.461  0.7120  0.3967  1.4747
 9285TIP3    H249347   2.084   5.119   4.502  1.2699  0.3804  0.7762
 9286TIP3   OH249348   6.312   6.339   0.079 -0.0708  1.3166 -0.0878
 9286TIP3    H149349   6.233   6.358   0.028  0.4231 -0.2126 -1.5109
 9286TIP3    H249350   6.377   6.402   0.048 -0.2284  1.4422 -0.1650
 9287TIP3   OH249351   1.577   1.295   0.534  0.1421 -0.4058  0.2664
 9287TIP3    H149352   1.629   1.291   0.614  1.5037  2.5443 -0.3046
 9287TIP3    H249353   1.602   1.379   0.494 -3.5137  0.1560 -1.1821
 9288TIP3   OH249354   4.235   1.767  13.624 -0.0094 -0.3311  0.1636
 9288TIP3    H149355   4.198   1.836  13.680  1.2998  1.1926 -0.7481
 9288TIP3    H249356   4.164   1.704  13.613 -1.7681  1.6040 -0.1634
 9289TIP3   OH249357   6.594   5.526  10.864  0.0565  0.1018 -0.6073
 9289TIP3    H149358   6.559   5.524  10.775 -0.3075  1.0601 -0.5035
 9289TIP3    H249359   6.568   5.442  10.903 -1.7698  0.5827 -0.6848
 9290TIP3   OH249360   1.373   2.069  10.999  0.4359  0.6105  0.1507
 9290TIP3    H149361   1.415   2.100  10.919  0.1259  0.3883 -0.1022
 9290TIP3    H249362   1.290   2.117  11.002 -0.1401 -0.3422 -0.3551
 9291TIP3   OH249363   3.732   6.297   1.574  0.0913  0.4434 -0.0431
 9291TIP3    H149364   3.732   6.223   1.634 -0.4662  0.4417 -0.0401
 9291TIP3    H249365   3.682   6.365   1.619 -3.4540 -0.7014 -1.8594
 9292TIP3   OH249366   3.368   3.701   0.840  0.1036  0.0457 -0.1514
 9292TIP3    H149367   3.293   3.750   0.873  0.8472  1.4390 -0.4470
 9292TIP3    H249368   3.359   3.703   0.745  0.7545  0.6711 -0.2142
 9293TIP3   OH249369   6.690   6.827   3.969  0.6314 -0.2394  0.0219
 9293TIP3    H149370   6.619   6.849   3.909  0.0092  0.6344  1.0309
 9293TIP3    H249371   6.766   6.875   3.936  0.9975 -1.7840 -1.5079
 9294TIP3   OH249372   4.499   1.240  12.859  1.0103  0.1702 -0.3022
 9294TIP3    H149373   4.549   1.176  12.909  0.0310 -0.0085  0.4871
 9294TIP3    H249374   4.446   1.286  12.924 -0.5245 -0.2661 -1.1819
 9295TIP3   OH249375   1.638   6.417  13.385 -0.2561 -0.0014  1.2859
 9295TIP3    H149376   1.612   6.325  13.390 -0.0082 -0.0383  2.0184
 9295TIP3    H249377   1.728   6.419  13.416  0.5326  0.1892 -0.8551
 9296TIP3   OH249378   4.803   0.691   3.092  0.4969 -0.1809  0.4136
 9296TIP3    H149379   4.890   0.729   3.079  0.0291  1.1776  0.9686
 9296TIP3    H249380   4.744   0.767   3.097 -0.7246 -1.0642  0.0442
 9297TIP3   OH249381   1.978   0.688   0.121 -0.0237  0.2819 -0.2504
 9297TIP3    H149382   1.902   0.744   0.133 -0.3865 -0.3963  0.8924
 9297TIP3    H249383   1.941   0.600   0.110  0.5828 -0.1532  0.9802
 9298TIP3   OH249384   5.327   3.620  13.519 -0.1900 -0.0148 -0.1305
 9298TIP3    H149385   5.354   3.704  13.482 -0.6924  0.8021  1.2461
 9298TIP3    H249386   5.253   3.642  13.576  1.1334 -0.9943  2.1106
 9299TIP3   OH249387   5.954   1.997   3.915  0.6660  0.6539 -0.6558
 9299TIP3    H149388   5.928   2.053   3.989  2.4876  0.2926  0.3333
 9299TIP3    H249389   5.946   1.908   3.949 -0.4876  0.3634 -1.6248
 9300TIP3   OH249390   0.569   6.099   1.362 -0.9367 -0.2531  0.5903
 9300TIP3    H149391   0.657   6.074   1.392 -1.5920 -0.7244  2.2095
 9300TIP3    H249392   0.581   6.186   1.324  0.3001 -0.4930  0.3686
 9301TIP3   OH249393   5.388   5.305   0.806 -0.0518 -0.3894  0.3595
 9301TIP3    H149394   5.305   5.316   0.853 -0.1688  1.6101 -0.2142
 9301TIP3    H249395   5.442   5.378   0.835  0.9810 -0.8352 -0.3772
 9302TIP3   OH249396   0.249   3.802  11.291 -0.6375  0.1757  0.3742
 9302TIP3    H149397   0.317   3.847  11.342 -0.7280  0.5661  0.1543
 9302TIP3    H249398   0.297   3.747  11.229 -0.5255 -0.3471  0.9145
 9303TIP3   OH249399   3.948   3.508  12.274  0.5230 -0.3795  0.1380
 9303TIP3    H149400   3.863   3.470  12.255  0.0430  0.1399  1.1568
 9303TIP3    H249401   3.986   3.526  12.188 -1.2232  1.1866 -0.3854
 9304TIP3   OH249402   4.914   5.170   5.014  0.5415  0.3297  0.4527
 9304TIP3    H149403   4.978   5.227   5.056  0.1231  0.9969  0.2027
 9304TIP3    H249404   4.958   5.085   5.006  2.0674  1.2188 -1.3542
 9305TIP3   OH249405   2.050   6.347   1.685 -0.4569  0.4200 -0.1284
 9305TIP3    H149406   2.088   6.428   1.719 -0.7068  0.9897 -1.1638
 9305TIP3    H249407   2.049   6.287   1.760  0.0348  1.2650  0.5648
 9306TIP3   OH249408   6.740   3.343  13.831  0.4777  1.2992  0.6433
 9306TIP3    H149409   6.795   3.303  13.764 -0.7440 -2.0126  1.4278
 9306TIP3    H249410   6.789   3.333  13.912 -0.5691 -0.3905  1.1218
 9307TIP3   OH249411   3.600   3.614   4.919  0.4049  0.0173  0.9385
 9307TIP3    H149412   3.664   3.549   4.951  0.0602 -0.0440  1.5298
 9307TIP3    H249413   3.564   3.652   4.999 -1.4614 -1.0719  0.6645
 9308TIP3   OH249414   3.810   6.011  11.607 -1.0321  0.2728 -0.3662
 9308TIP3    H149415   3.758   6.091  11.617 -1.1567  0.4585 -2.1883
 9308TIP3    H249416   3.900   6.042  11.601 -0.9625  0.1699  0.1235
 9309TIP3   OH249417   4.744   4.853   2.052 -0.0566  0.0321 -0.1964
 9309TIP3    H149418   4.736   4.833   1.959  0.8396 -1.6304  0.0599
 9309TIP3    H249419   4.825   4.810   2.080  0.5652  1.8246  1.0295
 9310TIP3   OH249420   1.970   0.085  16.264 -0.0960 -0.4381  0.0866
 9310TIP3    H149421   1.929   0.172  16.268 -0.9429 -0.7932 -0.3885
 9310TIP3    H249422   2.007   0.081  16.176  0.5482 -0.3011  0.3499
 9311TIP3   OH249423   3.208   1.349   4.179  0.0134 -0.5063 -0.5081
 9311TIP3    H149424   3.227   1.416   4.244 -3.9608  1.1605 -0.7290
 9311TIP3    H249425   3.221   1.393   4.095 -2.1345 -0.0202 -0.6559
 9312TIP3   OH249426   0.948   6.751  13.824  0.2473 -0.3365 -0.2718
 9312TIP3    H149427   1.043   6.746  13.838  0.5650  1.5879 -1.2541
 9312TIP3    H249428   0.939   6.811  13.749 -1.7298 -0.9563 -0.5830
 9313TIP3   OH249429   5.141   2.986  15.903  0.2676  0.2467  0.3975
 9313TIP3    H149430   5.160   2.930  15.828  1.0519  0.1975  0.6297
 9313TIP3    H249431   5.225   3.024  15.927  0.2568 -0.7187  2.0480
 9314TIP3   OH249432   5.548   5.788  10.942  0.1501  0.1591  0.5275
 9314TIP3    H149433   5.536   5.783  11.037  0.9568  0.0757  0.6316
 9314TIP3    H249434   5.464   5.759  10.906  0.5370 -1.9784  1.2070
 9315TIP3   OH249435   2.882   5.912  12.205 -0.3411  0.4558 -0.4567
 9315TIP3    H149436   2.787   5.902  12.199 -0.7123  3.1257 -0.3560
 9315TIP3    H249437   2.902   5.905  12.299 -0.0718 -2.1228 -0.6278
 9316TIP3   OH249438   4.321   4.657   4.446  0.2305 -1.0296 -0.0610
 9316TIP3    H149439   4.386   4.688   4.383 -2.0161  0.2002 -1.9451
 9316TIP3    H249440   4.332   4.562   4.447  1.1111 -0.9761 -1.4283
 9317TIP3   OH249441   2.616   6.288  16.754 -0.2726 -0.0208  0.2535
 9317TIP3    H149442   2.705   6.320  16.770  0.1801 -1.6172  1.1727
 9317TIP3    H249443   2.566   6.316  16.831 -1.4124  3.4601 -1.5551
 9318TIP3   OH249444   0.700   4.570  15.537  0.2786  0.1768 -0.1208
 9318TIP3    H149445   0.754   4.638  15.497  0.5875 -0.1963 -0.3480
 9318TIP3    H249446   0.724   4.572  15.630  0.4254  0.2501 -0.1601
 9319TIP3   OH249447   5.613   4.151   5.244  0.3156  0.0362  0.4022
 9319TIP3    H149448   5.546   4.192   5.300 -0.8461 -2.3945  0.9127
 9319TIP3    H249449   5.565   4.128   5.164  0.4779 -1.7168  0.7669
 9320TIP3   OH249450   1.324   1.414  15.380 -0.4852  0.1219  0.6747
 9320TIP3    H149451   1.334   1.391  15.288  1.3945  1.4370  0.5123
 9320TIP3    H249452   1.237   1.379  15.403 -0.4873 -1.3179 -1.2213
 9321TIP3   OH249453   4.724   4.945  12.478  0.2655  0.5300 -0.1245
 9321TIP3    H149454   4.650   4.893  12.447  1.2762 -0.7594 -0.4525
 9321TIP3    H249455   4.691   5.035  12.477 -1.5713 -0.0887  0.6136
 9322TIP3   OH249456   1.806   2.993  14.311 -0.0559 -0.2001 -0.2495
 9322TIP3    H149457   1.835   3.076  14.273 -0.0119  0.2256  0.6842
 9322TIP3    H249458   1.850   2.925  14.260  0.3626  0.3698 -0.6467
 9323TIP3   OH249459   3.019   5.139   2.855 -0.2298  0.0401  0.2145
 9323TIP3    H149460   3.079   5.164   2.784 -1.4961  3.5883  0.1859
 9323TIP3    H249461   3.074   5.142   2.933  0.4186 -0.3636 -0.2116
 9324TIP3   OH249462   5.745   2.104   6.125  0.5503 -0.5787 -0.3304
 9324TIP3    H149463   5.760   2.197   6.144  0.3729 -0.2393 -1.7191
 9324TIP3    H249464   5.786   2.058   6.198  0.9725  0.5823  0.1984
 9325TIP3   OH249465   3.650   1.142  14.507 -0.0903 -0.2406 -0.2692
 9325TIP3    H149466   3.698   1.140  14.590  0.8162 -1.4201 -0.7765
 9325TIP3    H249467   3.642   1.235  14.486  0.5549  0.0375  0.6349
 9326TIP3   OH249468   3.665   1.643   3.487  0.1105 -0.5644  0.1050
 9326TIP3    H149469   3.598   1.651   3.555  0.3479  0.4104  0.2470
 9326TIP3    H249470   3.616   1.635   3.405 -0.2164  0.7680  0.1377
 9327TIP3   OH249471   6.448   0.684  14.836  0.2167  0.3190  0.0829
 9327TIP3    H149472   6.371   0.727  14.800 -0.7598  1.3116  3.0769
 9327TIP3    H249473   6.434   0.591  14.817 -1.1169  0.6103 -0.4657
 9328TIP3   OH249474   5.419   3.065   0.609  0.0674  0.1285 -0.0586
 9328TIP3    H149475   5.484   3.090   0.543  0.0204 -0.2788 -0.2652
 9328TIP3    H249476   5.416   3.139   0.669  1.2767 -0.1544  0.3830
 9329TIP3   OH249477   5.619   6.330   5.122 -0.3770  0.3814 -0.4884
 9329TIP3    H149478   5.614   6.416   5.079  1.9742  1.1851  0.6244
 9329TIP3    H249479   5.566   6.340   5.201 -0.5410  0.6429 -0.6292
 9330TIP3   OH249480   2.184   4.910   5.703 -0.0003 -0.6242 -0.0937
 9330TIP3    H149481   2.112   4.935   5.761 -0.3803 -1.0228 -0.3885
 9330TIP3    H249482   2.207   4.821   5.730 -1.4197 -1.5523 -1.7390
 9331TIP3   OH249483   6.165   0.554  12.244 -0.1309  0.8507 -0.2968
 9331TIP3    H149484   6.154   0.612  12.168 -0.9669  0.5669 -0.3949
 9331TIP3    H249485   6.079   0.516  12.258 -0.4540  2.2715  1.9250
 9332TIP3   OH249486   2.683   2.773  13.953  0.1249 -0.2980  0.2991
 9332TIP3    H149487   2.631   2.804  14.027 -1.1237 -1.2265 -0.1370
 9332TIP3    H249488   2.774   2.781  13.982 -0.3107 -0.1147  1.7122
 9333TIP3   OH249489   4.040   1.092  12.636 -0.1267  0.4641  0.5487
 9333TIP3    H149490   4.135   1.096  12.649 -0.0007  0.1646 -0.2398
 9333TIP3    H249491   4.027   1.117  12.545 -0.6136 -1.4104  0.0639
 9334TIP3   OH249492   3.708   2.941  15.371 -0.2903 -0.3793 -0.2416
 9334TIP3    H149493   3.656   2.958  15.449 -1.7804 -1.0689 -1.0302
 9334TIP3    H249494   3.646   2.904  15.309  0.8760  0.0457 -1.7241
 9335TIP3   OH249495   1.747   2.153   1.469 -0.2958 -0.0202  0.2736
 9335TIP3    H149496   1.769   2.124   1.558  0.0945  0.2635  0.2699
 9335TIP3    H249497   1.743   2.072   1.418 -0.4035 -0.1741  0.5213
 9336TIP3   OH249498   2.774   6.419  13.999  0.9227 -0.0702  0.5701
 9336TIP3    H149499   2.782   6.511  13.974  2.6647 -0.6545 -1.2324
 9336TIP3    H249500   2.692   6.390  13.958  0.9913  0.3667  0.1239
 9337TIP3   OH249501   2.262   3.884   6.189  0.0860  0.0242 -0.4662
 9337TIP3    H149502   2.218   3.961   6.152 -2.3706 -0.2945  1.5863
 9337TIP3    H249503   2.294   3.913   6.274  0.0003 -0.9709 -0.0876
 9338TIP3   OH249504   2.435   0.508   3.109 -0.0723 -0.0198 -0.2887
 9338TIP3    H149505   2.522   0.549   3.111 -0.6753  1.2960  0.4711
 9338TIP3    H249506   2.377   0.577   3.079 -0.9611 -0.6778 -0.1108
 9339TIP3   OH249507   2.048   0.041  12.898  0.5617  0.4340  0.0112
 9339TIP3    H149508   2.064   0.036  12.992 -1.2859 -1.2225  0.3184
 9339TIP3    H249509   2.043   0.134  12.879 -1.1008  0.8285  2.0078
 9340TIP3   OH249510   6.641   2.975  12.026  0.5147  0.2402  0.0661
 9340TIP3    H149511   6.673   3.062  12.000  0.7813 -0.6303 -2.8450
 9340TIP3    H249512   6.639   2.978  12.122  3.1716  2.5107  0.1720
 9341TIP3   OH249513   0.768   5.036   5.172 -0.4863 -0.0728 -0.6177
 9341TIP3    H149514   0.676   5.012   5.184 -0.6713  0.1571 -1.4390
 9341TIP3    H249515   0.812   4.954   5.150 -0.6406 -0.0707 -0.9461
 9342TIP3   OH249516   1.240   6.588  14.157 -0.3954  0.4007  0.1817
 9342TIP3    H149517   1.206   6.661  14.209 -2.1168 -0.0595 -0.2069
 9342TIP3    H249518   1.216   6.610  14.067  1.2809  0.5056 -0.2736
 9343TIP3   OH249519   5.264   0.818   1.563 -0.2375  0.2277  0.2312
 9343TIP3    H149520   5.302   0.731   1.571 -1.4992 -0.3917 -0.2149
 9343TIP3    H249521   5.295   0.865   1.640  0.5508 -0.5769  0.4220
 9344TIP3   OH249522   1.430   2.935   2.661  0.2622  0.0820 -0.2111
 9344TIP3    H149523   1.494   2.970   2.599  0.2273 -0.8519 -0.7771
 9344TIP3    H249524   1.465   2.960   2.747  2.0900 -1.4808 -0.4243
 9345TIP3   OH249525   1.635   5.338  12.463  0.5370 -0.7112  0.1448
 9345TIP3    H149526   1.586   5.416  12.438 -1.0621 -2.0159 -0.9456
 9345TIP3    H249527   1.723   5.353  12.427 -0.7001 -0.9291 -3.3161
 9346TIP3   OH249528   1.757   6.608  14.106 -0.2092  0.5598 -0.6302
 9346TIP3    H149529   1.734   6.540  14.170 -0.8322  0.9856 -0.3914
 9346TIP3    H249530   1.851   6.619  14.115 -0.2805  0.5832  0.1887
 9347TIP3   OH249531   3.436   2.923  15.827 -0.1789 -1.1266 -0.3584
 9347TIP3    H149532   3.490   2.958  15.898 -1.5645 -0.4884  0.4209
 9347TIP3    H249533   3.383   2.856  15.868  0.6205 -2.3918 -1.3102
 9348TIP3   OH249534   2.898   5.473  15.333 -0.4656 -0.3761  0.3925
 9348TIP3    H149535   2.908   5.502  15.242  0.2455  1.3780  1.0094
 9348TIP3    H249536   2.808   5.495  15.356 -0.2638  0.3595  0.5014
 9349TIP3   OH249537   5.650   5.933  14.876  0.4090 -0.3669 -0.2836
 9349TIP3    H149538   5.684   5.919  14.965  0.2756 -2.8470 -0.5525
 9349TIP3    H249539   5.699   5.871  14.822  1.9437  2.4660 -2.3909
 9350TIP3   OH249540   2.818   2.161   5.669  0.0185 -0.7452 -0.6137
 9350TIP3    H149541   2.852   2.136   5.755  0.2792  0.2720 -0.4005
 9350TIP3    H249542   2.862   2.103   5.607  1.3190 -0.2040 -0.2314
 9351TIP3   OH249543   3.839   1.222   0.500  0.2391  0.3434  0.2183
 9351TIP3    H149544   3.876   1.202   0.413 -1.4261 -0.6192 -0.3259
 9351TIP3    H249545   3.807   1.312   0.492  1.0166  0.6204  0.1761
 9352TIP3   OH249546   0.879   2.720  12.582 -0.2714  0.1648  0.2123
 9352TIP3    H149547   0.914   2.807  12.564  1.3269 -0.5736 -0.4553
 9352TIP3    H249548   0.791   2.721  12.544 -0.8911  1.9526  1.5741
 9353TIP3   OH249549   1.882   5.073   0.481 -0.1566  0.2849 -0.1240
 9353TIP3    H149550   1.941   5.068   0.406 -0.2040 -0.7573 -0.1045
 9353TIP3    H249551   1.847   4.984   0.489 -1.4720  0.8039  0.0677
 9354TIP3   OH249552   4.549   4.987   0.087 -0.8068  0.0796 -0.6619
 9354TIP3    H149553   4.582   5.037   0.162 -1.7426 -1.5484  0.9155
 9354TIP3    H249554   4.627   4.968   0.035 -0.2416  1.9189 -0.5559
 9355TIP3   OH249555   5.168   4.886  13.436  0.3949 -0.0331 -0.5443
 9355TIP3    H149556   5.078   4.868  13.409  0.3112 -0.4301 -0.0069
 9355TIP3    H249557   5.165   4.974  13.473  0.3127  0.1194 -0.9097
 9356TIP3   OH249558   2.598   2.735  12.736 -0.6417 -0.1037 -0.1514
 9356TIP3    H149559   2.579   2.674  12.665  1.0311 -0.4165 -0.3584
 9356TIP3    H249560   2.662   2.796  12.700 -0.7773  0.5574  0.6802
 9357TIP3   OH249561   2.670   5.646  16.533  0.5733 -0.9209 -0.5733
 9357TIP3    H149562   2.586   5.679  16.565 -0.1131 -1.9109 -1.2616
 9357TIP3    H249563   2.735   5.679  16.594 -0.3363 -0.1966  0.0166
 9358TIP3   OH249564   6.013   1.703   0.687  0.0179  0.0989  0.8145
 9358TIP3    H149565   5.957   1.641   0.733 -1.9352  1.0320 -0.1725
 9358TIP3    H249566   6.020   1.667   0.598  0.3292  0.4038  0.7131
 9359TIP3   OH249567   6.426   2.970  15.984 -0.6308 -0.7236  0.8751
 9359TIP3    H149568   6.469   2.931  16.060 -0.9654  0.4995  1.7342
 9359TIP3    H249569   6.498   3.006  15.932 -0.4523 -0.8011  1.0662
 9360TIP3   OH249570   4.930   6.821   0.274  0.4010 -0.5411  0.0370
 9360TIP3    H149571   4.841   6.828   0.311 -0.1227 -1.5550 -0.9938
 9360TIP3    H249572   4.988   6.831   0.350 -0.6013 -0.5676  0.8286
 9361TIP3   OH249573   3.379   3.979   5.378 -0.0509  0.4736 -0.3665
 9361TIP3    H149574   3.453   4.036   5.359  0.2230  0.6065  0.9645
 9361TIP3    H249575   3.305   4.018   5.331  0.6254  0.5644 -1.3801
 9362TIP3   OH249576   5.036   1.787  16.899  0.4385 -0.0560 -0.2179
 9362TIP3    H149577   5.086   1.732  16.960  1.4876  0.5719 -0.4893
 9362TIP3    H249578   5.027   1.871  16.945  0.0038 -0.0234 -0.3587
 9363TIP3   OH249579   3.377   1.287  15.997  0.0607  0.0867  0.4006
 9363TIP3    H149580   3.457   1.338  16.005  0.6942 -1.0062  1.4556
 9363TIP3    H249581   3.341   1.285  16.086  0.0723 -1.2957  0.3918
 9364TIP3   OH249582   0.723   1.715   0.625 -0.8552  0.4286 -0.0190
 9364TIP3    H149583   0.816   1.699   0.607 -0.7264  0.2855  0.7569
 9364TIP3    H249584   0.708   1.805   0.596 -1.1703 -0.4241 -2.8326
 9365TIP3   OH249585   2.430   3.659  13.129  0.4762  0.6384  0.4890
 9365TIP3    H149586   2.362   3.707  13.176  0.2249  0.8512 -0.0779
 9365TIP3    H249587   2.506   3.717  13.132  0.5084  0.5824  0.7656
 9366TIP3   OH249588   5.222   5.877  10.883  0.2302 -0.2228 -0.2415
 9366TIP3    H149589   5.184   5.859  10.797  1.1372  0.7866 -0.8735
 9366TIP3    H249590   5.287   5.808  10.896  1.5995  0.8137 -1.3381
 9367TIP3   OH249591   2.862   3.056  12.955 -0.6800 -0.6817  0.0038
 9367TIP3    H149592   2.889   3.134  13.005 -0.1050 -0.1791 -1.0461
 9367TIP3    H249593   2.768   3.049  12.970 -0.3218 -1.4834  2.4197
 9368TIP3   OH249594   0.403   3.772  14.255 -0.2484 -0.1185 -0.7576
 9368TIP3    H149595   0.328   3.769  14.196 -1.0250 -1.9105  0.2291
 9368TIP3    H249596   0.426   3.865  14.259 -2.0009  0.4086 -1.5990
 9369TIP3   OH249597   5.370   1.067  12.717  0.0176  0.2357  0.6493
 9369TIP3    H149598   5.360   1.105  12.804  0.5257  0.3162  0.6749
 9369TIP3    H249599   5.325   1.128  12.658 -1.6601 -0.5745  1.0132
 9370TIP3   OH249600   3.084   2.489   5.422 -0.3994  0.4959 -0.0196
 9370TIP3    H149601   3.145   2.421   5.452 -0.5402 -0.1066 -1.0726
 9370TIP3    H249602   3.001   2.444   5.412 -0.5047  0.8315 -0.6804
 9371TIP3   OH249603   3.436   5.226  15.655 -0.2016 -0.2187 -0.2775
 9371TIP3    H149604   3.483   5.303  15.621 -0.8724  0.8173  1.0431
 9371TIP3    H249605   3.356   5.222  15.603  1.5725 -2.5047 -3.1373
 9372TIP3   OH249606   4.994   4.746   1.811 -0.3873  0.0340 -0.1763
 9372TIP3    H149607   5.031   4.834   1.807 -0.3596 -0.0207 -2.0020
 9372TIP3    H249608   5.035   4.707   1.889 -0.8251  1.7771  1.0036
 9373TIP3   OH249609   1.505   6.433   1.993  0.0868  0.0249 -0.3349
 9373TIP3    H149610   1.583   6.489   1.997  0.2608 -0.1218 -1.3804
 9373TIP3    H249611   1.493   6.416   1.900  0.5913 -2.4732 -0.0236
 9374TIP3   OH249612   6.030   4.797   2.446 -0.5298 -0.1297  0.0089
 9374TIP3    H149613   5.973   4.842   2.384 -1.5956 -1.1682  0.1930
 9374TIP3    H249614   6.103   4.766   2.394 -0.3628  0.8002 -0.3250
 9375TIP3   OH249615   4.060   4.210   1.179  0.0607  0.6336 -0.5990
 9375TIP3    H149616   3.989   4.146   1.186  1.1252 -0.6853 -1.2504
 9375TIP3    H249617   4.035   4.265   1.105 -1.1676  1.3867  0.3480
 9376TIP3   OH249618   0.734   0.660  16.419 -0.2942  0.1418 -0.7049
 9376TIP3    H149619   0.810   0.657  16.477  0.8313 -0.1896 -2.1524
 9376TIP3    H249620   0.720   0.753  16.402  2.0382  0.1464 -3.2063
 9377TIP3   OH249621   3.001   0.931   3.164  0.5588 -0.3681 -0.3444
 9377TIP3    H149622   2.965   0.891   3.085 -0.6878 -0.3833  0.2182
 9377TIP3    H249623   3.031   0.857   3.216 -1.5754 -0.6181  0.6127
 9378TIP3   OH249624   1.073   2.915   3.270 -0.2574 -0.0906 -0.1220
 9378TIP3    H149625   1.108   2.961   3.346 -0.2184  0.4637 -0.4686
 9378TIP3    H249626   1.149   2.901   3.214 -0.4638  0.4902 -0.5570
 9379TIP3   OH249627   2.292   1.659   1.741 -0.3836 -0.2202 -0.5263
 9379TIP3    H149628   2.364   1.597   1.735  0.3627 -0.2466  4.2623
 9379TIP3    H249629   2.334   1.743   1.759 -1.4999  0.6873 -1.9377
 9380TIP3   OH249630   3.275   6.380   0.185 -0.5558 -0.1211  0.6961
 9380TIP3    H149631   3.291   6.292   0.150  0.4767 -0.0973  1.0765
 9380TIP3    H249632   3.335   6.388   0.259 -1.0683  0.6879  1.0446
 9381TIP3   OH249633   5.281   1.034   0.327 -0.0292 -0.7940 -0.1608
 9381TIP3    H149634   5.308   0.970   0.392  1.2636 -0.3032 -0.1804
 9381TIP3    H249635   5.218   1.090   0.374  0.3457 -0.8710  0.4463
 9382TIP3   OH249636   1.065   5.310  11.573 -0.2413  0.4522 -0.2534
 9382TIP3    H149637   1.033   5.231  11.530 -0.3910  0.4217 -0.0904
 9382TIP3    H249638   0.992   5.372  11.567 -0.3996  0.3222  0.2787
 9383TIP3   OH249639   0.091   3.960   1.431  0.5954  0.2982  0.1360
 9383TIP3    H149640   0.004   3.932   1.404  0.5340 -1.1069  1.6373
 9383TIP3    H249641   0.150   3.920   1.366  0.3404 -1.7946  1.0808
 9384TIP3   OH249642   3.775   0.261   5.095 -0.2898  0.1722 -0.0666
 9384TIP3    H149643   3.709   0.304   5.041 -0.8379 -0.7237 -0.1303
 9384TIP3    H249644   3.850   0.248   5.036  0.1021  1.5086  0.1012
 9385TIP3   OH249645   6.534   2.557  12.812 -0.6690 -0.4087  0.3526
 9385TIP3    H149646   6.595   2.582  12.742  0.3175 -0.8285  1.0415
 9385TIP3    H249647   6.456   2.610  12.796 -0.1313  0.1311 -0.5605
 9386TIP3   OH249648   4.017   1.376  14.861  0.0133  0.1180 -0.3648
 9386TIP3    H149649   3.999   1.396  14.953  0.7228  1.5457 -0.5058
 9386TIP3    H249650   4.082   1.441  14.835  0.6917 -0.9964 -1.5625
 9387TIP3   OH249651   1.949   1.415   1.058 -0.0604  0.5719  0.3340
 9387TIP3    H149652   1.981   1.409   1.148  1.6641  0.0527 -0.2855
 9387TIP3    H249653   1.865   1.368   1.060 -0.4726  1.2946  1.8300
 9388TIP3   OH249654   0.463   6.469  11.522  0.3662  0.0934  0.0626
 9388TIP3    H149655   0.513   6.519  11.459 -0.2423  0.5308 -0.0840
 9388TIP3    H249656   0.375   6.508  11.520  0.2652 -0.0599  0.9705
 9389TIP3   OH249657   1.180   3.810  15.445 -0.2705 -0.2266 -0.1895
 9389TIP3    H149658   1.125   3.889  15.442 -2.2813 -1.5130  0.4656
 9389TIP3    H249659   1.231   3.820  15.526 -0.8783  0.1978  0.1584
 9390TIP3   OH249660   3.575   1.970   4.453 -0.5644  0.1634  0.3953
 9390TIP3    H149661   3.491   1.942   4.414  0.3660  0.6561 -2.1897
 9390TIP3    H249662   3.588   2.059   4.420  0.7278  0.3072  1.2319
 9391TIP3   OH249663   4.122   3.664  11.273  0.0664  0.2021  0.3404
 9391TIP3    H149664   4.047   3.722  11.287  0.1287  1.0569 -2.3637
 9391TIP3    H249665   4.130   3.657  11.178  2.1102 -1.6311  0.5576
 9392TIP3   OH249666   4.460   1.770   2.167  0.5615 -0.2952 -0.1747
 9392TIP3    H149667   4.401   1.714   2.217  0.5516 -0.6568 -0.5814
 9392TIP3    H249668   4.520   1.709   2.125  0.1287 -0.0540 -1.1658
 9393TIP3   OH249669   4.426   4.579   1.071  0.2233  0.3709 -0.2064
 9393TIP3    H149670   4.356   4.524   1.035  0.5019 -1.1812  1.4271
 9393TIP3    H249671   4.381   4.638   1.131  0.1015  0.7996 -0.7141
 9394TIP3   OH249672   5.412   0.669   5.501  0.6789  0.3675  0.0673
 9394TIP3    H149673   5.427   0.757   5.466  1.8897  0.3576  0.5147
 9394TIP3    H249674   5.364   0.684   5.583 -0.0127  0.5366 -0.3609
 9395TIP3   OH249675   3.431   3.788  12.630  0.1083 -0.7144 -0.1030
 9395TIP3    H149676   3.426   3.821  12.719 -1.1861  1.5339 -0.9268
 9395TIP3    H249677   3.389   3.856  12.577  1.6411 -1.5489 -2.5480
 9396TIP3   OH249678   2.988   0.816   4.469 -0.0164 -0.3456 -0.8040
 9396TIP3    H149679   2.953   0.862   4.393  0.4755  1.1744 -0.1585
 9396TIP3    H249680   3.030   0.738   4.433 -1.0183 -0.3897 -1.9272
 9397TIP3   OH249681   3.626   2.796  12.758 -0.5368 -0.5404  0.4911
 9397TIP3    H149682   3.631   2.707  12.795 -2.1341 -0.2829  1.4053
 9397TIP3    H249683   3.619   2.853  12.835 -1.7499  0.1919 -0.1427
 9398TIP3   OH249684   3.232   0.624   0.286 -0.2712  0.4630  0.4714
 9398TIP3    H149685   3.154   0.630   0.342 -0.1199  1.6256  0.5866
 9398TIP3    H249686   3.273   0.541   0.310  0.3845  1.4042  2.9280
 9399TIP3   OH249687   1.256   5.872   4.828 -0.0861  0.5604  0.7428
 9399TIP3    H149688   1.183   5.811   4.842 -1.5742  1.7519 -1.3318
 9399TIP3    H249689   1.239   5.944   4.889 -1.0976  1.1723 -0.2284
 9400TIP3   OH249690   5.404   0.978  13.003 -0.8818  0.1005  0.3693
 9400TIP3    H149691   5.456   0.965  13.083 -0.4873 -0.5278  0.0222
 9400TIP3    H249692   5.367   1.066  13.012  3.8339  2.5922 -1.3762
 9401TIP3   OH249693   3.019   4.058   1.331 -0.0032 -0.3454  0.6980
 9401TIP3    H149694   3.087   4.017   1.276 -0.2266 -0.2572  0.3500
 9401TIP3    H249695   3.042   4.033   1.420 -0.1060 -1.1999  0.4972
 9402TIP3   OH249696   0.283   0.486  15.630 -0.0590  0.1258  0.6945
 9402TIP3    H149697   0.224   0.486  15.554 -0.0807  0.1260  0.7111
 9402TIP3    H249698   0.277   0.397  15.664  1.4061 -0.4500 -0.4343
 9403TIP3   OH249699   3.572   0.645  14.368  0.4982 -0.0651 -0.2798
 9403TIP3    H149700   3.482   0.619  14.354  0.3661 -0.4869  1.1507
 9403TIP3    H249701   3.569   0.741  14.375  0.0828 -0.1093  0.2074
 9404TIP3   OH249702   0.588   6.654   1.767  0.7668  0.2234  0.0030
 9404TIP3    H149703   0.643   6.603   1.708  0.3716  0.7279 -0.8141
 9404TIP3    H249704   0.511   6.599   1.782 -0.8325  1.4680 -2.8279
 9405TIP3   OH249705   3.146   4.825   1.347 -0.4252 -0.2132  0.1625
 9405TIP3    H149706   3.135   4.889   1.417 -0.5145 -1.0582  0.9386
 9405TIP3    H249707   3.223   4.773   1.373  0.2359  0.1856 -0.9379
 9406TIP3   OH249708   4.703   2.692  15.756  0.5736  0.3810 -0.4051
 9406TIP3    H149709   4.797   2.682  15.736  0.4840  0.6908 -1.0116
 9406TIP3    H249710   4.672   2.756  15.691 -0.3675 -0.7918 -1.1348
 9407TIP3   OH249711   1.448   4.316   3.547  0.0189  0.1696 -0.2580
 9407TIP3    H149712   1.407   4.278   3.625  0.4059  2.0450  0.9097
 9407TIP3    H249713   1.542   4.309   3.564  0.1004  1.6498  0.0159
 9408TIP3   OH249714   1.883   6.563  16.940 -0.5374  0.0624 -0.1317
 9408TIP3    H149715   1.833   6.625  16.993 -0.7170  0.9993 -1.3491
 9408TIP3    H249716   1.877   6.598  16.851  0.1406 -1.2141 -0.6968
 9409TIP3   OH249717   4.561   1.213   3.297  0.2331 -0.7062 -0.0534
 9409TIP3    H149718   4.507   1.135   3.303  1.2742 -1.3715  1.0021
 9409TIP3    H249719   4.498   1.285   3.285 -1.0646 -1.2352  2.7167
 9410TIP3   OH249720   3.356   5.513   0.112 -0.0001  0.2869 -0.1179
 9410TIP3    H149721   3.317   5.514   0.025  0.7331 -1.4647 -0.5153
 9410TIP3    H249722   3.283   5.526   0.172 -1.1618 -2.2875 -0.8568
 9411TIP3   OH249723   5.533   4.432  14.605  0.3982 -0.3771  0.2613
 9411TIP3    H149724   5.614   4.477  14.581 -0.9454  1.7174 -0.6769
 9411TIP3    H249725   5.467   4.468  14.545 -1.5865 -0.7306  2.1033
 9412TIP3   OH249726   5.049   5.116  14.795  0.1796 -0.1023  0.5447
 9412TIP3    H149727   4.977   5.177  14.804 -1.3210 -1.7299  0.1540
 9412TIP3    H249728   5.120   5.154  14.847 -1.0884  1.3438  1.2851
 9413TIP3   OH249729   5.490   2.198   4.803 -0.0143 -0.1877 -0.2767
 9413TIP3    H149730   5.443   2.119   4.830  0.3501 -0.4034 -0.2634
 9413TIP3    H249731   5.449   2.268   4.853  1.6622 -0.7801  2.0836
 9414TIP3   OH249732   0.684   3.187  14.686 -0.2579  0.0866  0.1406
 9414TIP3    H149733   0.680   3.092  14.694  1.4439 -0.2252 -1.7465
 9414TIP3    H249734   0.593   3.216  14.688 -0.8613 -1.6880 -0.3584
 9415TIP3   OH249735   0.961   6.534   3.618 -0.0814  0.2679  0.7036
 9415TIP3    H149736   0.940   6.563   3.707  0.8608 -2.0701  1.7861
 9415TIP3    H249737   1.055   6.550   3.610  0.0081 -0.3611  0.4777
 9416TIP3   OH249738   2.755   2.288   3.910 -0.0883 -0.3019  0.1479
 9416TIP3    H149739   2.704   2.261   3.987 -0.5567 -0.3575 -0.1837
 9416TIP3    H249740   2.844   2.257   3.929  0.1234  0.8959  1.3021
 9417TIP3   OH249741   1.074   2.858  14.619 -1.0640 -0.2191  0.5539
 9417TIP3    H149742   1.047   2.813  14.698 -0.2914  2.2098  2.3333
 9417TIP3    H249743   1.166   2.832  14.606 -0.9460  0.0072  0.9370
 9418TIP3   OH249744   3.324   5.122   0.708 -0.0653  0.2874  0.5308
 9418TIP3    H149745   3.397   5.097   0.651  0.0962  0.2880  0.7338
 9418TIP3    H249746   3.366   5.143   0.792  0.1206  3.4647 -0.2303
 9419TIP3   OH249747   2.942   0.320  17.076 -0.0680 -0.2389  0.1601
 9419TIP3    H149748   2.935   0.255  17.006 -1.3493 -1.7489  1.6160
 9419TIP3    H249749   3.036   0.339  17.081  0.1281 -0.5853 -1.4884
 9420TIP3   OH249750   3.147   2.668  11.364  0.1964  0.8839 -0.1519
 9420TIP3    H149751   3.152   2.742  11.303  1.1665  0.5745 -0.4668
 9420TIP3    H249752   3.053   2.654  11.376 -0.0055  1.8313 -0.4953
 9421TIP3   OH249753   3.913   6.827   1.827  0.2081 -0.1032  0.2219
 9421TIP3    H149754   3.928   6.920   1.843 -1.4246  0.3007 -0.3943
 9421TIP3    H249755   3.844   6.803   1.889 -1.0630 -0.2844 -1.1911
 9422TIP3   OH249756   4.261   2.582   1.687  0.2161  0.3117  0.0573
 9422TIP3    H149757   4.233   2.566   1.777  0.2620 -0.4366 -0.0535
 9422TIP3    H249758   4.355   2.562   1.687  0.0086 -0.7299 -0.3816
 9423TIP3   OH249759   2.185   6.493   1.333 -0.0020  0.6715 -0.2790
 9423TIP3    H149760   2.185   6.568   1.393  1.4017  1.3821 -1.1092
 9423TIP3    H249761   2.121   6.516   1.266 -0.1742  0.7435 -0.0942
 9424TIP3   OH249762   6.036   2.268  11.646  0.0993  0.1531 -0.2081
 9424TIP3    H149763   6.054   2.348  11.695 -0.8610  0.4072 -0.2509
 9424TIP3    H249764   6.078   2.282  11.561 -0.5333  0.8570 -0.4165
 9425TIP3   OH249765   5.800   0.890  14.173  0.3209 -0.1345 -0.1931
 9425TIP3    H149766   5.848   0.886  14.256 -1.0472 -1.6424  0.5789
 9425TIP3    H249767   5.846   0.828  14.116  0.3573 -0.2214 -0.0687
 9426TIP3   OH249768   6.275   1.065  13.061  0.2479 -0.4947 -0.3600
 9426TIP3    H149769   6.306   0.975  13.057 -2.1329 -1.3773 -4.2800
 9426TIP3    H249770   6.344   1.116  13.019  0.2142 -1.0313 -1.0791
 9427TIP3   OH249771   5.106   3.306   4.261  0.2258  0.1505  0.3880
 9427TIP3    H149772   5.092   3.332   4.352  1.2572  0.9670  0.3359
 9427TIP3    H249773   5.120   3.211   4.264  0.4347  0.2044  1.1033
 9428TIP3   OH249774   4.198   2.871  15.483 -0.0649 -0.0985  0.0531
 9428TIP3    H149775   4.197   2.960  15.518  1.4138  0.5867 -1.4825
 9428TIP3    H249776   4.105   2.850  15.468 -0.4953  0.7931  1.3261
 9429TIP3   OH249777   2.808   0.941  11.648  0.2010 -0.0030  0.2794
 9429TIP3    H149778   2.829   1.030  11.619 -1.0702  0.4774  0.7870
 9429TIP3    H249779   2.769   0.953  11.735 -0.2324 -1.0384  0.2347
 9430TIP3   OH249780   1.074   3.545   0.315  0.0440  0.3042  0.0426
 9430TIP3    H149781   1.143   3.490   0.351  0.3997  0.3666 -0.5389
 9430TIP3    H249782   1.016   3.485   0.268 -1.0471  0.0590  1.6297
 9431TIP3   OH249783   2.259   2.212  15.343  0.4623 -0.5000  0.1521
 9431TIP3    H149784   2.250   2.296  15.389  0.4638 -0.4815  0.1188
 9431TIP3    H249785   2.185   2.209  15.282  0.7870 -0.2537 -0.2663
 9432TIP3   OH249786   4.766   3.550  11.475  0.2552 -0.2959 -0.1752
 9432TIP3    H149787   4.681   3.592  11.486 -0.2055 -1.1962 -0.2227
 9432TIP3    H249788   4.747   3.466  11.433  1.0463 -0.9926  0.7928
 9433TIP3   OH249789   0.228   4.201   0.126  0.6075  0.5431  0.4408
 9433TIP3    H149790   0.289   4.237   0.061  1.5234 -0.5818  0.6439
 9433TIP3    H249791   0.143   4.237   0.102  1.0303  0.6122 -1.0349
 9434TIP3   OH249792   0.681   2.384  13.596  0.1034 -0.5565 -0.7852
 9434TIP3    H149793   0.620   2.456  13.612 -1.3478 -1.4085 -2.1426
 9434TIP3    H249794   0.669   2.325  13.671 -0.1373 -0.3259 -0.6410
 9435TIP3   OH249795   2.128   4.516  11.544  0.2974  0.1853  0.1834
 9435TIP3    H149796   2.067   4.571  11.594 -0.4948 -0.7425  0.2837
 9435TIP3    H249797   2.187   4.578  11.502  1.5766  1.0005  2.9477
 9436TIP3   OH249798   0.621   2.730  16.630 -0.3546  0.3945  0.0954
 9436TIP3    H149799   0.670   2.767  16.557 -0.4406 -1.2500 -0.8354
 9436TIP3    H249800   0.688   2.696  16.689 -0.3233  0.7437  0.2696
 9437TIP3   OH249801   5.140   2.438   6.191 -0.0189  0.1877  0.1961
 9437TIP3    H149802   5.194   2.477   6.123  2.3090  0.9323  2.3037
 9437TIP3    H249803   5.065   2.496   6.199  0.4329  0.9253 -0.7184
 9438TIP3   OH249804   3.808   3.965   3.832 -0.0402 -0.0630 -0.0115
 9438TIP3    H149805   3.898   3.987   3.854 -0.0384 -0.6328  0.5840
 9438TIP3    H249806   3.755   4.028   3.881  0.0449  0.9353 -1.1612
 9439TIP3   OH249807   2.306   3.139   5.081  0.1739  0.0473 -0.5496
 9439TIP3    H149808   2.301   3.104   5.170  1.7848  0.9848 -0.0494
 9439TIP3    H249809   2.398   3.162   5.070 -0.2006  0.9160 -2.0907
 9440TIP3   OH249810   4.845   2.934   0.509 -0.1575  0.3614  0.4369
 9440TIP3    H149811   4.848   2.973   0.597 -2.7444 -0.3541  0.9287
 9440TIP3    H249812   4.900   2.856   0.516 -0.6549  0.0827  1.5767
 9441TIP3   OH249813   3.883   4.923   2.507 -0.1419 -0.1781  0.0864
 9441TIP3    H149814   3.913   4.970   2.585  0.9560 -0.5139 -0.1156
 9441TIP3    H249815   3.962   4.882   2.471 -0.0477  2.2195 -2.8060
 9442TIP3   OH249816   3.900   3.319   1.562  0.2790 -0.2382  0.3466
 9442TIP3    H149817   3.915   3.293   1.471  0.4012 -0.2464  0.3693
 9442TIP3    H249818   3.805   3.321   1.571  0.2230 -2.5732  0.8794
 9443TIP3   OH249819   1.051   3.571  16.495  0.4846  0.6112  0.2446
 9443TIP3    H149820   1.053   3.503  16.427 -1.2105 -0.1911  0.9510
 9443TIP3    H249821   1.137   3.613  16.488  2.2658 -2.5764  0.7296
 9444TIP3   OH249822   5.908   1.216   0.719  0.1353 -0.3178  0.4170
 9444TIP3    H149823   5.952   1.283   0.771 -1.6772  1.5362 -0.3129
 9444TIP3    H249824   5.945   1.226   0.631 -2.1479  1.8383 -0.4152
 9445TIP3   OH249825   0.230   3.208  14.440  0.4785  0.1159  0.0792
 9445TIP3    H149826   0.142   3.202  14.402  0.5639 -0.3151 -0.0628
 9445TIP3    H249827   0.284   3.241  14.369  0.6381 -0.6896 -0.1860
 9446TIP3   OH249828   2.311   0.757   5.822 -0.3951 -0.2148  0.8767
 9446TIP3    H149829   2.396   0.798   5.807 -0.6160  0.7598  2.1404
 9446TIP3    H249830   2.279   0.796   5.904 -1.8450 -0.9159  0.6805
 9447TIP3   OH249831   3.375   4.481   0.680  0.0603 -0.1269 -0.1423
 9447TIP3    H149832   3.325   4.563   0.679 -1.5929 -1.0841  0.4808
 9447TIP3    H249833   3.418   4.479   0.594 -2.2808 -0.0130 -1.3981
 9448TIP3   OH249834   0.294   4.843  11.202 -0.1675 -0.0148 -0.3530
 9448TIP3    H149835   0.353   4.789  11.254 -0.5325  0.5327  0.6475
 9448TIP3    H249836   0.218   4.787  11.187 -0.4781  0.1461  0.5501
 9449TIP3   OH249837   6.275   2.753  11.700  0.0816  0.0571 -0.4044
 9449TIP3    H149838   6.255   2.828  11.757 -1.1908 -0.4007 -0.2175
 9449TIP3    H249839   6.363   2.772  11.666  1.1762  0.0544  2.1715
 9450TIP3   OH249840   6.202   5.938  12.982  0.0759  0.3419 -1.2005
 9450TIP3    H149841   6.249   5.937  12.899  1.3649  1.9386 -0.5410
 9450TIP3    H249842   6.270   5.936  13.049 -0.9387 -0.9064 -0.1496
 9451TIP3   OH249843   6.720   6.153  11.376 -0.4817  0.1628  0.3284
 9451TIP3    H149844   6.746   6.062  11.365 -1.8901 -0.2512  0.2480
 9451TIP3    H249845   6.773   6.202  11.312  0.4698 -0.5392  0.5544
 9452TIP3   OH249846   3.864   2.214  16.419  0.1878  0.4990  0.3178
 9452TIP3    H149847   3.769   2.213  16.407  0.4598  1.1308 -2.6703
 9452TIP3    H249848   3.877   2.182  16.508 -2.6355 -4.5863 -0.7018
 9453TIP3   OH249849   3.997   4.346  16.591  0.1137  0.5202 -0.3074
 9453TIP3    H149850   4.085   4.352  16.552  0.7160  0.5695  1.0027
 9453TIP3    H249851   3.980   4.252  16.596  0.5085  0.4696  0.2848
 9454TIP3   OH249852   4.750   3.218   1.620 -0.1584 -0.1283  0.1674
 9454TIP3    H149853   4.781   3.260   1.539 -0.8392  1.3431  0.6270
 9454TIP3    H249854   4.811   3.146   1.635  0.1295 -0.2737 -1.5135
 9455TIP3   OH249855   5.650   4.483   3.023  0.0994  0.1114  0.3704
 9455TIP3    H149856   5.598   4.404   3.036 -0.0612  0.0533 -0.5342
 9455TIP3    H249857   5.602   4.533   2.957  0.9545  0.2569 -0.1634
 9456TIP3   OH249858   0.782   5.179   2.184  0.0674 -0.2684 -0.3373
 9456TIP3    H149859   0.831   5.232   2.248 -1.5907  1.1124 -0.1443
 9456TIP3    H249860   0.811   5.213   2.099 -1.2445  1.2613 -0.2107
 9457TIP3   OH249861   4.886   1.708  13.082 -0.2082 -0.6990  0.5814
 9457TIP3    H149862   4.940   1.670  13.013  0.2105 -0.5347  0.8165
 9457TIP3    H249863   4.796   1.702  13.048 -0.1344 -1.6783  0.5132
 9458TIP3   OH249864   5.008   2.766   0.874 -0.0094  0.1458 -0.3312
 9458TIP3    H149865   4.969   2.740   0.958  0.7403 -1.7712 -0.5419
 9458TIP3    H249866   5.091   2.806   0.897  1.9342 -3.5380 -0.1654
 9459TIP3   OH249867   3.180   3.233  14.394 -0.0472  0.3830  0.7270
 9459TIP3    H149868   3.168   3.199  14.483 -0.3501  0.8780  0.8801
 9459TIP3    H249869   3.174   3.328  14.404 -0.0657  0.4411  0.1762
 9460TIP3   OH249870   3.478   2.346  11.593  0.2748  0.5007  0.2541
 9460TIP3    H149871   3.460   2.252  11.595  0.5587  0.2735 -3.0697
 9460TIP3    H249872   3.412   2.381  11.532  1.1584  2.1961  0.2288
 9461TIP3   OH249873   5.628   0.365  16.303 -0.3845  1.1566  0.6678
 9461TIP3    H149874   5.664   0.427  16.367  2.4237 -1.4984  1.8592
 9461TIP3    H249875   5.686   0.372  16.228  0.0799 -0.1046  0.8888
 9462TIP3   OH249876   2.054   6.673   5.773  0.2773 -0.4445  0.5392
 9462TIP3    H149877   2.022   6.604   5.714  0.8770  0.6036 -1.0550
 9462TIP3    H249878   2.018   6.648   5.859 -0.9183 -1.8236 -0.3004
 9463TIP3   OH249879   5.619   0.398  13.226 -0.1051  0.4198  0.0577
 9463TIP3    H149880   5.648   0.476  13.274  0.4464  0.8530 -0.9344
 9463TIP3    H249881   5.676   0.328  13.256 -0.7811  0.3120  1.1625
 9464TIP3   OH249882   4.695   3.988  14.641 -0.7071 -0.0370 -0.0990
 9464TIP3    H149883   4.758   4.054  14.613 -1.2004 -0.9067 -3.6908
 9464TIP3    H249884   4.641   4.032  14.706 -0.5848  2.9041 -1.8356
 9465TIP3   OH249885   0.956   4.720  16.578 -0.1355  0.5576  0.0779
 9465TIP3    H149886   1.025   4.786  16.575 -0.0956  0.5631  0.9003
 9465TIP3    H249887   1.001   4.637  16.566 -0.3919  0.7537 -2.9035
 9466TIP3   OH249888   5.150   6.558  11.944  0.5527 -0.4163  0.3916
 9466TIP3    H149889   5.240   6.574  11.917  0.7054 -1.0577  0.5174
 9466TIP3    H249890   5.101   6.557  11.861  0.7231 -0.4828  0.2905
 9467TIP3   OH249891   0.799   6.415   0.631 -0.0985  0.0492 -0.4538
 9467TIP3    H149892   0.773   6.330   0.667 -1.1080  0.8053  0.7063
 9467TIP3    H249893   0.738   6.477   0.671  1.5851  1.5310 -0.0613
 9468TIP3   OH249894   2.723   4.159   3.375 -0.1291 -0.1705 -0.2894
 9468TIP3    H149895   2.701   4.069   3.351 -0.0190  0.0513 -1.2338
 9468TIP3    H249896   2.818   4.158   3.387 -0.3132 -0.5892  1.5320
 9469TIP3   OH249897   5.722   3.298   3.770 -0.5498  0.2873 -0.3725
 9469TIP3    H149898   5.674   3.217   3.751  1.3781 -1.2461  0.9424
 9469TIP3    H249899   5.706   3.314   3.863 -1.1743  1.6738 -0.6777
 9470TIP3   OH249900   0.423   2.866   1.048  0.6256  0.9722 -0.0651
 9470TIP3    H149901   0.485   2.931   1.015  0.6411  1.4952  0.9785
 9470TIP3    H249902   0.469   2.824   1.121 -0.0482  0.9954  0.3787
 9471TIP3   OH249903   0.580   5.640   0.139 -0.4095 -0.5060  0.2646
 9471TIP3    H149904   0.667   5.601   0.135  0.3888  1.0986  0.9790
 9471TIP3    H249905   0.527   5.575   0.185  0.7581 -0.9421  1.0600
 9472TIP3   OH249906   1.636   4.985  14.853 -0.4772  0.5104  0.1864
 9472TIP3    H149907   1.559   4.931  14.837 -0.8872  0.6056  1.6642
 9472TIP3    H249908   1.677   4.947  14.931  0.2723  1.2004  0.1482
 9473TIP3   OH249909   3.375   6.150  15.475  0.0377  0.8042  0.3010
 9473TIP3    H149910   3.454   6.147  15.421  1.1154 -0.2390  1.8379
 9473TIP3    H249911   3.392   6.219  15.539 -0.2562  0.5121  0.6978
 9474TIP3   OH249912   4.984   6.564   3.875  0.4007  0.0702 -0.2827
 9474TIP3    H149913   4.945   6.575   3.789 -0.2212  1.7759  0.1749
 9474TIP3    H249914   5.065   6.616   3.871  0.1822  0.4615  0.2650
 9475TIP3   OH249915   4.088   0.183  11.870 -0.0603 -0.3736 -0.3136
 9475TIP3    H149916   4.075   0.258  11.812  1.4249  1.1519  1.2236
 9475TIP3    H249917   4.158   0.210  11.929 -0.1728 -2.6106  0.9450
 9476TIP3   OH249918   0.990   3.795  14.632 -0.0006  0.3295  0.1915
 9476TIP3    H149919   0.988   3.867  14.695  1.1438 -0.2484  0.9130
 9476TIP3    H249920   0.914   3.741  14.654  1.1169 -0.6111  2.0168
 9477TIP3   OH249921   6.684   5.689  14.089 -0.1676  0.6166  0.4600
 9477TIP3    H149922   6.718   5.774  14.061  0.0301  0.8805  1.4790
 9477TIP3    H249923   6.593   5.688  14.059  0.4078  0.3234 -1.3936
 9478TIP3   OH249924   2.138   4.963   0.346  0.7642  0.5619 -0.1516
 9478TIP3    H149925   2.170   5.049   0.317  2.8021 -0.0145  0.2309
 9478TIP3    H249926   2.130   4.912   0.266  3.4938 -0.0978 -0.0888
 9479TIP3   OH249927   2.555   0.862   5.702  0.1296 -0.3945  0.0990
 9479TIP3    H149928   2.609   0.791   5.736 -0.2179 -0.8020 -0.1951
 9479TIP3    H249929   2.601   0.891   5.622  0.0858 -0.5211  0.0281
 9480TIP3   OH249930   6.645   0.677   2.256 -0.1843 -0.1639  0.5683
 9480TIP3    H149931   6.740   0.681   2.269 -0.1210  0.3337  0.0323
 9480TIP3    H249932   6.623   0.585   2.265  0.5060 -0.4302 -0.2689
 9481TIP3   OH249933   4.364   5.844  11.275 -0.0643  0.2484  0.4699
 9481TIP3    H149934   4.284   5.869  11.321 -0.0511  0.1465  0.5495
 9481TIP3    H249935   4.342   5.850  11.182  0.2344  1.5546  0.4576
 9482TIP3   OH249936   2.036   4.712   0.428 -0.5267  0.6741 -0.2292
 9482TIP3    H149937   2.059   4.804   0.414 -0.9459  0.3903 -3.9226
 9482TIP3    H249938   1.941   4.709   0.415 -0.4466 -0.3403 -0.6719
 9483TIP3   OH249939   1.428   1.071   0.665 -0.6820  0.4172  0.2772
 9483TIP3    H149940   1.396   1.021   0.589 -1.9321  0.1561  0.9409
 9483TIP3    H249941   1.477   1.144   0.627  0.6557 -0.9380 -0.7380
 9484TIP3   OH249942   2.382   4.411   4.801  0.2065  0.8160  0.4190
 9484TIP3    H149943   2.315   4.444   4.861 -0.4724  0.7205 -0.2881
 9484TIP3    H249944   2.460   4.463   4.823 -0.0844  0.9276  1.2381
 9485TIP3   OH249945   6.627   4.592  13.913 -0.4975 -0.0947 -0.1629
 9485TIP3    H149946   6.542   4.548  13.917 -0.9539  0.6933 -0.8987
 9485TIP3    H249947   6.651   4.607  14.005 -2.0144  1.2745  0.0543
 9486TIP3   OH249948   0.180   4.119  15.676 -0.4169 -0.6018  0.2598
 9486TIP3    H149949   0.146   4.112  15.765 -3.9924  0.4992 -0.8415
 9486TIP3    H249950   0.175   4.030  15.641  0.3447 -0.9085  0.8990
 9487TIP3   OH249951   5.519   2.326   0.656 -0.2547  1.0560  0.1440
 9487TIP3    H149952   5.611   2.350   0.648 -0.7916  3.2792  0.2024
 9487TIP3    H249953   5.472   2.409   0.664 -2.2984 -0.0047 -0.0554
 9488TIP3   OH249954   6.012   0.659  14.140  0.2606  0.5728 -0.8573
 9488TIP3    H149955   6.080   0.601  14.105  1.9549  0.6915  1.8896
 9488TIP3    H249956   5.973   0.609  14.211 -3.4090  0.1062 -2.9771
 9489TIP3   OH249957   1.177   0.255  14.490 -0.2321  0.3393  0.5003
 9489TIP3    H149958   1.091   0.285  14.517 -0.6499  0.3113 -0.7052
 9489TIP3    H249959   1.167   0.235  14.397  0.6786 -1.1327  0.6852
 9490TIP3   OH249960   3.259   6.142   4.092  0.4556  0.6398  0.2057
 9490TIP3    H149961   3.279   6.222   4.043 -0.6383 -0.6014 -2.4966
 9490TIP3    H249962   3.165   6.146   4.107  0.3374 -0.2783 -0.2404
 9491TIP3   OH249963   6.269   0.440  14.844 -0.1249  0.4486 -0.3476
 9491TIP3    H149964   6.333   0.370  14.850  1.6975  2.1612  2.5514
 9491TIP3    H249965   6.185   0.395  14.832  1.1726 -2.0662 -0.5847
 9492TIP3   OH249966   5.073   1.832  11.640 -0.4434  0.2699  0.5782
 9492TIP3    H149967   5.116   1.772  11.579 -1.8270  0.6937 -0.8784
 9492TIP3    H249968   5.137   1.845  11.710 -0.0518 -2.8077  0.9333
 9493TIP3   OH249969   2.537   2.515  16.378  0.2172 -0.0339 -0.6456
 9493TIP3    H149970   2.551   2.494  16.470 -0.4340 -0.9660 -0.7414
 9493TIP3    H249971   2.486   2.441  16.344 -1.3411  1.2512 -1.2539
 9494TIP3   OH249972   4.931   4.875   5.756 -0.3246 -0.5303 -0.0906
 9494TIP3    H149973   4.873   4.815   5.709 -0.8292 -0.9142  1.0099
 9494TIP3    H249974   4.935   4.841   5.845  0.4285  0.3277  0.2203
 9495TIP3   OH249975   5.756   0.336   4.414  0.1100  0.8712 -0.5148
 9495TIP3    H149976   5.840   0.337   4.369  0.8802 -0.2180  0.7912
 9495TIP3    H249977   5.756   0.253   4.463 -1.5978  0.9801 -0.2529
 9496TIP3   OH249978   4.416   0.805   1.348 -0.0287  0.0594  0.0341
 9496TIP3    H149979   4.512   0.799   1.351 -0.1357 -1.8100  1.7634
 9496TIP3    H249980   4.386   0.720   1.380 -2.3044  0.2542 -1.3674
 9497TIP3   OH249981   1.697   2.784  11.361 -0.3090  0.5812 -0.5435
 9497TIP3    H149982   1.615   2.743  11.334 -0.3399 -0.4082  0.9268
 9497TIP3    H249983   1.728   2.830  11.283 -1.4884 -0.2736 -1.5544
 9498TIP3   OH249984   2.037   3.695   6.416 -0.2157  0.2687 -0.5422
 9498TIP3    H149985   2.107   3.750   6.452  0.0731  0.0792 -0.8087
 9498TIP3    H249986   2.083   3.629   6.363 -0.4172 -1.3211  1.1587
 9499TIP3   OH249987   5.969   1.685   2.146 -0.2825  0.6494 -0.3596
 9499TIP3    H149988   5.938   1.647   2.064 -1.7711  2.0610 -0.4971
 9499TIP3    H249989   6.055   1.645   2.160 -1.5909 -2.5211 -0.5990
 9500TIP3   OH249990   2.542   4.324  12.189 -0.0619  0.1379  0.2014
 9500TIP3    H149991   2.589   4.404  12.212 -0.8101  0.6623 -0.0924
 9500TIP3    H249992   2.460   4.328  12.239  0.4786 -1.1131  1.2627
 9501TIP3   OH249993   4.996   5.578  15.015 -0.4421  0.3307 -0.1076
 9501TIP3    H149994   4.970   5.510  15.077 -1.7644  1.4590  0.6366
 9501TIP3    H249995   5.091   5.579  15.019 -0.4040 -1.2999  0.0366
 9502TIP3   OH249996   0.385   0.670   4.773  0.0352  0.5090  0.0250
 9502TIP3    H149997   0.359   0.579   4.790  1.0799  0.2171  0.0933
 9502TIP3    H249998   0.454   0.663   4.707 -0.6456  1.3332 -0.8000
 9503TIP3   OH249999   6.783   1.541   2.074 -0.7958  0.0744 -0.2585
 9503TIP3    H150000   6.767   1.468   2.134  0.4424  0.6804  0.8622
 9503TIP3    H250001   6.743   1.514   1.991 -1.2263 -1.4311  0.4150
 9504TIP3   OH250002   3.086   4.714  16.518  0.3606  0.1749  0.2403
 9504TIP3    H150003   3.158   4.777  16.509  1.9955 -1.4562  1.1747
 9504TIP3    H250004   3.123   4.631  16.488 -1.9282 -0.2913 -1.5898
 9505TIP3   OH250005   6.801   6.653  14.873  0.2220  0.3794  0.6028
 9505TIP3    H150006   6.853   6.719  14.919  0.4892 -0.3256  1.3590
 9505TIP3    H250007   6.717   6.695  14.857  0.7863  1.2977 -0.0041
 9506TIP3   OH250008   3.457   4.173   3.176  0.1910  0.0850 -0.4159
 9506TIP3    H150009   3.470   4.267   3.184 -0.1357  0.2890 -1.9516
 9506TIP3    H250010   3.541   4.135   3.203  0.8772  0.9133 -1.3095
 9507TIP3   OH250011   3.146   5.847  13.561  0.3690  0.3988 -0.0232
 9507TIP3    H150012   3.216   5.904  13.530  0.8469 -0.8263 -1.3235
 9507TIP3    H250013   3.099   5.900  13.626  2.6059  1.1764  1.0631
 9508TIP3   OH250014   5.946   3.402   4.264  0.1755 -0.0966  0.7480
 9508TIP3    H150015   5.959   3.378   4.355  0.6423 -0.2881  0.6335
 9508TIP3    H250016   5.897   3.484   4.267  0.6663  0.1856  1.1790
 9509TIP3   OH250017   2.522   2.175  12.452  0.0915 -0.2287  0.3295
 9509TIP3    H150018   2.543   2.130  12.535 -0.6617  0.1976  0.7645
 9509TIP3    H250019   2.446   2.127  12.418 -0.4174  0.4098  0.5534
 9510TIP3   OH250020   1.120   5.011   5.393 -0.0288  0.4425  0.1519
 9510TIP3    H150021   1.202   5.060   5.395 -0.3147  0.9364  1.6491
 9510TIP3    H250022   1.052   5.077   5.407 -0.5950 -0.1033  0.0361
 9511TIP3   OH250023   5.534   5.508  14.333 -0.1928 -0.2751  0.5110
 9511TIP3    H150024   5.482   5.588  14.324 -0.1675 -0.2786  0.3320
 9511TIP3    H250025   5.469   5.438  14.337 -0.1839 -0.5758 -2.5035
 9512TIP3   OH250026   4.718   6.659  12.288  0.1522  0.0774  0.2885
 9512TIP3    H150027   4.786   6.595  12.270  0.9993  1.3051 -1.0924
 9512TIP3    H250028   4.638   6.619  12.253  0.4473 -0.6996  0.4817
 9513TIP3   OH250029   1.707   2.622  15.625 -0.4146  0.4412 -0.0748
 9513TIP3    H150030   1.655   2.551  15.663 -0.1889  0.0482 -0.4822
 9513TIP3    H250031   1.727   2.592  15.537  1.4179  0.0705  0.4105
 9514TIP3   OH250032   0.244   1.443  14.389 -0.1668  0.1783 -0.3076
 9514TIP3    H150033   0.155   1.410  14.398  0.2381 -0.8904 -0.1494
 9514TIP3    H250034   0.255   1.456  14.295  0.1063 -1.4378 -0.5254
 9515TIP3   OH250035   3.374   4.359  15.495  0.0857  0.2793  0.1352
 9515TIP3    H150036   3.438   4.393  15.433 -0.8868 -0.6134 -1.4476
 9515TIP3    H250037   3.301   4.422  15.491 -1.6242 -1.6334 -2.6395
 9516TIP3   OH250038   2.480   6.818  11.603 -0.0462  0.2296 -0.2221
 9516TIP3    H150039   2.560   6.798  11.653 -0.3782 -0.3861  0.0629
 9516TIP3    H250040   2.432   6.736  11.599  0.9746 -0.3583 -3.4641
 9517TIP3   OH250041   2.508   0.414   0.145  0.5795  0.2141  0.1159
 9517TIP3    H150042   2.463   0.498   0.157 -1.2028 -0.4716 -1.3881
 9517TIP3    H250043   2.438   0.349   0.146  1.9150 -1.2792  1.1075
 9518TIP3   OH250044   4.738   6.695  15.493 -0.2476  0.8995  0.2547
 9518TIP3    H150045   4.678   6.674  15.564 -0.6013 -0.5697 -0.4315
 9518TIP3    H250046   4.817   6.645  15.512 -0.9289 -0.8481 -1.1663
 9519TIP3   OH250047   2.129   2.366  13.812  0.4238  1.1895 -0.0067
 9519TIP3    H150048   2.103   2.423  13.740 -0.3638 -0.6211 -1.2282
 9519TIP3    H250049   2.209   2.324  13.782 -1.1636 -1.3815 -0.9696
 9520TIP3   OH250050   3.179   5.595   0.694  0.3061 -0.5403 -0.1111
 9520TIP3    H150051   3.172   5.510   0.651 -2.6721  0.2276 -1.3837
 9520TIP3    H250052   3.158   5.659   0.626 -1.5245  0.9224  1.6953
 9521TIP3   OH250053   2.603   3.541   1.091 -0.1000  0.4302  0.2321
 9521TIP3    H150054   2.601   3.588   1.174  1.8169  2.3466 -0.7303
 9521TIP3    H250055   2.593   3.449   1.116 -0.6240  1.0246  2.4638
 9522TIP3   OH250056   1.625   3.027   3.788 -0.0535  0.1803 -1.0937
 9522TIP3    H150057   1.642   2.941   3.827  1.7714  0.0036 -2.1764
 9522TIP3    H250058   1.668   3.089   3.847  1.1874  0.0661 -1.8520
 9523TIP3   OH250059   1.073   3.026  10.582  0.5882 -0.4012  0.0542
 9523TIP3    H150060   1.068   2.944  10.533  2.9053 -1.4334  1.3705
 9523TIP3    H250061   1.157   3.021  10.629  0.6617  2.5839  0.4432
 9524TIP3   OH250062   3.622   3.551   1.364  0.0205 -0.8099  0.0808
 9524TIP3    H150063   3.635   3.505   1.281 -0.7847 -1.4175  0.2829
 9524TIP3    H250064   3.684   3.624   1.361 -1.3788  0.3998 -1.9681
 9525TIP3   OH250065   4.474   0.332   1.502 -0.0169  0.3399  0.4990
 9525TIP3    H150066   4.412   0.282   1.449 -1.6562  1.0947  1.6218
 9525TIP3    H250067   4.477   0.285   1.585 -1.2165  1.7959  1.3984
 9526TIP3   OH250068   3.208   4.823   2.023  0.1178 -0.5725 -0.2867
 9526TIP3    H150069   3.114   4.835   2.034  0.1256 -1.7224  1.3802
 9526TIP3    H250070   3.219   4.730   2.005  0.8969 -0.3396 -1.0781
 9527TIP3   OH250071   6.825   4.418  15.144 -0.5083  0.5399 -0.6038
 9527TIP3    H150072   6.828   4.323  15.137  0.6233  0.2525  2.2264
 9527TIP3    H250073   6.914   4.446  15.121 -0.5434  0.7817 -0.4524
 9528TIP3   OH250074   2.445   4.004  10.379 -0.4401  0.2025 -0.3424
 9528TIP3    H150075   2.495   3.978  10.457  1.7792 -0.3163 -1.8383
 9528TIP3    H250076   2.394   3.925  10.357 -2.3708  0.8615  1.4215
 9529TIP3   OH250077   3.894   4.032   4.895 -0.8320  0.1996  0.5368
 9529TIP3    H150078   3.906   3.983   4.977 -0.9647 -0.4611  0.1724
 9529TIP3    H250079   3.799   4.033   4.883 -0.8012  0.1004  0.2803
 9530TIP3   OH250080   3.954   3.086   1.879  0.0173 -0.5975 -0.9646
 9530TIP3    H150081   4.016   3.058   1.946  0.5387 -1.2166 -1.6792
 9530TIP3    H250082   3.991   3.167   1.845 -0.1479 -0.3820 -0.6270
 9531TIP3   OH250083   4.285   1.334  16.787  0.4027 -0.1012 -0.2332
 9531TIP3    H150084   4.261   1.382  16.707 -0.5147  0.7828  0.5511
 9531TIP3    H250085   4.377   1.355  16.801  0.3120  0.5124 -0.5402
 9532TIP3   OH250086   1.555   5.681   4.256 -0.6270 -1.4076  0.3332
 9532TIP3    H150087   1.537   5.745   4.187  1.4779  1.7521  2.4702
 9532TIP3    H250088   1.511   5.715   4.333  1.2722 -2.0494  1.7699
 9533TIP3   OH250089   6.549   1.482   0.522  0.6207 -0.1308  0.3901
 9533TIP3    H150090   6.548   1.391   0.551 -0.4733 -0.0180  0.7839
 9533TIP3    H250091   6.632   1.517   0.555  1.0133 -0.9562  0.2978
 9534TIP3   OH250092   6.371   6.075   0.400  0.0131  0.7159  0.3951
 9534TIP3    H150093   6.362   6.162   0.361 -0.1595  0.0014 -1.2506
 9534TIP3    H250094   6.460   6.074   0.436  0.7545  0.9650 -1.2873
 9535TIP3   OH250095   6.541   1.633  12.618 -0.1055 -0.0891 -0.7639
 9535TIP3    H150096   6.490   1.658  12.695 -0.1862 -0.8919 -0.5543
 9535TIP3    H250097   6.622   1.596  12.653  0.4879  0.8695 -1.0931
 9536TIP3   OH250098   1.235   2.892   5.881  0.1528 -0.3255  0.0881
 9536TIP3    H150099   1.225   2.834   5.957  1.4207 -0.7661 -0.0518
 9536TIP3    H250100   1.214   2.979   5.915 -1.1732 -0.7650  0.4527
 9537TIP3   OH250101   4.622   4.208   5.684  0.7175  0.1454  0.2233
 9537TIP3    H150102   4.527   4.210   5.670  0.4965  0.7014  1.6183
 9537TIP3    H250103   4.658   4.260   5.612 -0.1057  0.6757  0.1740
 9538TIP3   OH250104   3.073   2.767  12.676 -0.3395 -0.1160  1.3672
 9538TIP3    H150105   3.119   2.691  12.711  0.2596  0.2555  1.3882
 9538TIP3    H250106   3.044   2.739  12.589 -0.5821 -0.5454  1.5813
 9539TIP3   OH250107   4.251   4.905  15.375 -0.0193 -0.3927 -0.4323
 9539TIP3    H150108   4.186   4.835  15.380  1.0990 -1.8234 -3.4962
 9539TIP3    H250109   4.327   4.871  15.421 -0.1145 -0.3956 -0.2777
 9540TIP3   OH250110   5.009   1.245   6.108 -0.3028  0.0464 -0.7680
 9540TIP3    H150111   4.917   1.220   6.110 -0.2390 -0.2158 -1.0875
 9540TIP3    H250112   5.009   1.337   6.137 -0.7808  0.3703 -1.7445
 9541TIP3   OH250113   6.691   3.903  16.069 -0.0445  0.2369  0.1416
 9541TIP3    H150114   6.646   3.828  16.031  0.0140 -0.2284  0.9693
 9541TIP3    H250115   6.649   3.979  16.028 -1.1965 -0.2006  0.4671
 9542TIP3   OH250116   4.479   3.662   4.002  0.2834 -0.6480 -0.2378
 9542TIP3    H150117   4.439   3.576   3.992 -0.7398 -0.1977 -0.0883
 9542TIP3    H250118   4.414   3.715   4.048  0.7371  0.3239 -0.6668
 9543TIP3   OH250119   3.114   4.987   1.566 -0.1348  0.8688 -0.0020
 9543TIP3    H150120   3.028   4.965   1.602  0.4934 -1.3914  0.2749
 9543TIP3    H250121   3.174   4.974   1.640  0.4723  2.4715 -0.1742
 9544TIP3   OH250122   2.490   1.873  13.131  0.1032 -0.1116 -0.5535
 9544TIP3    H150123   2.453   1.936  13.193  0.1148 -0.2018 -0.4525
 9544TIP3    H250124   2.478   1.912  13.045 -2.3303 -1.1399 -0.7475
 9545TIP3   OH250125   1.618   2.627   2.767 -0.6077 -0.4653 -0.4129
 9545TIP3    H150126   1.608   2.643   2.861 -0.9801 -1.4940 -0.2536
 9545TIP3    H250127   1.631   2.532   2.761  0.6222 -0.2617 -1.3111
 9546TIP3   OH250128   4.189   3.587  15.937 -0.6155  0.5951 -0.1453
 9546TIP3    H150129   4.170   3.547  16.022  0.1638 -0.0815 -0.2717
 9546TIP3    H250130   4.111   3.638  15.917 -1.5726 -0.6818  0.1401
 9547TIP3   OH250131   1.685   3.464   0.512 -0.3046 -0.0192  0.9721
 9547TIP3    H150132   1.642   3.383   0.540 -0.4626 -1.0387 -1.8634
 9547TIP3    H250133   1.774   3.457   0.545 -0.4288 -1.1738  1.0980
 9548TIP3   OH250134   5.430   0.057  11.824  0.1303 -0.7711  0.0117
 9548TIP3    H150135   5.514   0.067  11.779  0.0060  1.1453  0.1363
 9548TIP3    H250136   5.380   0.134  11.798 -1.5874 -1.8587 -0.0148
 9549TIP3   OH250137   3.764   1.638   5.446 -0.1911 -0.3694  0.4842
 9549TIP3    H150138   3.732   1.574   5.510  0.7150  0.5969  1.9668
 9549TIP3    H250139   3.836   1.682   5.491 -0.0315  0.8816 -0.9411
 9550TIP3   OH250140   6.590   0.113  16.805 -0.1694  0.1946 -0.3670
 9550TIP3    H150141   6.644   0.191  16.820  0.2120  0.0350 -0.8785
 9550TIP3    H250142   6.502   0.139  16.831  0.0877  0.5731  0.1364
 9551TIP3   OH250143   5.223   5.736  17.038  0.0840  0.1878 -0.0958
 9551TIP3    H150144   5.143   5.788  17.028  1.2128  2.3954  1.4477
 9551TIP3    H250145   5.203   5.676  17.110  0.2427  1.8908  1.4797
 9552TIP3   OH250146   4.415   5.383  15.334 -0.2787 -0.7788  0.3366
 9552TIP3    H150147   4.375   5.311  15.285 -1.0058 -0.1812  0.0304
 9552TIP3    H250148   4.445   5.443  15.266  0.8582 -1.0562  0.5760
 9553TIP3   OH250149   4.768   6.842   3.370 -0.1751 -0.4321  0.1996
 9553TIP3    H150150   4.680   6.804   3.371 -1.4728  2.2683 -0.2855
 9553TIP3    H250151   4.817   6.788   3.308 -1.1124 -2.6794  1.3301
 9554TIP3   OH250152   6.709   5.342   0.753  0.0664  0.2848 -0.9477
 9554TIP3    H150153   6.630   5.341   0.700  0.4204  0.5020 -1.4928
 9554TIP3    H250154   6.700   5.419   0.809 -1.3248 -1.1559  0.9065
 9555TIP3   OH250155   6.026   3.220   1.338 -0.4852 -0.1505 -0.3102
 9555TIP3    H150156   6.060   3.290   1.393  0.8669 -0.8341 -0.2373
 9555TIP3    H250157   6.082   3.145   1.357 -0.5891 -0.6735 -1.9067
 9556TIP3   OH250158   4.789   1.783   0.161 -0.0120  0.1293  0.4304
 9556TIP3    H150159   4.781   1.846   0.090  0.4136 -1.0026 -0.6475
 9556TIP3    H250160   4.875   1.802   0.200  0.5920 -0.4829 -0.5858
 9557TIP3   OH250161   2.209   0.135  12.273  0.1170 -0.0691  0.3802
 9557TIP3    H150162   2.283   0.128  12.213  2.2882 -0.1331  2.8699
 9557TIP3    H250163   2.231   0.208  12.330 -2.0327  0.2346  0.9257
 9558TIP3   OH250164   0.183   0.064   4.268  0.3095 -0.4046  0.1005
 9558TIP3    H150165   0.101   0.107   4.290  1.3325  0.8972  1.5990
 9558TIP3    H250166   0.196   0.082   4.175 -0.7264 -0.0186  0.0196
 9559TIP3   OH250167   1.509   0.825  13.757 -0.0654 -0.3152  0.2270
 9559TIP3    H150168   1.531   0.917  13.772 -0.7966 -0.2663  1.1038
 9559TIP3    H250169   1.552   0.779  13.828 -0.7922 -0.4916  0.5571
 9560TIP3   OH250170   5.199   1.377  13.901  0.1187  0.5889  0.2011
 9560TIP3    H150171   5.124   1.323  13.926  1.5968 -1.6256  0.1729
 9560TIP3    H250172   5.217   1.431  13.978 -1.9748  1.7945 -0.0963
 9561TIP3   OH250173   3.936   4.519  16.792 -0.2759 -0.0970 -0.8597
 9561TIP3    H150174   3.877   4.465  16.845 -0.7095  1.2995  0.1207
 9561TIP3    H250175   3.952   4.466  16.714 -0.6852 -1.6354  0.0529
 9562TIP3   OH250176   3.368   5.942   2.800 -0.8129  0.5053 -0.5939
 9562TIP3    H150177   3.281   5.928   2.837 -0.5845 -0.2425 -0.3140
 9562TIP3    H250178   3.353   5.958   2.706 -1.2650  0.6165 -0.5005
 9563TIP3   OH250179   1.396   4.738   4.902 -0.2298 -0.0207 -0.5205
 9563TIP3    H150180   1.368   4.830   4.898  1.3056  0.4630 -0.7269
 9563TIP3    H250181   1.320   4.689   4.871 -0.8639  1.2263 -1.0139
 9564TIP3   OH250182   5.430   5.828  13.044 -0.1951  0.0462 -0.8819
 9564TIP3    H150183   5.466   5.789  12.964 -0.2900 -2.3847  0.1590
 9564TIP3    H250184   5.507   5.845  13.098 -0.2504 -0.2869 -0.6921
 9565TIP3   OH250185   6.208   5.447   5.049  0.2199 -0.2592  0.5619
 9565TIP3    H150186   6.263   5.370   5.036 -1.4924 -1.3148 -0.8760
 9565TIP3    H250187   6.237   5.508   4.982 -1.3149 -1.4422 -1.2882
 9566TIP3   OH250188   1.415   5.382   3.551  0.8176  0.8563 -0.1397
 9566TIP3    H150189   1.487   5.338   3.597  0.1442 -1.0596 -0.8125
 9566TIP3    H250190   1.457   5.456   3.507  2.0012  0.9569  1.0947
 9567TIP3   OH250191   5.206   2.440  16.400 -0.0172 -0.0111 -0.6242
 9567TIP3    H150192   5.113   2.434  16.420  0.2268 -0.9625  0.3042
 9567TIP3    H250193   5.249   2.435  16.486  0.9714 -1.7082 -1.1736
 9568TIP3   OH250194   3.367   3.048  13.023 -0.1000  0.2348  0.0210
 9568TIP3    H150195   3.322   3.058  13.107  0.1582 -1.2024  0.3575
 9568TIP3    H250196   3.301   3.009  12.965  0.5682 -1.6708  0.4549
 9569TIP3   OH250197   6.652   3.546  10.957 -0.3215 -0.0329  0.1874
 9569TIP3    H150198   6.660   3.508  11.044  1.0538  0.9428  0.5226
 9569TIP3    H250199   6.729   3.603  10.948 -0.1011 -0.5745 -1.8984
 9570TIP3   OH250200   4.504   4.318   6.181  0.6108  0.4150 -0.4742
 9570TIP3    H150201   4.597   4.301   6.198  1.0723 -2.3398 -4.3428
 9570TIP3    H250202   4.502   4.355   6.092 -2.0338 -0.4827 -0.8801
 9571TIP3   OH250203   4.851   1.054   5.146 -0.8608  1.0505 -0.5647
 9571TIP3    H150204   4.784   0.988   5.164 -0.0528 -0.3832 -2.4848
 9571TIP3    H250205   4.934   1.007   5.153 -0.0450  2.6064  0.9742
 9572TIP3   OH250206   2.407   1.827  15.842  0.1864 -0.0738 -0.3321
 9572TIP3    H150207   2.379   1.917  15.826  0.3019 -0.1851 -1.2030
 9572TIP3    H250208   2.373   1.807  15.929  0.1802  0.8171 -0.1176
 9573TIP3   OH250209   0.845   2.335   0.567  0.3829 -0.5078  0.2785
 9573TIP3    H150210   0.837   2.291   0.482 -0.8124 -1.0536  0.6585
 9573TIP3    H250211   0.774   2.400   0.567  1.2544  0.4772  0.3032
 9574TIP3   OH250212   1.051   2.076  11.575  0.7901  0.0747  0.5370
 9574TIP3    H150213   0.966   2.113  11.600  0.6756  0.6554 -0.6382
 9574TIP3    H250214   1.040   2.052  11.483  1.9161  0.1924  0.3631
 9575TIP3   OH250215   3.129   2.812   3.501 -0.0755 -0.3249 -0.3873
 9575TIP3    H150216   3.152   2.723   3.472 -1.6843 -0.9981  0.2600
 9575TIP3    H250217   3.124   2.806   3.596  1.1897  0.8440 -0.2260
 9576TIP3   OH250218   3.710   2.747  15.120 -0.0051 -0.0924 -0.2314
 9576TIP3    H150219   3.804   2.758  15.104  0.1012  0.0121  0.4464
 9576TIP3    H250220   3.705   2.695  15.200 -0.5254  1.3664  0.7231
 9577TIP3   OH250221   0.727   5.361   1.259  0.7061 -0.3696 -0.2248
 9577TIP3    H150222   0.740   5.294   1.191 -2.6878 -1.5844  0.1044
 9577TIP3    H250223   0.741   5.444   1.214  4.4992 -1.1346 -0.7955
 9578TIP3   OH250224   0.562   5.513  11.885  0.3236  0.0111 -0.1709
 9578TIP3    H150225   0.557   5.445  11.953  1.9418  0.1789  0.1576
 9578TIP3    H250226   0.545   5.595  11.931 -2.2636 -0.1671 -0.6822
 9579TIP3   OH250227   6.231   5.065  13.223 -0.0504  0.2485  0.2371
 9579TIP3    H150228   6.162   5.094  13.163 -1.9428  0.0735  2.1970
 9579TIP3    H250229   6.236   4.971  13.209 -1.8343 -0.0897  1.6007
 9580TIP3   OH250230   3.693   4.822   0.964  0.1790 -0.0942  0.4982
 9580TIP3    H150231   3.771   4.770   0.943 -0.4069 -1.2202  1.0327
 9580TIP3    H250232   3.678   4.807   1.057  0.3005  1.4990  0.8104
 9581TIP3   OH250233   5.684   2.674  11.940  0.4884 -0.0622 -0.0097
 9581TIP3    H150234   5.753   2.610  11.921 -0.8370 -1.8382  0.8535
 9581TIP3    H250235   5.608   2.642  11.892 -0.3163  0.6282  0.7623
 9582TIP3   OH250236   0.836   4.622   4.553  0.0512 -0.2633 -0.4101
 9582TIP3    H150237   0.763   4.599   4.497 -0.2133  0.0660 -0.2001
 9582TIP3    H250238   0.894   4.545   4.550 -0.8834 -1.0299  0.3791
 9583TIP3   OH250239   1.913   0.046   5.281  0.0124 -0.1918 -0.4651
 9583TIP3    H150240   1.931   0.126   5.331  0.4082 -0.2971 -0.4365
 9583TIP3    H250241   1.869   0.077   5.202 -2.2962 -0.1481  0.7371
 9584TIP3   OH250242   3.698   5.782  16.116  0.2853 -0.2183  0.0081
 9584TIP3    H150243   3.654   5.847  16.061  1.7365  0.5301 -0.3076
 9584TIP3    H250244   3.741   5.723  16.055  0.4880 -0.3905  0.3126
 9585TIP3   OH250245   6.109   3.684  13.083 -0.5146  0.3091 -0.4172
 9585TIP3    H150246   6.130   3.659  13.173 -2.2236 -1.9210 -0.5366
 9585TIP3    H250247   6.103   3.779  13.085  1.3128  0.4685  1.3576
 9586TIP3   OH250248   1.579   5.708  15.793  0.1236 -0.3015 -0.7726
 9586TIP3    H150249   1.616   5.791  15.824 -2.2352  0.1212  1.2059
 9586TIP3    H250250   1.572   5.654  15.872  0.0920 -1.8095 -1.7592
 9587TIP3   OH250251   4.646   5.684  15.285  0.6241 -0.1930 -0.0454
 9587TIP3    H150252   4.671   5.668  15.194 -1.2603  3.0369 -1.2982
 9587TIP3    H250253   4.656   5.779  15.296  0.6720 -0.4611  3.1194
 9588TIP3   OH250254   1.125   2.687   3.806 -0.1328 -0.2907  0.1211
 9588TIP3    H150255   1.213   2.702   3.839  0.2911 -1.9157 -0.1929
 9588TIP3    H250256   1.096   2.607   3.849 -1.1991 -0.1422 -0.2816
 9589TIP3   OH250257   2.704   4.345  13.482  0.1408 -0.0866 -0.3586
 9589TIP3    H150258   2.742   4.307  13.403 -0.8228 -2.6474  0.3085
 9589TIP3    H250259   2.779   4.378  13.532  0.8911  0.1812 -1.6099
 9590TIP3   OH250260   4.693   6.376   6.689  0.1189 -0.0726 -0.4528
 9590TIP3    H150261   4.710   6.284   6.671  2.0845 -0.5232  2.8450
 9590TIP3    H250262   4.615   6.377   6.745  2.2672 -0.3347  2.8421
 9591TIP3   OH250263   1.080   6.294  16.669  0.3632  0.1781 -0.3262
 9591TIP3    H150264   1.009   6.233  16.691  1.4360 -1.3666 -0.9998
 9591TIP3    H250265   1.043   6.347  16.598 -0.2049 -0.4458 -0.5136
 9592TIP3   OH250266   2.548   0.963  15.280  0.4697  0.3977 -0.1738
 9592TIP3    H150267   2.638   0.994  15.294  0.0435  1.3456  0.5662
 9592TIP3    H250268   2.499   0.998  15.354 -0.4834 -0.2724 -0.4724
 9593TIP3   OH250269   0.056   5.949  16.469 -0.1300  0.0313 -0.8355
 9593TIP3    H150270   0.071   5.908  16.554  0.9044 -0.0044 -1.0196
 9593TIP3    H250271   0.080   5.881  16.406  2.0685  1.0206 -1.1532
 9594TIP3   OH250272   0.247   2.365   5.263 -0.3951 -0.4577  0.0036
 9594TIP3    H150273   0.326   2.378   5.315 -0.7625 -0.3244  0.5426
 9594TIP3    H250274   0.221   2.275   5.282 -0.9970 -0.1382  0.7127
 9595TIP3   OH250275   6.723   1.612  11.749 -0.2555 -0.1639 -0.2607
 9595TIP3    H150276   6.799   1.629  11.693  0.4923 -0.1291  0.7420
 9595TIP3    H250277   6.652   1.595  11.687  0.3999  0.4743 -1.2257
 9596TIP3   OH250278   5.357   4.636  12.748  0.3306  0.1880  0.3235
 9596TIP3    H150279   5.425   4.572  12.767  0.0288  0.1203  1.2621
 9596TIP3    H250280   5.275   4.592  12.772  0.1869  1.2036  1.8912
 9597TIP3   OH250281   5.996   5.499  11.255 -0.4162  0.1653 -0.1304
 9597TIP3    H150282   5.988   5.539  11.169 -1.3461  1.9745  0.7437
 9597TIP3    H250283   6.015   5.407  11.237  1.5787  0.9014 -2.2353
 9598TIP3   OH250284   1.857   3.565  15.809 -0.1329  0.3264  0.4971
 9598TIP3    H150285   1.832   3.480  15.844 -0.9178 -0.0313 -0.8611
 9598TIP3    H250286   1.901   3.546  15.726 -0.0679  1.2267  0.3045
 9599TIP3   OH250287   5.640   2.193   0.429 -0.1676 -0.6054 -0.5087
 9599TIP3    H150288   5.688   2.147   0.498 -1.3048  0.6384  1.2007
 9599TIP3    H250289   5.567   2.235   0.475  1.9557  4.8506 -1.3927
 9600TIP3   OH250290   2.785   1.045   6.270 -0.0962  0.0245  0.0781
 9600TIP3    H150291   2.775   1.019   6.178 -1.5082  0.2356  0.1508
 9600TIP3    H250292   2.763   0.966   6.320 -0.3911  0.2136  0.2476
 9601TIP3   OH250293   6.548   3.742  16.947  0.2932 -0.5202  0.0646
 9601TIP3    H150294   6.531   3.728  16.853 -1.1584  0.8154  0.0828
 9601TIP3    H250295   6.476   3.695  16.990  0.0168  0.2293  0.4274
 9602TIP3   OH250296   1.717   1.220   0.072 -0.1896  0.6121 -0.1648
 9602TIP3    H150297   1.671   1.303   0.065 -0.3461  0.4535 -1.1695
 9602TIP3    H250298   1.774   1.230   0.148  0.6143  2.0485 -0.9280
 9603TIP3   OH250299   6.616   0.041   3.446  0.1077  0.4950 -0.1949
 9603TIP3    H150300   6.633   0.124   3.402 -0.4449  0.7199 -0.0036
 9603TIP3    H250301   6.673   0.041   3.522 -0.7682  1.2671  0.4834
 9604TIP3   OH250302   5.595   5.651  11.611 -0.2245  0.6883 -0.2699
 9604TIP3    H150303   5.648   5.579  11.576  0.1283  0.1015  1.3499
 9604TIP3    H250304   5.531   5.669  11.543 -0.6176 -1.4963 -0.5659
 9605TIP3   OH250305   5.415   1.659  11.364 -0.3318  0.1212  0.2285
 9605TIP3    H150306   5.416   1.564  11.368 -1.7189  0.1149  0.9599
 9605TIP3    H250307   5.375   1.680  11.279 -0.2796  0.0501  0.1871
 9606TIP3   OH250308   5.029   0.962  15.667  0.6532 -1.1953  0.1959
 9606TIP3    H150309   5.110   0.929  15.707  1.4089 -0.6845 -0.8734
 9606TIP3    H250310   4.980   0.998  15.741  2.8164  1.3903  0.5098
 9607TIP3   OH250311   6.249   4.566  16.597  0.2160  0.1184 -0.1675
 9607TIP3    H150312   6.177   4.605  16.548 -0.3282  0.9267  1.2269
 9607TIP3    H250313   6.219   4.566  16.688  2.5902  1.9513  0.6908
 9608TIP3   OH250314   6.495   6.378  15.624 -0.2913  0.0483 -0.2848
 9608TIP3    H150315   6.468   6.468  15.603  0.3357 -0.1004 -1.8904
 9608TIP3    H250316   6.426   6.323  15.586  0.6448 -0.2152 -1.6754
 9609TIP3   OH250317   4.871   6.601   6.699 -0.1609  0.5261 -0.5390
 9609TIP3    H150318   4.790   6.555   6.678 -0.0445 -0.7689  1.5218
 9609TIP3    H250319   4.926   6.534   6.741  1.2096  1.8463 -0.1577
 9610TIP3   OH250320   0.122   6.272  11.596  0.5328  0.4236 -0.1223
 9610TIP3    H150321   0.207   6.297  11.630  1.0370  0.0390 -1.0558
 9610TIP3    H250322   0.089   6.208  11.659  1.7144 -0.7319 -0.6241
 9611TIP3   OH250323   6.510   4.387  14.552  0.4537 -0.1637 -0.0117
 9611TIP3    H150324   6.511   4.303  14.597  0.2847 -0.6153 -0.8272
 9611TIP3    H250325   6.527   4.365  14.460  0.4973  0.7008 -0.2190
 9612TIP3   OH250326   0.183   6.113   3.414  0.3971 -0.7010  0.1165
 9612TIP3    H150327   0.257   6.052   3.419 -0.7022 -2.2048 -0.8802
 9612TIP3    H250328   0.189   6.152   3.327  0.5051 -0.1481  0.3661
 9613TIP3   OH250329   5.080   6.145  16.748 -0.6013 -0.6472 -0.3657
 9613TIP3    H150330   5.049   6.068  16.700 -0.2831 -0.9977 -0.0234
 9613TIP3    H250331   5.076   6.216  16.684  0.0887 -1.1642 -1.0114
 9614TIP3   OH250332   5.747   5.766  16.101 -0.5099 -0.4090  0.1583
 9614TIP3    H150333   5.739   5.712  16.180 -0.4694 -0.6913 -0.0291
 9614TIP3    H250334   5.679   5.733  16.042 -2.1402  1.3470  0.9443
 9615TIP3   OH250335   4.063   1.404  12.183  0.2604  0.5887  0.0013
 9615TIP3    H150336   4.023   1.416  12.097  0.1635 -1.5579 -0.3043
 9615TIP3    H250337   4.082   1.493  12.213  3.2016  1.4381 -3.5860
 9616TIP3   OH250338   3.425   2.132  12.770 -0.1433 -0.5060  0.1803
 9616TIP3    H150339   3.348   2.161  12.817  0.1837 -0.2909  0.5842
 9616TIP3    H250340   3.410   2.161  12.680  0.1182  0.8201  0.5423
 9617TIP3   OH250341   0.814   4.689  14.624  0.0325  0.5365  0.0922
 9617TIP3    H150342   0.847   4.616  14.572  1.5752  0.1097  1.5762
 9617TIP3    H250343   0.866   4.765  14.594  0.4986  0.4111  0.5649
 9618TIP3   OH250344   1.854   4.669   6.019  0.5119 -0.3520 -0.2580
 9618TIP3    H150345   1.791   4.610   6.059  0.7674 -1.0098 -0.7994
 9618TIP3    H250346   1.844   4.752   6.067 -2.9108  0.5719 -2.2093
 9619TIP3   OH250347   6.483   5.535   1.193 -0.0975 -0.1245 -0.0478
 9619TIP3    H150348   6.497   5.628   1.173 -0.1543 -0.3080 -0.9963
 9619TIP3    H250349   6.540   5.517   1.267 -0.3181  0.7463  0.3446
 9620TIP3   OH250350   5.726   0.737  11.809 -0.2507  0.3161 -0.2623
 9620TIP3    H150351   5.716   0.707  11.719 -0.6294  1.5439 -0.6375
 9620TIP3    H250352   5.821   0.734  11.825 -0.2573 -0.8298 -0.3582
 9621TIP3   OH250353   1.766   1.220   5.786  0.3048  0.9107 -0.0526
 9621TIP3    H150354   1.732   1.208   5.875  1.6982 -1.8516  0.2308
 9621TIP3    H250355   1.701   1.275   5.743 -0.7430  1.8202  2.4819
 9622TIP3   OH250356   6.163   4.203  11.790 -0.0874  0.3292 -0.4268
 9622TIP3    H150357   6.231   4.185  11.725 -0.7083 -1.6085 -0.6035
 9622TIP3    H250358   6.090   4.147  11.764 -0.7199  0.2631  1.3608
 9623TIP3   OH250359   0.883   0.689   4.044 -0.5881 -0.2508 -0.1956
 9623TIP3    H150360   0.824   0.614   4.042  0.1198 -0.8041 -1.7601
 9623TIP3    H250361   0.966   0.654   4.076 -0.8585  0.3783  1.3022
 9624TIP3   OH250362   6.468   6.176  11.772 -0.3588 -0.1523 -0.5044
 9624TIP3    H150363   6.490   6.211  11.859  0.2335  0.7367 -0.9885
 9624TIP3    H250364   6.530   6.104  11.759 -0.3811 -0.2206 -0.2305
 9625TIP3   OH250365   5.510   5.876   1.297  0.3677 -0.1806 -0.3996
 9625TIP3    H150366   5.427   5.915   1.326  0.5183 -0.7177  0.8175
 9625TIP3    H250367   5.542   5.829   1.374  2.7326  1.5481 -0.2211
 9626TIP3   OH250368   0.922   6.111  12.022 -0.4087  0.2127  0.0309
 9626TIP3    H150369   0.983   6.184  12.034 -0.9923  0.3297  3.3056
 9626TIP3    H250370   0.841   6.153  11.993 -0.0224  0.5235 -0.6242
 9627TIP3   OH250371   3.107   0.125   2.407  0.2513  0.2815 -0.6890
 9627TIP3    H150372   3.186   0.180   2.398 -0.7692  2.0284  0.3480
 9627TIP3    H250373   3.061   0.162   2.483 -1.1286 -1.2673 -0.7201
 9628TIP3   OH250374   3.490   5.123  15.178 -0.0239 -0.5821 -0.1109
 9628TIP3    H150375   3.421   5.158  15.122  3.5610  1.3604 -3.8576
 9628TIP3    H250376   3.509   5.036  15.142  1.7031  0.3113 -1.4824
 9629TIP3   OH250377   1.210   2.014   3.816 -0.2082  0.0652 -0.1169
 9629TIP3    H150378   1.246   2.102   3.824 -0.1014  0.2024 -1.8089
 9629TIP3    H250379   1.202   1.983   3.906  0.2701  1.5888  0.4738
 9630TIP3   OH250380   0.126   5.873   4.731 -0.0338  0.2248  0.5328
 9630TIP3    H150381   0.117   5.890   4.824  0.5650 -2.4237  1.1592
 9630TIP3    H250382   0.187   5.940   4.700 -0.3466  1.2270  1.9994
 9631TIP3   OH250383   5.651   3.637   3.316  0.6597  0.2411  0.0123
 9631TIP3    H150384   5.568   3.675   3.344  0.7401 -0.2599  0.9772
 9631TIP3    H250385   5.641   3.543   3.331  2.1437  0.3614  2.2430
 9632TIP3   OH250386   2.927   5.088  13.033  0.5121  0.1114  0.0879
 9632TIP3    H150387   2.894   5.001  13.053  0.8060  0.2205  1.0801
 9632TIP3    H250388   2.981   5.076  12.955  0.6080 -0.6066  0.2630
 9633TIP3   OH250389   2.322   5.963   2.742  0.3950  0.5072  0.0296
 9633TIP3    H150390   2.353   5.877   2.714  1.0407  0.7102  0.0897
 9633TIP3    H250391   2.394   5.998   2.794  0.2122  1.1560 -0.1422
 9634TIP3   OH250392   0.721   1.639   1.950  0.0053 -0.5474 -0.4009
 9634TIP3    H150393   0.798   1.681   1.913 -1.5324  2.7300 -0.1990
 9634TIP3    H250394   0.724   1.660   2.043 -1.8550  1.1028 -0.6260
 9635TIP3   OH250395   3.091   5.277  13.626  0.0993 -0.3893 -0.2904
 9635TIP3    H150396   3.083   5.238  13.713 -0.9536 -1.8774 -0.9944
 9635TIP3    H250397   3.069   5.369  13.639  2.7961  0.1102  1.4623
 9636TIP3   OH250398   6.305   2.258   3.943  0.5154 -0.1930  0.2053
 9636TIP3    H150399   6.363   2.286   4.013 -0.1173  0.8627  0.3345
 9636TIP3    H250400   6.231   2.217   3.988  0.1384  0.4287  0.1617
 9637TIP3   OH250401   2.335   4.852  12.817 -0.7507 -0.1637  0.1935
 9637TIP3    H150402   2.343   4.776  12.760 -1.7238 -0.3760  0.3252
 9637TIP3    H250403   2.401   4.914  12.784 -1.3605 -0.2358 -1.2275
 9638TIP3   OH250404   0.681   6.844   0.952 -0.3560 -0.1019 -0.1326
 9638TIP3    H150405   0.604   6.896   0.974  0.3640  1.6696 -1.5211
 9638TIP3    H250406   0.754   6.907   0.956  0.8914 -1.5068  0.2073
 9639TIP3   OH250407   4.355   6.648  14.061  0.3862 -0.5869 -0.4035
 9639TIP3    H150408   4.336   6.554  14.056  0.3393 -0.6392  0.4826
 9639TIP3    H250409   4.296   6.681  14.129  2.4951 -0.5260  1.5576
 9640TIP3   OH250410   4.202   6.609  14.864 -0.0846 -0.3439  0.2194
 9640TIP3    H150411   4.173   6.696  14.893 -2.1913 -1.2450  0.9441
 9640TIP3    H250412   4.252   6.574  14.938 -1.5001 -0.7855  0.9899
 9641TIP3   OH250413   6.012   1.865  14.785  0.5479  0.2733 -0.1694
 9641TIP3    H150414   6.080   1.811  14.745  1.1631  0.8134  0.1183
 9641TIP3    H250415   6.038   1.955  14.764  1.7434  0.6777  2.6796
 9642TIP3   OH250416   1.075   5.317   2.849 -0.1438  0.2811  0.0458
 9642TIP3    H150417   1.008   5.361   2.901 -1.0643  1.4614 -2.0218
 9642TIP3    H250418   1.038   5.311   2.761  1.7184 -0.7434 -0.7361
 9643TIP3   OH250419   4.479   4.204  13.041 -0.1260 -0.1561 -0.0191
 9643TIP3    H150420   4.522   4.201  13.127 -0.1678  0.4068  0.0294
 9643TIP3    H250421   4.431   4.287  13.042  0.6276  0.3186 -0.9410
 9644TIP3   OH250422   4.516   3.995  12.692 -0.2007 -0.2902 -0.9327
 9644TIP3    H150423   4.576   3.971  12.622  0.0739 -0.6557 -0.5798
 9644TIP3    H250424   4.466   3.916  12.711  1.7162 -1.1037  1.2270
 9645TIP3   OH250425   5.807   5.385  14.685 -0.4102 -0.3381  0.3259
 9645TIP3    H150426   5.828   5.454  14.748  0.8707  0.1510 -0.5952
 9645TIP3    H250427   5.789   5.431  14.604 -1.1105 -1.0163  0.0886
 9646TIP3   OH250428   6.657   6.309   0.363  0.1978  0.0278 -0.5296
 9646TIP3    H150429   6.568   6.337   0.342  0.8432  1.9209 -0.9348
 9646TIP3    H250430   6.647   6.249   0.437 -1.3869  0.4421 -0.3816
 9647TIP3   OH250431   1.629   4.729  13.738 -0.3437  0.4023  0.1214
 9647TIP3    H150432   1.539   4.719  13.707 -0.5499  0.6604  0.6199
 9647TIP3    H250433   1.683   4.689  13.669 -0.9261 -1.1650  0.5204
 9648TIP3   OH250434   4.673   0.855   1.429  0.0577 -0.0327  0.4515
 9648TIP3    H150435   4.727   0.839   1.352  0.5301 -0.5498  0.8762
 9648TIP3    H250436   4.730   0.904   1.488 -0.4778  0.8291  0.2664
 9649TIP3   OH250437   5.130   1.756   2.550  0.3374 -0.1736 -0.1955
 9649TIP3    H150438   5.100   1.846   2.561 -0.3118 -0.4762  0.5727
 9649TIP3    H250439   5.183   1.758   2.469 -0.0078  0.7992 -0.4088
 9650TIP3   OH250440   1.149   4.081   0.934 -0.2890  0.1164 -0.3585
 9650TIP3    H150441   1.176   4.022   1.004 -0.3111 -0.6312 -0.9521
 9650TIP3    H250442   1.094   4.146   0.976  0.2512  0.0755  0.4231
 9651TIP3   OH250443   0.546   0.248  15.028  0.1712 -0.5905 -0.6539
 9651TIP3    H150444   0.543   0.222  14.935 -0.0812  0.3607 -0.9266
 9651TIP3    H250445   0.543   0.344  15.025  1.8243 -0.4811  0.2781
 9652TIP3   OH250446   3.926   4.382   6.021  0.1451  0.4489  0.2357
 9652TIP3    H150447   3.841   4.339   6.008 -0.4870  0.5336  3.3149
 9652TIP3    H250448   3.960   4.343   6.101  2.4939  1.3174 -0.2539
 9653TIP3   OH250449   1.948   4.509   0.094 -0.0279 -0.5308 -0.0714
 9653TIP3    H150450   2.035   4.547   0.094  0.4319 -1.5405 -1.2054
 9653TIP3    H250451   1.950   4.444   0.165  0.2469 -0.7768 -0.3030
 9654TIP3   OH250452   6.031   0.730  13.101 -0.1047  0.0831 -0.2418
 9654TIP3    H150453   5.953   0.753  13.050  1.4782  1.2540 -2.3345
 9654TIP3    H250454   6.100   0.720  13.035  0.9333 -4.1421  1.1920
 9655TIP3   OH250455   0.764   6.769   1.934  0.3322 -0.1344 -0.1156
 9655TIP3    H150456   0.836   6.707   1.922  0.6396  0.4103 -1.2272
 9655TIP3    H250457   0.690   6.728   1.888 -0.7913 -1.7747  2.8795
 9656TIP3   OH250458   1.498   0.804   0.210 -0.3790  0.1101 -0.1116
 9656TIP3    H150459   1.552   0.841   0.280 -0.4086 -0.8887  0.4610
 9656TIP3    H250460   1.416   0.854   0.214  0.2947  1.2995 -0.6595
 9657TIP3   OH250461   5.889   2.982  10.133 -0.4154  0.7719  0.0663
 9657TIP3    H150462   5.875   3.073  10.161 -0.5115  1.1837 -1.2506
 9657TIP3    H250463   5.984   2.972  10.129 -0.3751  1.4609 -1.6696
 9658TIP3   OH250464   0.540   3.586  11.634  0.7346 -0.6558 -0.2826
 9658TIP3    H150465   0.634   3.576  11.650  0.5804 -3.1100 -0.5709
 9658TIP3    H250466   0.522   3.529  11.559 -0.8706  0.4489 -0.8115
 9659TIP3   OH250467   1.003   2.011   2.040  0.4270  0.2984 -0.1203
 9659TIP3    H150468   0.927   2.066   2.060 -0.3231  0.0860 -2.1247
 9659TIP3    H250469   1.052   2.061   1.974  0.8445 -0.5281 -0.4558
 9660TIP3   OH250470   6.095   0.985  16.612 -0.2566  0.2770  0.4882
 9660TIP3    H150471   6.045   1.044  16.555  1.5385  0.2672 -1.2130
 9660TIP3    H250472   6.184   1.022  16.611  0.1419 -0.5722  2.1408
 9661TIP3   OH250473   1.600   0.321   1.659 -0.0680 -0.1811  0.2343
 9661TIP3    H150474   1.521   0.322   1.712 -0.3014 -1.6419 -0.0565
 9661TIP3    H250475   1.612   0.230   1.634  1.0752  0.1855 -0.6834
 9662TIP3   OH250476   2.231   6.790   1.905 -0.1427 -0.1230 -0.4906
 9662TIP3    H150477   2.200   6.870   1.947  1.4563  0.5486 -0.5156
 9662TIP3    H250478   2.325   6.788   1.923  0.2485 -0.8538 -2.3449
 9663TIP3   OH250479   5.651   1.137   1.878  0.5138 -0.5441  0.4119
 9663TIP3    H150480   5.639   1.163   1.786  1.5529  0.1738  0.4642
 9663TIP3    H250481   5.742   1.161   1.898  0.7859 -2.0942  1.1736
 9664TIP3   OH250482   0.407   3.108  12.628 -0.2179  0.5542  0.1219
 9664TIP3    H150483   0.374   3.079  12.543  0.6877  0.9928 -0.3925
 9664TIP3    H250484   0.356   3.186  12.648  0.0041  0.8162 -0.3236
 9665TIP3   OH250485   1.599   2.369   1.048 -0.5229  0.0616 -0.4359
 9665TIP3    H150486   1.562   2.394   1.133 -1.1635  0.0160 -0.7014
 9665TIP3    H250487   1.530   2.319   1.005  0.4057 -1.4302 -0.2877
 9666TIP3   OH250488   1.914   0.985  14.935 -0.5769 -0.7446  0.6762
 9666TIP3    H150489   1.996   0.937  14.941  0.7468  1.4518  1.5529
 9666TIP3    H250490   1.861   0.952  15.008 -0.9427 -2.8639 -0.4708
 9667TIP3   OH250491   0.334   3.788   4.070 -0.2619 -0.0677  0.2134
 9667TIP3    H150492   0.303   3.709   4.114 -1.9655  0.2336 -0.3859
 9667TIP3    H250493   0.380   3.755   3.993  0.7188 -0.5151  0.9701
 9668TIP3   OH250494   3.410   0.269  15.264  0.2680  0.3810 -0.0039
 9668TIP3    H150495   3.468   0.344  15.248  0.6731  0.4068  1.4823
 9668TIP3    H250496   3.322   0.307  15.270  0.3695  0.6261 -0.0497
 9669TIP3   OH250497   1.312   5.425  12.596  0.1629  0.4804  0.1679
 9669TIP3    H150498   1.258   5.446  12.673  2.1951  1.0664  1.4973
 9669TIP3    H250499   1.390   5.480  12.605  0.7111  0.1562 -2.0566
 9670TIP3   OH250500   1.296   0.123   3.325 -0.1173  0.0701 -0.0549
 9670TIP3    H150501   1.207   0.154   3.340 -0.1828  0.5902 -1.4061
 9670TIP3    H250502   1.289   0.027   3.327 -0.6487  0.1102  0.0996
 9671TIP3   OH250503   0.799   4.900  12.349  0.4090  0.0236 -0.0902
 9671TIP3    H150504   0.856   4.977  12.355  0.6272 -0.2329  1.3707
 9671TIP3    H250505   0.851   4.828  12.383 -0.3868 -0.4436  0.1775
 9672TIP3   OH250506   4.458   4.590   2.618  0.4106 -0.3423  0.1643
 9672TIP3    H150507   4.456   4.609   2.524 -0.7009  1.0881  0.4410
 9672TIP3    H250508   4.436   4.673   2.660  0.5158 -1.0446  1.6871
 9673TIP3   OH250509   0.053   5.751   5.515 -0.5493 -0.0588  0.2819
 9673TIP3    H150510   0.050   5.656   5.531 -2.5801  0.0149  0.5110
 9673TIP3    H250511   0.022   5.790   5.597  1.2449  0.8864  0.5592
 9674TIP3   OH250512   1.914   1.008  11.553  0.5242 -0.7756 -0.0202
 9674TIP3    H150513   1.943   0.998  11.462 -0.6516  1.3612 -0.7071
 9674TIP3    H250514   1.957   1.089  11.582 -0.1353 -0.7427  0.8824
 9675TIP3   OH250515   1.329   1.176  13.390 -0.3125 -0.2199 -0.3847
 9675TIP3    H150516   1.337   1.271  13.394  0.7988 -0.3218  0.0234
 9675TIP3    H250517   1.244   1.161  13.349 -0.2191  0.9452 -1.0392
 9676TIP3   OH250518   0.909   3.118  15.811  0.1990  0.3259 -0.2582
 9676TIP3    H150519   0.912   3.040  15.756  2.8309 -0.6330  1.0834
 9676TIP3    H250520   0.863   3.089  15.890  2.1979 -0.2927  0.7340
 9677TIP3   OH250521   3.347   0.281  13.301  0.0327 -0.0127 -0.0924
 9677TIP3    H150522   3.398   0.324  13.233 -0.5274 -0.3819 -0.7564
 9677TIP3    H250523   3.412   0.256  13.367  0.4532  1.2096 -0.0193
 9678TIP3   OH250524   3.928   4.655   5.997  0.3680  0.0637 -0.1332
 9678TIP3    H150525   3.897   4.565   6.007 -0.8258  0.5009  0.2240
 9678TIP3    H250526   3.941   4.687   6.087 -1.1366  0.8776 -0.1760
 9679TIP3   OH250527   1.218   0.768   5.039 -0.5469  0.0348 -0.7422
 9679TIP3    H150528   1.258   0.711   4.974 -2.6786 -1.4780 -0.8506
 9679TIP3    H250529   1.221   0.717   5.121 -1.8251  0.0177 -0.6779
 9680TIP3   OH250530   6.005   5.804   5.535  0.2513 -0.7044  0.7846
 9680TIP3    H150531   6.033   5.725   5.489  0.3910  0.4130 -1.1411
 9680TIP3    H250532   5.910   5.795   5.545  0.1806 -0.8438  0.0033
 9681TIP3   OH250533   3.750   3.206  16.899  0.9437  0.0794  0.4944
 9681TIP3    H150534   3.759   3.111  16.899  0.4213  0.0228  1.3695
 9681TIP3    H250535   3.771   3.232  16.989 -2.0070  0.4660  1.1744
 9682TIP3   OH250536   5.433   2.485  15.852  0.3478  0.4090  0.0647
 9682TIP3    H150537   5.364   2.466  15.915  0.6483 -0.5218  0.1300
 9682TIP3    H250538   5.483   2.556  15.892  0.1120  0.3042  0.5570
 9683TIP3   OH250539   4.464   3.087  13.095  0.5605  0.3329  0.1111
 9683TIP3    H150540   4.469   3.014  13.034 -0.8112  1.3981 -1.3375
 9683TIP3    H250541   4.386   3.069  13.147  1.4490 -0.3152  1.2759
 9684TIP3   OH250542   2.817   0.928   3.438  0.4896 -0.3426  0.1726
 9684TIP3    H150543   2.787   0.896   3.523  2.3907 -1.2135  0.5778
 9684TIP3    H250544   2.865   1.008   3.458  1.3643 -0.8127 -0.0002
 9685TIP3   OH250545   4.665   6.363   2.621 -0.5997  0.1634  0.0793
 9685TIP3    H150546   4.695   6.432   2.563  0.1909  1.5819  2.0451
 9685TIP3    H250547   4.572   6.383   2.636 -0.4363  0.6899  0.4425
 9686TIP3   OH250548   3.430   6.102  14.445 -0.0213  0.1264 -0.4691
 9686TIP3    H150549   3.394   6.189  14.428 -0.0935  0.0546 -0.6741
 9686TIP3    H250550   3.476   6.078  14.364 -0.3298 -0.1925 -0.5501
 9687TIP3   OH250551   5.209   0.246  12.356 -0.0070 -0.0880  0.1928
 9687TIP3    H150552   5.221   0.340  12.342  0.2735 -0.1265  0.1529
 9687TIP3    H250553   5.289   0.218  12.401  0.1931 -0.4215 -0.3547
 9688TIP3   OH250554   4.401   0.197  10.541  0.3817  0.2210 -0.5252
 9688TIP3    H150555   4.362   0.285  10.538  0.2910  0.2335  0.6474
 9688TIP3    H250556   4.349   0.146  10.478  0.5670  1.0419 -1.3715
 9689TIP3   OH250557   4.441   6.166   0.951  0.3254  0.0907  0.1190
 9689TIP3    H150558   4.534   6.181   0.966  0.2250  1.1966 -0.2806
 9689TIP3    H250559   4.418   6.224   0.878 -0.4277 -1.0162 -0.5735
 9690TIP3   OH250560   2.857   4.594   0.067  0.3822  0.5947 -0.0106
 9690TIP3    H150561   2.839   4.597   0.161  1.4158  0.1078  0.2237
 9690TIP3    H250562   2.789   4.648   0.027 -1.7254 -1.3983  0.7423
 9691TIP3   OH250563   2.850   3.114  11.557  0.2487  0.2055  0.2775
 9691TIP3    H150564   2.785   3.147  11.619  0.9794 -0.8376  1.6465
 9691TIP3    H250565   2.893   3.042  11.603  1.4734  0.0138 -1.0945
 9692TIP3   OH250566   2.973   6.467  14.871  0.0925  0.1511  0.4305
 9692TIP3    H150567   2.980   6.529  14.943  0.7181  0.4582  0.1137
 9692TIP3    H250568   2.894   6.417  14.890 -1.3760  2.1478 -0.1601
 9693TIP3   OH250569   1.590   3.376   2.405  0.0469  0.0542 -0.2942
 9693TIP3    H150570   1.519   3.325   2.443  1.6432 -0.9824  1.5066
 9693TIP3    H250571   1.670   3.331   2.434  1.4985  2.4026 -0.3384
 9694TIP3   OH250572   3.385   1.327  16.790 -0.3980 -0.0390 -0.8399
 9694TIP3    H150573   3.447   1.385  16.833 -0.3566 -0.4304 -0.3652
 9694TIP3    H250574   3.345   1.276  16.861  0.4168 -1.4219 -1.3276
 9695TIP3   OH250575   1.034   0.717  11.791  0.1957  0.6175  0.2256
 9695TIP3    H150576   1.058   0.764  11.711 -1.8310  1.6578  0.1862
 9695TIP3    H250577   0.955   0.669  11.768  0.5002 -0.3950  1.1771
 9696TIP3   OH250578   1.243   0.308   4.675  0.3597 -0.8521  0.2065
 9696TIP3    H150579   1.190   0.382   4.643  3.6412  1.3137 -0.7053
 9696TIP3    H250580   1.189   0.231   4.657 -2.0214  1.0723 -1.5955
 9697TIP3   OH250581   6.021   1.110  13.019  0.0090  0.0618 -0.0423
 9697TIP3    H150582   6.111   1.083  13.036  0.2956  1.2312  0.4367
 9697TIP3    H250583   6.005   1.088  12.928  1.5738  1.8398 -0.8258
 9698TIP3   OH250584   6.366   3.276   1.255 -0.7718 -0.6475 -0.0541
 9698TIP3    H150585   6.316   3.206   1.214  0.7034 -1.0013 -1.3391
 9698TIP3    H250586   6.319   3.356   1.232  0.8832 -0.6218 -4.1243
 9699TIP3   OH250587   4.498   0.668   0.781  0.5953 -0.5240  0.0836
 9699TIP3    H150588   4.463   0.710   0.860  2.2280  1.0151  0.0452
 9699TIP3    H250589   4.480   0.730   0.711  0.5574 -1.1653 -0.4782
 9700TIP3   OH250590   6.233   5.126   4.471 -0.2383 -0.1076 -0.0642
 9700TIP3    H150591   6.242   5.208   4.424 -0.5240 -1.2474 -2.2351
 9700TIP3    H250592   6.145   5.128   4.508 -0.4803  0.2922 -0.6616
 9701TIP3   OH250593   0.939   6.060   5.685 -0.1201 -0.2497 -0.1808
 9701TIP3    H150594   1.031   6.037   5.674  0.0710  0.6748 -0.6136
 9701TIP3    H250595   0.940   6.139   5.738 -0.8521 -2.1498  2.9308
 9702TIP3   OH250596   5.817   6.100   2.758 -0.3091 -0.1718 -0.5524
 9702TIP3    H150597   5.787   6.066   2.842  1.2480 -1.9237 -0.6422
 9702TIP3    H250598   5.910   6.119   2.772 -0.5592  1.7146 -1.2539
 9703TIP3   OH250599   3.288   6.424   5.791 -0.0681  0.4133 -0.2356
 9703TIP3    H150600   3.223   6.418   5.721  0.1960  1.0871 -0.5462
 9703TIP3    H250601   3.238   6.407   5.871 -0.1368 -1.6222 -0.6714
 9704TIP3   OH250602   3.475   6.231  12.720 -0.1785  0.5944 -0.6200
 9704TIP3    H150603   3.471   6.136  12.706  1.0091  0.2376  1.0862
 9704TIP3    H250604   3.549   6.259  12.667 -0.3320  0.5111 -0.8791
 9705TIP3   OH250605   2.167   4.329  12.996 -0.3440  0.3854 -0.5425
 9705TIP3    H150606   2.165   4.408  13.050 -1.2879 -0.9256  1.4656
 9705TIP3    H250607   2.121   4.354  12.916  1.1350  2.4143 -0.8365
 9706TIP3   OH250608   0.960   4.237  12.368  0.3896  0.3336  0.0077
 9706TIP3    H150609   0.974   4.255  12.275  0.4684  1.0061  0.1381
 9706TIP3    H250610   1.022   4.295  12.413  0.1754  0.1991  0.4809
 9707TIP3   OH250611   1.743   5.315  13.997 -0.4861  0.1565 -0.2326
 9707TIP3    H150612   1.823   5.339  14.044 -0.0385  0.7118 -1.2510
 9707TIP3    H250613   1.692   5.265  14.061  1.0868 -1.0568  0.1308
 9708TIP3   OH250614   3.248   3.031   5.573 -0.3275  0.0793  0.2383
 9708TIP3    H150615   3.239   3.000   5.483  0.3488 -0.4830  0.3546
 9708TIP3    H250616   3.280   2.955   5.622  1.4598  0.9481  0.5179
 9709TIP3   OH250617   5.041   0.471  11.445  0.2248  0.8325  1.0369
 9709TIP3    H150618   5.070   0.395  11.395 -1.5508 -0.8910  2.4606
 9709TIP3    H250619   4.984   0.519  11.385  1.1132  0.8950  0.2237
 9710TIP3   OH250620   0.452   2.073  15.907  0.0955 -0.8103 -0.1405
 9710TIP3    H150621   0.530   2.027  15.875  0.1799  0.4121 -1.7749
 9710TIP3    H250622   0.414   2.113  15.830 -1.3915 -0.2091  0.8595
 9711TIP3   OH250623   0.395   5.257   0.093  0.1252  0.3769  0.4171
 9711TIP3    H150624   0.380   5.203   0.171  0.4196 -0.1793  0.0980
 9711TIP3    H250625   0.330   5.226   0.031 -0.5913  1.3230  0.6814
 9712TIP3   OH250626   0.246   6.119  14.314 -0.4506 -0.0045  0.7408
 9712TIP3    H150627   0.201   6.159  14.389 -2.2321 -1.1443  0.3529
 9712TIP3    H250628   0.305   6.055  14.353 -0.8503 -0.1017  1.2043
 9713TIP3   OH250629   0.075   3.109   0.024 -0.5539  0.0948  0.5306
 9713TIP3    H150630   0.053   3.019   0.048  0.6316 -0.1131  0.8942
 9713TIP3    H250631   0.075   3.109  -0.072 -1.4956 -0.0372  0.5198
 9714TIP3   OH250632   3.290   2.817   1.928  0.6642 -0.8365 -0.0760
 9714TIP3    H150633   3.330   2.735   1.956  1.5057  0.2704  2.2742
 9714TIP3    H250634   3.203   2.817   1.969  0.9353 -0.2913  0.5245
 9715TIP3   OH250635   2.238   4.628   2.659 -0.1195 -0.0321  0.5684
 9715TIP3    H150636   2.181   4.568   2.612 -0.4230  0.2088  0.6290
 9715TIP3    H250637   2.216   4.714   2.624  0.3595  0.0397  0.4323
 9716TIP3   OH250638   5.459   6.406   0.018  0.9068  0.4034  0.1988
 9716TIP3    H150639   5.374   6.387   0.057  2.0426 -1.7004  1.8637
 9716TIP3    H250640   5.487   6.487   0.059 -0.9605  2.1314 -1.6790
 9717TIP3   OH250641   4.162   4.444  12.999  0.2201  0.4491  0.1002
 9717TIP3    H150642   4.226   4.448  12.928  0.5068 -0.7731  0.2732
 9717TIP3    H250643   4.102   4.374  12.974 -0.2204  0.6308  0.6232
 9718TIP3   OH250644   0.502   1.992  10.581  0.7067 -0.3296  0.2068
 9718TIP3    H150645   0.446   1.915  10.573 -0.3604  0.3268  1.0367
 9718TIP3    H250646   0.485   2.043  10.502  1.6512 -1.0755 -0.4953
 9719TIP3   OH250647   2.638   2.326   5.526 -0.6208 -0.4253 -0.0616
 9719TIP3    H150648   2.607   2.386   5.593 -1.9194 -0.8989 -0.2123
 9719TIP3    H250649   2.679   2.254   5.575 -0.8228 -0.3694  0.1911
 9720TIP3   OH250650   4.350   6.239  12.689  0.5451 -0.6297 -0.0801
 9720TIP3    H150651   4.269   6.193  12.713  0.2853 -0.3632 -0.4413
 9720TIP3    H250652   4.401   6.173  12.642 -0.0862 -0.4016 -1.1369
 9721TIP3   OH250653   3.268   6.850   3.372  0.3744  0.1730  0.4521
 9721TIP3    H150654   3.323   6.793   3.425 -0.0309 -0.0133  0.6743
 9721TIP3    H250655   3.330   6.912   3.332  1.0740 -1.5058 -1.2445
 9722TIP3   OH250656   3.324   1.389   3.916 -0.9468 -0.0576 -0.0050
 9722TIP3    H150657   3.317   1.476   3.877 -1.3090  0.0693  0.3510
 9722TIP3    H250658   3.374   1.339   3.851 -0.1466  0.5917  0.0915
 9723TIP3   OH250659   0.711   3.932   4.830 -0.2024 -0.4209 -0.3910
 9723TIP3    H150660   0.646   4.001   4.843 -0.3732 -0.3458 -1.6101
 9723TIP3    H250661   0.721   3.925   4.735  1.4512 -0.5309 -0.2482
 9724TIP3   OH250662   5.655   3.647  16.998 -0.4543  0.4365  0.3030
 9724TIP3    H150663   5.637   3.740  17.006 -3.2237  0.0038  0.1640
 9724TIP3    H250664   5.651   3.614  17.088  1.4408  0.5473  0.4593
 9725TIP3   OH250665   5.929   3.899  11.096  0.2772 -0.4081  0.0212
 9725TIP3    H150666   5.919   3.890  11.191 -0.7177 -2.1641 -0.2065
 9725TIP3    H250667   5.897   3.987  11.076 -0.7999 -0.5195  1.1614
 9726TIP3   OH250668   4.620   4.117  14.205  0.0813 -0.3264 -0.8194
 9726TIP3    H150669   4.563   4.141  14.132  0.0659 -0.7175 -0.9378
 9726TIP3    H250670   4.562   4.072  14.266  0.0564  0.1584 -0.4817
 9727TIP3   OH250671   6.804   1.963   1.927 -0.3251 -0.2347 -0.1500
 9727TIP3    H150672   6.884   1.922   1.895 -1.6782 -2.4245 -0.9041
 9727TIP3    H250673   6.767   1.899   1.989 -1.2564  0.9385  0.5561
 9728TIP3   OH250674   0.029   5.285  13.580  0.3195 -0.2325  0.4823
 9728TIP3    H150675   0.102   5.333  13.541 -0.6280  1.6197  0.8629
 9728TIP3    H250676   0.010   5.214  13.518 -0.3285  1.8583 -1.8607
 9729TIP3   OH250677   3.850   3.754   5.570  0.3000  0.2746  0.0714
 9729TIP3    H150678   3.897   3.683   5.525  0.7950  1.2442 -0.9807
 9729TIP3    H250679   3.769   3.765   5.520  0.4413  0.7624 -0.0543
 9730TIP3   OH250680   5.956   3.868  16.130 -0.2080  0.1025 -0.1379
 9730TIP3    H150681   5.903   3.925  16.186 -1.3174 -1.2802  0.2651
 9730TIP3    H250682   5.893   3.823  16.074  0.5082 -1.5839  0.3442
 9731TIP3   OH250683   3.829   0.533  14.335 -0.6564 -1.1993 -0.2302
 9731TIP3    H150684   3.741   0.569  14.345 -0.6003 -1.0268 -0.3645
 9731TIP3    H250685   3.870   0.547  14.421  0.2978  1.5420 -1.0253
 9732TIP3   OH250686   5.564   0.580   2.451  0.3019  0.3570 -0.0160
 9732TIP3    H150687   5.536   0.588   2.542 -0.4497  0.8078 -0.2737
 9732TIP3    H250688   5.635   0.643   2.441 -1.0546  1.9276 -0.2774
 9733TIP3   OH250689   4.516   2.412  11.205 -0.5447 -0.6655  0.2242
 9733TIP3    H150690   4.557   2.462  11.134  1.0032  0.1010  1.6076
 9733TIP3    H250691   4.461   2.348  11.159 -0.9890  0.9186 -1.6453
 9734TIP3   OH250692   1.327   3.473   3.311  0.7994 -0.3115 -0.3996
 9734TIP3    H150693   1.354   3.551   3.359 -1.3611 -0.1503  0.6652
 9734TIP3    H250694   1.387   3.469   3.236  2.4461  1.0200  0.7725
 9735TIP3   OH250695   3.254   3.883  12.208 -0.2001 -0.1988  0.1161
 9735TIP3    H150696   3.237   3.797  12.169 -0.8735 -0.3584  0.7499
 9735TIP3    H250697   3.190   3.941  12.166 -1.6978 -0.5911  1.7388
 9736TIP3   OH250698   4.689   5.971  13.532 -0.3210  0.6149 -0.1729
 9736TIP3    H150699   4.760   6.029  13.561  0.3164 -0.4688  0.5508
 9736TIP3    H250700   4.647   5.943  13.614 -1.3520  0.9434 -0.5761
 9737TIP3   OH250701   6.741   3.111   2.658 -0.0549  0.3387  0.1721
 9737TIP3    H150702   6.689   3.085   2.734 -0.4027  2.4378  0.7171
 9737TIP3    H250703   6.769   3.028   2.618 -3.4083 -0.9035  0.1018
 9738TIP3   OH250704   0.963   3.995   3.451  0.4005  0.2280 -0.6114
 9738TIP3    H150705   0.910   3.945   3.513 -0.3665  0.8987 -0.7048
 9738TIP3    H250706   1.039   4.023   3.502  1.1394 -1.4898 -0.7107
 9739TIP3   OH250707   2.928   4.303   2.479 -0.1147  0.2594 -0.3694
 9739TIP3    H150708   2.870   4.314   2.404  0.0220  1.4185 -0.3332
 9739TIP3    H250709   2.945   4.393   2.509  1.6149 -0.0571 -0.3161
 9740TIP3   OH250710   3.478   5.976   0.951 -0.3787  0.2031 -0.0801
 9740TIP3    H150711   3.426   5.903   0.918 -0.2287 -0.6329  1.4434
 9740TIP3    H250712   3.515   6.017   0.873 -0.6970 -1.1804 -0.9787
 9741TIP3   OH250713   1.446   2.810  17.086 -0.2169 -0.4833  0.0941
 9741TIP3    H150714   1.413   2.862  17.013 -1.0498 -3.7558 -2.0532
 9741TIP3    H250715   1.537   2.838  17.096  0.1957 -0.4673 -2.8008
 9742TIP3   OH250716   3.686   5.860   5.875 -0.0003 -0.3541 -1.1758
 9742TIP3    H150717   3.718   5.788   5.821  0.9374  1.9487 -3.9444
 9742TIP3    H250718   3.764   5.910   5.898 -0.8100  0.9497 -1.1282
 9743TIP3   OH250719   1.749   3.741   0.500  0.2745 -0.1410  0.3546
 9743TIP3    H150720   1.709   3.654   0.501  1.4037 -0.6883 -0.3973
 9743TIP3    H250721   1.685   3.797   0.545 -1.4393 -0.9093 -1.0196
 9744TIP3   OH250722   0.774   1.590   4.355  0.2641  0.4854  0.3089
 9744TIP3    H150723   0.760   1.548   4.440 -0.2495 -1.5216 -0.6988
 9744TIP3    H250724   0.865   1.618   4.356  0.0428  1.2135  1.8097
 9745TIP3   OH250725   4.183   4.392   5.379 -0.9849  0.3539 -0.0958
 9745TIP3    H150726   4.090   4.372   5.375 -0.8879  0.0215 -0.6927
 9745TIP3    H250727   4.226   4.307   5.374 -0.6458  0.5131  0.0907
 9746TIP3   OH250728   1.939   0.993   5.859 -0.3284 -0.1820 -0.2213
 9746TIP3    H150729   1.854   1.038   5.860 -0.7133 -0.9026  0.4808
 9746TIP3    H250730   1.924   0.915   5.807 -0.2971 -0.6724  0.4939
 9747TIP3   OH250731   5.570   3.697   0.978 -0.0897  0.0243 -0.6595
 9747TIP3    H150732   5.643   3.758   0.973  0.3611 -0.4366 -0.0152
 9747TIP3    H250733   5.511   3.735   1.044 -1.9569  1.9235 -3.2506
 9748TIP3   OH250734   2.899   5.391  14.003 -0.0609 -0.7499  0.1853
 9748TIP3    H150735   2.994   5.398  14.007 -0.0538 -0.2691 -0.5946
 9748TIP3    H250736   2.877   5.320  14.064  0.8266 -1.1401  0.0621
 9749TIP3   OH250737   2.739   4.365   4.594 -0.1806 -0.8907 -0.2952
 9749TIP3    H150738   2.689   4.306   4.537 -0.4447  0.3234 -1.3624
 9749TIP3    H250739   2.822   4.378   4.548 -0.1063 -0.4708 -0.0483
 9750TIP3   OH250740   4.927   3.840   0.179 -0.0209 -0.6540 -0.1194
 9750TIP3    H150741   4.834   3.841   0.157 -0.6330  2.3481  1.9204
 9750TIP3    H250742   4.969   3.888   0.107 -0.4769  0.1995  0.1643
 9751TIP3   OH250743   6.178   3.773  13.838  0.8288 -0.3079 -0.0577
 9751TIP3    H150744   6.209   3.707  13.901  1.2125  0.9079  1.0666
 9751TIP3    H250745   6.083   3.773  13.848  0.8290 -0.6624 -0.0433
 9752TIP3   OH250746   0.860   4.279  10.809  0.4231  0.5077  0.1416
 9752TIP3    H150747   0.861   4.337  10.885 -1.4690  0.6901  0.0546
 9752TIP3    H250748   0.793   4.316  10.751  2.0650  0.6027 -1.8214
 9753TIP3   OH250749   6.772   3.765   0.363 -0.3438 -0.4816  0.1086
 9753TIP3    H150750   6.764   3.860   0.359 -1.7185 -0.5443  0.7151
 9753TIP3    H250751   6.776   3.745   0.457  1.1500 -0.9645 -0.0223
 9754TIP3   OH250752   1.463   0.615  10.815  0.2108  0.3259  0.1599
 9754TIP3    H150753   1.550   0.602  10.853  0.2285 -0.5256 -0.1478
 9754TIP3    H250754   1.455   0.709  10.804  0.5698  0.5202  1.4110
 9755TIP3   OH250755   1.520   6.787   2.282 -0.4860  0.2280  0.3477
 9755TIP3    H150756   1.472   6.813   2.361  0.9172 -2.1872  2.1779
 9755TIP3    H250757   1.596   6.845   2.280 -1.0014  0.9050  0.2362
 9756TIP3   OH250758   2.552   4.971  12.756  0.0848  0.1610 -0.1744
 9756TIP3    H150759   2.602   5.049  12.781 -1.8549  0.6435  2.5981
 9756TIP3    H250760   2.572   4.959  12.663  1.1811  3.4105 -0.4829
 9757TIP3   OH250761   1.973   1.866  16.660 -0.3781 -0.0558  0.3204
 9757TIP3    H150762   2.017   1.813  16.726 -1.1529 -0.3039  0.6383
 9757TIP3    H250763   1.919   1.804  16.611 -1.1397  0.4028  0.5672
 9758TIP3   OH250764   0.991   1.334  13.919  0.1236 -0.1389  0.3541
 9758TIP3    H150765   0.907   1.337  13.965 -0.2157  1.7381 -0.2602
 9758TIP3    H250766   1.051   1.293  13.980 -1.1633 -1.2019  0.9454
 9759TIP3   OH250767   3.712   4.645  12.497  0.5393 -0.4694  0.1889
 9759TIP3    H150768   3.672   4.717  12.447 -0.0633  0.1331  1.4911
 9759TIP3    H250769   3.795   4.629  12.453  0.6369  0.9586 -0.2040
 9760TIP3   OH250770   2.897   6.517  16.175 -0.3103 -0.3416  0.3515
 9760TIP3    H150771   2.874   6.540  16.084 -0.5063  0.6620  0.6360
 9760TIP3    H250772   2.825   6.462  16.205 -0.1812 -0.7875 -0.1356
 9761TIP3   OH250773   2.385   4.539  14.731 -0.1879 -0.7792  0.6613
 9761TIP3    H150774   2.353   4.529  14.641 -0.6803 -0.4003  0.7930
 9761TIP3    H250775   2.414   4.630  14.737  2.3994 -1.4659  0.0845
 9762TIP3   OH250776   4.500   1.889  11.635 -0.2299 -0.0472  0.1525
 9762TIP3    H150777   4.466   1.977  11.617  0.0755  0.6484  2.6667
 9762TIP3    H250778   4.595   1.900  11.633 -0.1357 -0.8300 -1.5730
 9763TIP3   OH250779   5.875   0.821  12.199  0.3901  0.1585  0.1815
 9763TIP3    H150780   5.895   0.822  12.293  0.5325  0.5612  0.1489
 9763TIP3    H250781   5.958   0.797  12.157  0.5675  0.8981  0.1034
 9764TIP3   OH250782   5.088   3.390   2.823 -0.0458 -0.6180 -0.1970
 9764TIP3    H150783   5.018   3.448   2.793  1.7005  0.9560 -1.4754
 9764TIP3    H250784   5.087   3.317   2.760 -0.2476 -0.3647 -0.4942
 9765TIP3   OH250785   2.141   2.509  13.594  0.2653  0.0937 -0.3738
 9765TIP3    H150786   2.205   2.577  13.613 -0.2094  0.5307 -0.3447
 9765TIP3    H250787   2.170   2.471  13.511 -0.1093  1.1001 -0.9783
 9766TIP3   OH250788   1.471   2.497  13.773  0.4978  0.9244 -0.5045
 9766TIP3    H150789   1.385   2.469  13.743 -0.2474  0.0194  2.1176
 9766TIP3    H250790   1.529   2.423  13.753 -0.0275  0.2486  0.3621
 9767TIP3   OH250791   3.013   2.671   4.454 -0.2032 -0.5309  1.1666
 9767TIP3    H150792   2.963   2.738   4.408 -1.0234 -2.3662 -0.7700
 9767TIP3    H250793   3.104   2.691   4.434 -0.3683  0.4988  1.3739
 9768TIP3   OH250794   0.872   3.328  16.947  0.1830  0.3718  0.4256
 9768TIP3    H150795   0.873   3.400  16.884  1.7647 -0.1083 -0.1414
 9768TIP3    H250796   0.801   3.271  16.917  1.0305  0.0497 -1.0834
 9769TIP3   OH250797   6.837   0.032   1.828 -0.1347 -0.0168  0.4396
 9769TIP3    H150798   6.848   0.121   1.794 -0.4545 -0.3273 -0.5135
 9769TIP3    H250799   6.887   0.031   1.909  0.5184  0.8111  0.0630
 9770TIP3   OH250800   0.729   5.536  14.520  0.1517 -0.6253  0.6254
 9770TIP3    H150801   0.797   5.539  14.588  1.5121  0.0602 -0.7110
 9770TIP3    H250802   0.717   5.628  14.495 -0.5583 -0.8416  0.1584
 9771TIP3   OH250803   3.959   2.052   3.072 -0.4049  0.2285 -0.0273
 9771TIP3    H150804   3.957   2.125   3.134  0.8882 -0.1653  0.5249
 9771TIP3    H250805   4.034   1.999   3.100 -1.3921 -1.4094 -0.3212
 9772TIP3   OH250806   6.535   2.746  11.616  0.2053  0.6030 -0.2646
 9772TIP3    H150807   6.502   2.656  11.614  0.4445  0.5090  0.0039
 9772TIP3    H250808   6.630   2.737  11.612  0.2463  0.8267  0.1646
 9773TIP3   OH250809   6.581   0.833  16.510 -0.0983  0.1021 -0.2944
 9773TIP3    H150810   6.674   0.852  16.519 -0.3664  1.5374 -0.2184
 9773TIP3    H250811   6.559   0.783  16.589  0.8581 -1.4119 -0.9575
 9774TIP3   OH250812   3.558   4.786   1.906  0.2121 -0.0526 -0.6649
 9774TIP3    H150813   3.640   4.805   1.951 -0.5302 -0.0820  0.7532
 9774TIP3    H250814   3.518   4.872   1.893  0.2541 -0.0744 -0.9428
 9775TIP3   OH250815   3.942   2.680  12.828 -0.8982 -0.4245 -0.3896
 9775TIP3    H150816   3.904   2.745  12.770 -0.9239 -1.5522 -1.6876
 9775TIP3    H250817   4.019   2.647  12.782 -1.8800 -2.5684 -0.6220
 9776TIP3   OH250818   5.534   2.444  15.101 -0.5961  0.1569  0.1635
 9776TIP3    H150819   5.561   2.391  15.025 -0.5028 -0.0218  0.3222
 9776TIP3    H250820   5.591   2.415  15.172 -0.8397  0.1605  0.3618
 9777TIP3   OH250821   5.803   5.721   4.049  0.4284  0.1598  0.3396
 9777TIP3    H150822   5.796   5.801   3.997  2.8490 -0.3655 -0.9707
 9777TIP3    H250823   5.871   5.741   4.113  1.2008 -0.8598 -0.1310
 9778TIP3   OH250824   5.868   1.027  11.803 -0.1863 -0.1369  0.3928
 9778TIP3    H150825   5.787   0.989  11.768 -0.0046 -0.0739 -0.1061
 9778TIP3    H250826   5.878   1.109  11.754 -0.8550  0.8317  1.8176
 9779TIP3   OH250827   4.870   5.350  14.807 -0.4063  0.1569 -0.0213
 9779TIP3    H150828   4.775   5.354  14.822 -0.2723 -0.2346  1.0098
 9779TIP3    H250829   4.899   5.440  14.816 -0.7095  0.3260 -0.6305
 9780TIP3   OH250830   0.901   6.010  13.683 -0.8254 -0.2568  0.0222
 9780TIP3    H150831   0.813   5.972  13.689 -0.5634 -1.1849 -1.3862
 9780TIP3    H250832   0.887   6.098  13.648 -1.2944  0.2563  1.4272
 9781TIP3   OH250833   5.679   2.573   6.785 -0.0139 -0.4343 -0.0310
 9781TIP3    H150834   5.769   2.547   6.806 -0.0065 -0.5885 -0.2532
 9781TIP3    H250835   5.687   2.631   6.709 -0.2027 -1.4751 -0.8676
 9782TIP3   OH250836   1.665   6.123   3.886  0.2076  0.1460  0.1137
 9782TIP3    H150837   1.718   6.193   3.847  0.6106 -0.0386  0.3249
 9782TIP3    H250838   1.584   6.124   3.836  1.0478 -0.6581 -1.3309
 9783TIP3   OH250839   1.084   2.701  14.220  0.3010 -0.1398 -0.0807
 9783TIP3    H150840   1.001   2.663  14.248  0.2661 -0.6818 -0.8613
 9783TIP3    H250841   1.102   2.658  14.136  0.4691  1.2724 -0.7966
 9784TIP3   OH250842   6.584   6.378  12.384  0.4508  1.0598  0.6868
 9784TIP3    H150843   6.575   6.312  12.452 -1.0183  1.9622  1.4357
 9784TIP3    H250844   6.677   6.382  12.365  1.0282  1.3699  3.2534
 9785TIP3   OH250845   1.335   5.000   4.335 -0.1753 -0.3696 -0.0388
 9785TIP3    H150846   1.312   4.940   4.264  1.6699 -1.7166  0.3934
 9785TIP3    H250847   1.383   5.071   4.292  0.3015 -0.8076 -0.2488
 9786TIP3   OH250848   2.091   4.043   2.748  0.6382 -0.1479  0.0510
 9786TIP3    H150849   2.139   3.993   2.682  2.4557  0.0172  1.1787
 9786TIP3    H250850   2.002   4.010   2.742  1.1463 -1.4279 -1.2360
 9787TIP3   OH250851   0.039   5.667  15.711 -0.2368 -0.0523 -0.4135
 9787TIP3    H150852   0.042   5.725  15.635 -2.5851  0.0340 -0.5244
 9787TIP3    H250853   0.022   5.725  15.785 -1.5371 -0.4698 -0.3680
 9788TIP3   OH250854   0.858   3.766   4.387 -0.2249  0.0694 -0.4577
 9788TIP3    H150855   0.884   3.858   4.397 -1.1645  0.4091 -0.9510
 9788TIP3    H250856   0.831   3.759   4.295 -2.4069 -0.0764  0.1283
 9789TIP3   OH250857   6.202   0.366   1.999 -0.6037  0.0476 -0.1689
 9789TIP3    H150858   6.107   0.362   2.016 -0.3975  1.2164  1.4950
 9789TIP3    H250859   6.212   0.329   1.912 -2.4804 -1.1205  0.0425
 9790TIP3   OH250860   3.955   5.095  14.332 -0.2489  0.3175 -0.4002
 9790TIP3    H150861   3.867   5.109  14.298  0.1267  0.9596 -1.1591
 9790TIP3    H250862   4.004   5.061  14.257  0.2956  0.5802 -0.1668
 9791TIP3   OH250863   1.346   3.848   4.345 -0.4318 -0.6613  0.3010
 9791TIP3    H150864   1.353   3.905   4.422  0.6167  0.3537 -0.5081
 9791TIP3    H250865   1.299   3.771   4.377 -0.9014  0.1610  1.7088
 9792TIP3   OH250866   1.816   0.026  12.526 -0.0683 -0.6323 -0.2917
 9792TIP3    H150867   1.725   0.009  12.503 -1.1034  3.0933  0.3168
 9792TIP3    H250868   1.820   0.011  12.621 -0.8224  1.4782  0.1391
 9793TIP3   OH250869   6.127   4.162  11.092  0.3317  0.1522 -0.0510
 9793TIP3    H150870   6.055   4.224  11.102  0.0804  0.2406 -2.0781
 9793TIP3    H250871   6.105   4.111  11.014  1.0942 -1.7462  0.9267
 9794TIP3   OH250872   4.935   2.392  16.338  0.4661 -0.0905 -1.3270
 9794TIP3    H150873   4.846   2.392  16.373  0.4365 -1.0743 -1.3813
 9794TIP3    H250874   4.926   2.353  16.251  0.8247  0.6284 -1.6949
 9795TIP3   OH250875   5.361   5.421  12.614 -0.0768  0.4125  0.0209
 9795TIP3    H150876   5.338   5.360  12.684  1.4709  2.1180  2.1250
 9795TIP3    H250877   5.436   5.380  12.570  0.1549  0.2253  0.5921
 9796TIP3   OH250878   1.015   5.744   2.075 -0.5561  0.2771  0.2171
 9796TIP3    H150879   0.967   5.771   2.153 -1.9482 -0.5707 -0.3089
 9796TIP3    H250880   1.049   5.825   2.038 -0.7801  0.7950  1.1214
 9797TIP3   OH250881   2.099   5.289  15.608  0.4854  0.1853 -0.7015
 9797TIP3    H150882   2.193   5.279  15.619  0.3527 -2.9131 -1.6315
 9797TIP3    H250883   2.089   5.331  15.522  1.0385 -1.9711 -1.8735
 9798TIP3   OH250884   2.026   4.988   5.367  0.2691 -0.1728  0.3795
 9798TIP3    H150885   1.969   4.962   5.440 -0.4262  0.8890  0.2455
 9798TIP3    H250886   2.014   5.083   5.361  1.9562  0.0528  0.2431
 9799TIP3   OH250887   3.506   0.962  14.347  0.6901  0.2043 -0.0123
 9799TIP3    H150888   3.549   1.006  14.421  2.3274 -1.0937 -0.1392
 9799TIP3    H250889   3.527   1.017  14.272  0.4272  0.6376  0.2246
 9800TIP3   OH250890   0.032   4.944  13.946  0.2452 -0.3179 -0.0033
 9800TIP3    H150891   0.015   4.865  13.895 -0.1321 -0.9636  1.0850
 9800TIP3    H250892  -0.023   5.011  13.905  0.7663 -0.5418 -1.0916
 9801TIP3   OH250893   3.893   3.574   3.836 -0.3018  0.0528 -0.2081
 9801TIP3    H150894   3.802   3.590   3.862 -0.2178 -0.8186  0.6860
 9801TIP3    H250895   3.945   3.599   3.913  0.9210  6.5774 -2.5469
 9802TIP3   OH250896   5.693   5.994  15.771 -0.3510  0.3505  0.0035
 9802TIP3    H150897   5.655   5.914  15.808  1.3865  0.2248  1.6926
 9802TIP3    H250898   5.772   5.965  15.726  0.5503  1.1018  1.0192
 9803TIP3   OH250899   2.434   4.287   1.169 -0.2184 -0.0393  0.4557
 9803TIP3    H150900   2.374   4.218   1.197  0.7072 -1.0755 -0.0226
 9803TIP3    H250901   2.503   4.241   1.122  1.8853  0.8706  2.4124
 9804TIP3   OH250902   0.828   4.257  15.552 -0.0500 -0.0212  0.2174
 9804TIP3    H150903   0.756   4.253  15.615  0.7412  0.6929  1.2113
 9804TIP3    H250904   0.843   4.350  15.539  0.8884 -0.1609  0.2581
 9805TIP3   OH250905   2.044   2.420  12.061 -0.2934  0.7197 -0.2087
 9805TIP3    H150906   2.135   2.392  12.053  0.6151  3.0284  1.0646
 9805TIP3    H250907   2.035   2.488  11.993 -1.3943 -0.1446 -0.9653
 9806TIP3   OH250908   2.694   0.801  12.924 -0.2570 -0.7480  0.6207
 9806TIP3    H150909   2.651   0.879  12.888  1.2310 -0.1261  0.1249
 9806TIP3    H250910   2.662   0.729  12.870  0.4942 -0.0821 -0.7739
 9807TIP3   OH250911   4.688   6.713   3.748  0.2759 -0.1159  0.1820
 9807TIP3    H150912   4.625   6.760   3.694 -2.4483 -1.5760  1.8565
 9807TIP3    H250913   4.718   6.641   3.693 -0.1192  0.1501 -0.3906
 9808TIP3   OH250914   1.563   1.676  16.574  0.0104 -0.3188  0.9716
 9808TIP3    H150915   1.644   1.703  16.531 -0.3098 -0.8148  0.0098
 9808TIP3    H250916   1.571   1.707  16.664  0.9921  0.1837  0.7213
 9809TIP3   OH250917   6.329   2.040   0.629 -0.1688  0.3047 -0.7813
 9809TIP3    H150918   6.295   2.108   0.687 -0.7889 -1.1783  0.6780
 9809TIP3    H250919   6.274   2.044   0.551 -0.5365  1.1189 -0.4806
 9810TIP3   OH250920   2.785   2.373  12.224 -0.3319 -0.7741  0.5254
 9810TIP3    H150921   2.798   2.465  12.246  0.7216 -1.1359  1.5255
 9810TIP3    H250922   2.710   2.373  12.164 -0.6533  0.6803  0.8846
 9811TIP3   OH250923   4.976   1.467  11.146  0.1315  0.4652 -0.0621
 9811TIP3    H150924   4.919   1.522  11.093 -0.4604  1.2501  1.3456
 9811TIP3    H250925   5.061   1.511  11.143  0.6183 -0.4640 -1.7847
 9812TIP3   OH250926   5.609   3.308  16.254  0.1281 -0.0191  0.1705
 9812TIP3    H150927   5.565   3.234  16.212  2.0353 -0.4419 -1.2252
 9812TIP3    H250928   5.597   3.293  16.348  0.6407 -2.2598 -0.0617
 9813TIP3   OH250929   2.827   2.648  13.528  0.2582  0.4443  0.0439
 9813TIP3    H150930   2.802   2.644  13.620 -1.6217  1.2700 -0.3731
 9813TIP3    H250931   2.754   2.694  13.486  0.6685 -0.6593 -1.9950
 9814TIP3   OH250932   4.511   0.390   0.863  0.4412 -0.7543 -0.2094
 9814TIP3    H150933   4.444   0.356   0.803 -0.6414  0.5770  0.1803
 9814TIP3    H250934   4.518   0.482   0.841  0.6627 -0.4295  1.1134
 9815TIP3   OH250935   2.698   1.804   5.509  0.0618  0.1817 -0.0408
 9815TIP3    H150936   2.689   1.752   5.428  0.1347 -0.3282  0.2756
 9815TIP3    H250937   2.755   1.877   5.484  0.0195  0.0736 -0.4722
 9816TIP3   OH250938   2.490   2.895  10.919 -0.2727 -0.3377  0.3428
 9816TIP3    H150939   2.468   2.980  10.881  0.7067  0.8183  2.2351
 9816TIP3    H250940   2.461   2.832  10.853  1.6336  1.5289 -2.5257
 9817TIP3   OH250941   3.722   3.645   3.190  0.4213  0.5252  0.0396
 9817TIP3    H150942   3.652   3.631   3.253  0.1747  0.3221 -0.2743
 9817TIP3    H250943   3.697   3.592   3.114  1.6302 -0.7165  0.4653
 9818TIP3   OH250944   5.378   0.449  12.724 -0.3534 -0.7638 -0.4291
 9818TIP3    H150945   5.451   0.428  12.782 -0.7277  0.7069  0.6332
 9818TIP3    H250946   5.408   0.422  12.637  0.9463 -1.3406  0.1722
 9819TIP3   OH250947   6.781   3.381  15.360 -0.0499 -0.0788  0.1634
 9819TIP3    H150948   6.789   3.396  15.454 -3.6638  0.3342  0.5411
 9819TIP3    H250949   6.687   3.370  15.345  0.4584 -0.8511 -3.3191
 9820TIP3   OH250950   3.479   4.430   4.225 -0.0818 -0.2785 -0.3233
 9820TIP3    H150951   3.411   4.372   4.190 -1.4982  1.3452 -0.4453
 9820TIP3    H250952   3.522   4.466   4.147  0.3258 -0.6316 -0.2639
 9821TIP3   OH250953   1.292   1.759  16.762  0.3685  0.0348 -0.0220
 9821TIP3    H150954   1.377   1.759  16.807  0.7866  0.4802 -0.7840
 9821TIP3    H250955   1.307   1.813  16.684  0.0558 -1.8428 -1.4352
 9822TIP3   OH250956   1.617   6.192   2.117  0.7077 -0.0060  0.3519
 9822TIP3    H150957   1.572   6.271   2.086  2.2681  0.9119  0.3077
 9822TIP3    H250958   1.655   6.218   2.201  0.3446 -1.0762  0.8735
 9823TIP3   OH250959   0.403   5.213   2.446 -0.0078  0.1036  0.7354
 9823TIP3    H150960   0.387   5.181   2.357 -2.6220 -1.1230  1.5434
 9823TIP3    H250961   0.491   5.181   2.468  0.4487 -0.0689 -1.1642
 9824TIP3   OH250962   4.821   5.412   1.910  0.6078  0.2581 -0.2006
 9824TIP3    H150963   4.893   5.454   1.957  0.6829 -1.6822  1.5516
 9824TIP3    H250964   4.845   5.320   1.906 -1.3957 -0.3224 -0.2632
 9825TIP3   OH250965   1.115   1.364  14.516 -0.0067  0.3781  0.2474
 9825TIP3    H150966   1.050   1.316  14.566 -0.2771 -0.6513 -1.0290
 9825TIP3    H250967   1.065   1.405  14.445  0.4868  1.0425  0.2777
 9826TIP3   OH250968   3.346   6.547  12.521  0.1237 -0.4648 -0.0443
 9826TIP3    H150969   3.374   6.518  12.608  0.9142 -0.1318 -0.1829
 9826TIP3    H250970   3.251   6.535  12.522  0.2267 -1.4004  0.5157
 9827TIP3   OH250971   4.496   5.158  12.489  0.0800 -0.7397  0.2048
 9827TIP3    H150972   4.564   5.145  12.555  0.4085  0.4154  0.1275
 9827TIP3    H250973   4.463   5.247  12.506  0.7178 -0.0964 -1.6458
 9828TIP3   OH250974   6.748   0.384   2.822  0.5444  0.0573 -0.3369
 9828TIP3    H150975   6.831   0.412   2.862  0.6744 -2.1038  1.0426
 9828TIP3    H250976   6.728   0.301   2.865  0.1627 -2.0111 -4.1482
 9829TIP3   OH250977   3.568   5.669   5.593 -0.4920  0.0531 -0.2483
 9829TIP3    H150978   3.658   5.673   5.628 -0.5137 -0.4621 -0.1290
 9829TIP3    H250979   3.513   5.661   5.671 -0.5271 -1.3471 -0.3963
 9830TIP3   OH250980   0.369   2.722  16.934  0.7409 -0.1759 -0.5162
 9830TIP3    H150981   0.362   2.691  16.844 -1.3715 -0.0555 -0.4597
 9830TIP3    H250982   0.312   2.799  16.937  1.0735  0.0481  0.8293
 9831TIP3   OH250983   0.930   5.445   1.458  0.6422 -0.1950 -0.3807
 9831TIP3    H150984   0.869   5.441   1.385  0.4183 -0.2965 -0.1918
 9831TIP3    H250985   1.016   5.428   1.420  0.3862 -1.4684 -0.4378
 9832TIP3   OH250986   0.454   5.521   1.623  0.3134 -0.3847  0.0765
 9832TIP3    H150987   0.547   5.518   1.646  0.4692  2.5056  0.2546
 9832TIP3    H250988   0.420   5.595   1.673 -1.5560  0.0492 -1.7101
 9833TIP3   OH250989   1.466   3.317   3.544  0.2256  0.4716  0.5499
 9833TIP3    H150990   1.441   3.242   3.598  0.5176  0.6388  0.9263
 9833TIP3    H250991   1.497   3.278   3.462 -1.2160  0.2576  0.0759
 9834TIP3   OH250992   3.193   3.947  14.495  0.3344  0.3645 -0.4682
 9834TIP3    H150993   3.273   3.915  14.452 -0.1907  0.6886 -1.7536
 9834TIP3    H250994   3.193   3.905  14.580 -0.1338 -2.8142 -1.9096
 9835TIP3   OH250995   0.049   0.258  13.362  0.2653  0.3073 -0.0295
 9835TIP3    H150996  -0.036   0.235  13.400 -0.9951  1.7247 -1.8229
 9835TIP3    H250997   0.075   0.337  13.410  1.4664 -1.0902  1.7111
 9836TIP3   OH250998   5.959   0.725   5.508 -0.6172  0.2989  0.5309
 9836TIP3    H150999   5.994   0.814   5.502 -0.7757  0.3975  1.0028
 9836TIP3    H251000   6.035   0.671   5.527 -0.4512  0.2722 -0.2073
 9837TIP3   OH251001   5.791   5.212   3.532 -0.5031  0.2158  0.0574
 9837TIP3    H151002   5.702   5.178   3.523 -0.3200 -0.3457  0.2984
 9837TIP3    H251003   5.831   5.156   3.599 -0.1876  0.9137  0.4674
 9838TIP3   OH251004   2.809   3.449   0.621 -0.1787 -0.1547  0.5785
 9838TIP3    H151005   2.903   3.441   0.608 -0.1159 -0.7987  1.3567
 9838TIP3    H251006   2.772   3.443   0.533  0.2683 -3.6813  0.4789
 9839TIP3   OH251007   4.707   5.386   2.282  0.3018 -1.0377  0.6957
 9839TIP3    H151008   4.729   5.477   2.303 -0.3924 -1.0408  1.5166
 9839TIP3    H251009   4.787   5.349   2.246  0.3310  0.1637 -0.5811
 9840TIP3   OH251010   4.305   2.764  16.088  0.1956 -0.3842  0.3356
 9840TIP3    H151011   4.341   2.681  16.120  0.9896  0.1433  0.8423
 9840TIP3    H251012   4.380   2.810  16.051 -0.3078 -0.0349 -0.2774
 9841TIP3   OH251013   5.465   6.169  14.452  0.4211 -0.4006 -0.7899
 9841TIP3    H151014   5.497   6.155  14.363  1.8597 -2.2296 -0.0599
 9841TIP3    H251015   5.393   6.108  14.462  1.1512 -1.2122 -0.3052
 9842TIP3   OH251016   3.597   1.692  16.765  0.4620  0.4042 -0.0106
 9842TIP3    H151017   3.540   1.749  16.818 -0.2924  0.2782 -0.6583
 9842TIP3    H251018   3.657   1.653  16.828  0.2710  1.0681  0.6015
 9843TIP3   OH251019   5.609   5.468   4.284 -0.1452 -0.2449 -0.1938
 9843TIP3    H151020   5.614   5.498   4.194  0.0347 -0.9961 -0.4374
 9843TIP3    H251021   5.521   5.492   4.313  0.7318  2.6235  0.3894
 9844TIP3   OH251022   2.079   0.124  16.007  0.2832 -0.0390  0.2726
 9844TIP3    H151023   2.164   0.086  15.984 -1.0123 -1.7239 -2.1390
 9844TIP3    H251024   2.040   0.147  15.922 -1.1674  1.9289  1.3924
 9845TIP3   OH251025   3.968   5.643  16.637 -0.5105 -0.5651  0.1550
 9845TIP3    H151026   3.988   5.629  16.730 -1.7393 -0.3497  0.4624
 9845TIP3    H251027   4.008   5.567  16.593  1.1355 -0.0537  0.6891
 9846TIP3   OH251028   3.961   1.148   0.228 -0.1874 -0.1040  0.3357
 9846TIP3    H151029   3.898   1.137   0.156  1.7951 -1.6939 -1.3055
 9846TIP3    H251030   3.956   1.065   0.277  0.2641 -0.0550  0.4733
 9847TIP3   OH251031   2.126   4.907   6.054 -0.0848  0.0126 -0.0919
 9847TIP3    H151032   2.194   4.882   6.117  0.0392 -1.5545 -0.8049
 9847TIP3    H251033   2.105   4.997   6.076  2.5250  0.6903 -0.1103
 9848TIP3   OH251034   5.339   4.778   5.367  0.2302 -0.1855 -0.0520
 9848TIP3    H151035   5.418   4.726   5.350 -0.4112 -1.4000  0.5601
 9848TIP3    H251036   5.372   4.867   5.377  1.0948  0.0196 -3.5249
 9849TIP3   OH251037   2.688   2.676   0.725  0.2681  0.1792 -0.3255
 9849TIP3    H151038   2.594   2.661   0.710  0.4220  0.0467 -1.2306
 9849TIP3    H251039   2.692   2.756   0.776 -0.4861 -1.5344  2.6622
 9850TIP3   OH251040   3.718   4.198  14.690 -0.0623  0.2373  0.0255
 9850TIP3    H151041   3.745   4.240  14.608  0.9357 -0.0302  0.2036
 9850TIP3    H251042   3.745   4.259  14.758 -0.1434  0.0812  0.1981
 9851TIP3   OH251043   6.309   5.084  14.674 -0.1248 -0.4216  0.5134
 9851TIP3    H151044   6.310   5.000  14.720  0.4877  0.0786  1.4274
 9851TIP3    H251045   6.396   5.090  14.634 -0.5241 -0.6836 -0.4373
 9852TIP3   OH251046   2.104   6.102   2.669 -0.0155 -0.4201 -0.2886
 9852TIP3    H151047   2.182   6.048   2.681  0.6349  0.4512 -0.5312
 9852TIP3    H251048   2.092   6.106   2.574  0.0050 -0.0467 -0.2766
 9853TIP3   OH251049   3.974   0.469   4.611  0.1448 -0.2750  1.1756
 9853TIP3    H151050   3.878   0.470   4.616 -0.1538 -0.7983 -2.3298
 9853TIP3    H251051   3.995   0.534   4.545  2.1297 -0.9646  1.0728
 9854TIP3   OH251052   1.626   3.313   6.327 -0.6445 -0.5999 -0.2886
 9854TIP3    H151053   1.648   3.228   6.364  0.4628 -1.3467 -2.5226
 9854TIP3    H251054   1.701   3.369   6.350 -0.3214 -0.8499 -0.7182
 9855TIP3   OH251055   5.864   4.365  16.807 -0.0274 -0.1821 -0.0778
 9855TIP3    H151056   5.904   4.448  16.831 -0.1182 -0.1161 -0.1541
 9855TIP3    H251057   5.893   4.349  16.717 -0.7045  0.1891 -0.3664
 9856TIP3   OH251058   3.272   6.786  14.569  0.3959  0.3990 -0.2460
 9856TIP3    H151059   3.301   6.696  14.554 -0.3094 -0.1123  1.2508
 9856TIP3    H251060   3.291   6.803  14.662  2.0957  2.4201 -0.8751
 9857TIP3   OH251061   2.853   0.387   0.267 -0.2886 -0.1635 -0.2365
 9857TIP3    H151062   2.947   0.383   0.250 -0.6226 -1.3180 -2.1437
 9857TIP3    H251063   2.838   0.325   0.339  0.4836  0.6257  0.6285
 9858TIP3   OH251064   2.364   4.772  10.140  0.0358  0.5898 -0.1080
 9858TIP3    H151065   2.315   4.698  10.175 -0.3451  0.3145 -1.1727
 9858TIP3    H251066   2.395   4.819  10.217 -0.9703  0.1552  0.5839
 9859TIP3   OH251067   5.592   6.723  12.039 -0.3716  0.8047 -0.6488
 9859TIP3    H151068   5.643   6.797  12.005  1.6639  0.1617  0.7907
 9859TIP3    H251069   5.538   6.760  12.108  0.5241  1.0193 -0.0434
 9860TIP3   OH251070   1.741   5.997  14.746 -0.0710  0.3077 -0.2306
 9860TIP3    H151071   1.689   6.066  14.788  0.4832  0.1829  0.6767
 9860TIP3    H251072   1.766   5.939  14.818  0.3405 -0.2783 -0.8388
 9861TIP3   OH251073   3.429   2.039   1.478  0.2402 -0.1073  0.3118
 9861TIP3    H151074   3.371   2.008   1.408  0.9428 -1.1373  0.1614
 9861TIP3    H251075   3.508   1.986   1.469  0.9139  0.7541  0.9904
 9862TIP3   OH251076   5.513   6.265   4.224 -0.2663 -0.3748  0.1419
 9862TIP3    H151077   5.571   6.301   4.157 -0.5006  1.1411  0.7138
 9862TIP3    H251078   5.444   6.220   4.175  1.7816 -3.0379 -0.5619
 9863TIP3   OH251079   5.439   0.737  15.773  0.1351  0.0885 -0.2363
 9863TIP3    H151080   5.352   0.774  15.785 -0.1680 -0.5932 -0.2532
 9863TIP3    H251081   5.461   0.701  15.859  0.1447 -0.2650 -0.3850
 9864TIP3   OH251082   5.897   5.675   1.385  0.3866 -0.0896  0.0933
 9864TIP3    H151083   5.868   5.741   1.447  0.4062 -0.3500  0.3774
 9864TIP3    H251084   5.983   5.648   1.417  0.4275 -0.1766 -0.0854
 9865TIP3   OH251085   3.233   0.695  15.896  0.6261  0.3349 -0.0228
 9865TIP3    H151086   3.298   0.741  15.843  1.4034 -0.4594  0.2138
 9865TIP3    H251087   3.171   0.659  15.832  0.2086  1.3950 -0.2285
 9866TIP3   OH251088   5.334   0.026  15.810  0.3848  0.0526 -0.5556
 9866TIP3    H151089   5.292   0.067  15.885 -1.0418 -2.4575  0.1497
 9866TIP3    H251090   5.421   0.000  15.841  0.6802  1.0572 -0.5227
 9867TIP3   OH251091   3.557   5.508   0.820 -0.2397  0.3249 -0.0666
 9867TIP3    H151092   3.547   5.473   0.909 -0.1098 -0.2741 -0.2882
 9867TIP3    H251093   3.568   5.431   0.764 -1.2492  0.6565 -0.7346
 9868TIP3   OH251094   3.076   2.197  11.662 -0.1833 -0.1036 -0.3157
 9868TIP3    H151095   3.139   2.180  11.591  1.0203 -0.3580  0.7653
 9868TIP3    H251096   3.090   2.125  11.724 -0.7514  0.4536  0.4827
 9869TIP3   OH251097   6.551   4.125  14.675 -0.0149  0.4202 -0.0125
 9869TIP3    H151098   6.506   4.120  14.590  0.2235 -1.9886 -0.0518
 9869TIP3    H251099   6.642   4.105  14.654 -0.1295 -1.1940  0.9129
 9870TIP3   OH251100   0.476   2.144  12.152  0.3925 -0.2954  0.3177
 9870TIP3    H151101   0.463   2.236  12.175 -3.4127  0.5408 -3.8771
 9870TIP3    H251102   0.534   2.146  12.076 -0.0974 -1.2998 -0.1039
 9871TIP3   OH251103   5.744   6.463  14.864 -0.1993  0.2085  0.1459
 9871TIP3    H151104   5.681   6.451  14.793  0.0077  1.4067 -0.2736
 9871TIP3    H251105   5.829   6.449  14.823 -0.1459 -0.7359  0.5548
 9872TIP3   OH251106   2.933   1.930  10.958  0.0936 -0.4518  0.3970
 9872TIP3    H151107   3.001   1.895  10.901 -0.6888  0.8910 -1.4982
 9872TIP3    H251108   2.890   1.854  10.996  0.9998 -1.3831 -0.4096
 9873TIP3   OH251109   0.001   0.638  15.416 -0.3154 -0.4221  0.1840
 9873TIP3    H151110   0.027   0.576  15.348  0.7726  0.4901 -0.2633
 9873TIP3    H251111  -0.061   0.697  15.372 -1.5305 -1.2879  0.6701
 9874TIP3   OH251112   3.086   4.737  13.370 -0.6390 -0.5926  0.0026
 9874TIP3    H151113   3.098   4.794  13.295  0.6585  1.4945  1.6735
 9874TIP3    H251114   3.175   4.712  13.396 -0.8812  0.3362  1.9417
 9875TIP3   OH251115   0.854   3.870  11.702  0.4038  0.0533  0.3752
 9875TIP3    H151116   0.836   3.779  11.679 -3.6969  0.5181  0.9685
 9875TIP3    H251117   0.813   3.882  11.788 -0.1297  2.6661 -0.1487
 9876TIP3   OH251118   2.063   4.373  13.449 -0.3107  0.5207  0.6342
 9876TIP3    H151119   2.154   4.391  13.423 -0.2213  1.5507  1.5706
 9876TIP3    H251120   2.017   4.455  13.432 -1.1609 -0.1077 -0.1669
 9877TIP3   OH251121   5.805   6.463  13.090 -0.5193 -0.5580  0.1875
 9877TIP3    H151122   5.749   6.449  13.014 -1.4807 -3.4682  1.2843
 9877TIP3    H251123   5.752   6.518  13.148 -0.7089 -0.2185 -0.3000
 9878TIP3   OH251124   6.114   6.593   1.098 -0.1426 -0.3442  0.7047
 9878TIP3    H151125   6.139   6.520   1.155  0.5961 -0.9340 -0.3593
 9878TIP3    H251126   6.139   6.671   1.148  0.2220 -0.8426  1.3141
 9879TIP3   OH251127   6.014   1.241  13.435  0.0013 -0.1117  0.2524
 9879TIP3    H151128   6.061   1.312  13.391  0.1056  0.6465  1.5312
 9879TIP3    H251129   6.079   1.202  13.493 -0.8761  0.9415  2.0331
 9880TIP3   OH251130   0.810   1.362   2.082 -0.5322  0.4350  0.2509
 9880TIP3    H151131   0.741   1.398   2.026 -1.8658 -0.7104  1.0913
 9880TIP3    H251132   0.798   1.406   2.166 -0.0971  0.3849  0.3397
 9881TIP3   OH251133   6.309   0.343  15.232 -0.2899 -0.1125 -0.3278
 9881TIP3    H151134   6.232   0.384  15.194 -0.6971  0.1621  0.7438
 9881TIP3    H251135   6.376   0.411  15.231  0.2768 -0.6431 -2.1606
 9882TIP3   OH251136   2.148   1.478   2.851 -0.5942 -0.1740 -0.0727
 9882TIP3    H151137   2.180   1.409   2.910  0.0309  1.9255  2.2362
 9882TIP3    H251138   2.208   1.475   2.777  1.1086 -0.3968  1.2498
 9883TIP3   OH251139   2.422   5.041  14.989 -0.0504  0.0756 -0.1611
 9883TIP3    H151140   2.457   5.130  14.977 -2.7799  1.4347  0.9915
 9883TIP3    H251141   2.336   5.044  14.948  0.5014 -2.6735 -1.7040
 9884TIP3   OH251142   3.828   3.790  16.809  0.0521 -0.2670  0.0786
 9884TIP3    H151143   3.750   3.749  16.846  0.5837 -0.3613  1.1647
 9884TIP3    H251144   3.881   3.717  16.777 -0.1552 -0.2263 -0.3648
 9885TIP3   OH251145   2.816   4.398   1.601  0.5384 -0.2376  0.4247
 9885TIP3    H151146   2.883   4.450   1.555 -0.6716  0.4009 -0.6842
 9885TIP3    H251147   2.806   4.442   1.685  1.3582 -0.2179  0.5235
 9886TIP3   OH251148   1.358   0.302  14.818 -0.2991  0.4699 -0.4360
 9886TIP3    H151149   1.431   0.352  14.780 -0.4017 -1.1630 -3.0441
 9886TIP3    H251150   1.285   0.363  14.818  0.4692  1.4159 -0.0485
 9887TIP3   OH251151   4.407   2.713   6.148 -0.4523 -0.4522  0.3820
 9887TIP3    H151152   4.338   2.658   6.112 -0.8337  1.6992 -2.6146
 9887TIP3    H251153   4.455   2.745   6.071  0.4172  2.4282  1.9420
 9888TIP3   OH251154   5.072   3.151   3.228  0.2110 -0.5405  0.0664
 9888TIP3    H151155   5.141   3.150   3.294  1.0682 -1.6486 -0.8156
 9888TIP3    H251156   5.102   3.215   3.163 -0.6394  0.5612  0.7082
 9889TIP3   OH251157   3.050   5.246  15.255 -1.0333 -0.0706 -0.3058
 9889TIP3    H151158   3.048   5.182  15.326 -0.1435  2.4997  2.2141
 9889TIP3    H251159   2.973   5.301  15.271  0.8044  2.3722  0.5937
 9890TIP3   OH251160   5.083   3.346   6.033 -0.9612  0.6738  0.3883
 9890TIP3    H151161   5.150   3.414   6.026 -1.8099  1.6750  1.4508
 9890TIP3    H251162   5.012   3.377   5.976 -0.6757 -0.2223 -0.4878
 9891TIP3   OH251163   2.009   2.126   0.223  0.0676 -0.3987  0.4603
 9891TIP3    H151164   2.033   2.217   0.240  1.0217 -0.5550  0.0353
 9891TIP3    H251165   2.087   2.087   0.183 -0.9718 -0.8703 -1.2544
 9892TIP3   OH251166   6.665   3.574  14.367 -0.4851  0.5624  0.1722
 9892TIP3    H151167   6.629   3.654  14.406 -1.5603 -0.1267  0.6310
 9892TIP3    H251168   6.590   3.515  14.360  0.0318  0.0513 -1.3705
 9893TIP3   OH251169   1.297   2.873   3.590 -0.1395 -0.2953  0.0787
 9893TIP3    H151170   1.337   2.806   3.645 -1.5670 -1.0061  0.3009
 9893TIP3    H251171   1.242   2.824   3.529 -0.6170  0.6324 -0.2551
 9894TIP3   OH251172   6.330   6.403   5.892 -0.3632 -0.2808  0.4142
 9894TIP3    H151173   6.339   6.406   5.987 -0.2447 -0.9325  0.4308
 9894TIP3    H251174   6.392   6.336   5.864 -1.3396 -1.0554  0.0138
 9895TIP3   OH251175   2.986   1.425   0.539 -0.4440  0.1323 -0.2055
 9895TIP3    H151176   2.980   1.389   0.628  2.8887 -0.5986 -0.1443
 9895TIP3    H251177   2.999   1.519   0.551  2.5608 -0.2769  0.3101
 9896TIP3   OH251178   3.793   0.344   3.584  0.1418 -0.1421 -0.9315
 9896TIP3    H151179   3.749   0.269   3.543  0.8881  0.0899 -2.1912
 9896TIP3    H251180   3.860   0.370   3.521 -0.5229  2.0117 -0.8203
 9897TIP3   OH251181   0.338   0.091   2.085 -0.0289  0.5778  0.0646
 9897TIP3    H151182   0.406   0.128   2.142  0.2026  0.6829 -0.2755
 9897TIP3    H251183   0.379   0.088   1.999  0.4185 -1.6234  0.2905
 9898TIP3   OH251184   6.113   6.070  13.197  0.4009 -0.1055  0.3398
 9898TIP3    H151185   6.107   6.163  13.177  0.1099 -0.0297  0.7742
 9898TIP3    H251186   6.122   6.028  13.112  3.5810  0.5341  0.2368
 9899TIP3   OH251187   3.864   5.582  15.548 -0.1573 -0.3654  0.2159
 9899TIP3    H151188   3.928   5.615  15.612 -1.0916  0.9292  0.5146
 9899TIP3    H251189   3.828   5.503  15.589  1.2070 -1.0971  0.0574
 9900TIP3   OH251190   1.748   1.936   4.898  0.0291  0.1592 -0.2723
 9900TIP3    H151191   1.749   2.030   4.918 -0.4148  0.2383 -0.6263
 9900TIP3    H251192   1.838   1.917   4.870  0.4328  0.2288  0.9331
 9901TIP3   OH251193   4.917   5.107   3.417  0.0074  0.1249  0.1353
 9901TIP3    H151194   4.902   5.015   3.394  0.2341 -0.3524  1.7442
 9901TIP3    H251195   5.011   5.111   3.439 -0.4780  0.0837  2.5705
 9902TIP3   OH251196   1.589   2.983  13.701 -0.8588 -0.2579 -0.4347
 9902TIP3    H151197   1.585   2.893  13.735  0.0322  0.0366  0.4979
 9902TIP3    H251198   1.585   3.038  13.779  1.7275  0.4350 -0.7206
 9903TIP3   OH251199   2.903   2.229  11.164  0.9735  0.4775 -0.2274
 9903TIP3    H151200   2.815   2.244  11.128  0.7893  1.6503  0.6263
 9903TIP3    H251201   2.960   2.226  11.088  0.5220  2.3758 -0.7100
 9904TIP3   OH251202   1.037   0.377   1.980 -0.1555 -0.3353 -0.6115
 9904TIP3    H151203   1.070   0.456   2.024  1.6775 -1.1140 -0.4996
 9904TIP3    H251204   1.015   0.406   1.891  0.3709  0.3406 -0.5279
 9905TIP3   OH251205   2.307   3.390   0.993  0.2059  0.1386 -0.2218
 9905TIP3    H151206   2.331   3.439   0.914 -0.1889  1.3995  0.4102
 9905TIP3    H251207   2.341   3.443   1.065  1.4415 -1.4889  0.4585
 9906TIP3   OH251208   1.147   2.977  11.850 -0.1710 -0.6893  0.5025
 9906TIP3    H151209   1.194   2.894  11.852 -1.7270 -1.6469 -0.4313
 9906TIP3    H251210   1.055   2.952  11.848 -0.6873  1.0757  0.4128
 9907TIP3   OH251211   1.195   6.455  16.331 -0.1770 -0.3242  0.0685
 9907TIP3    H151212   1.166   6.447  16.240  0.7893  0.0448 -0.2930
 9907TIP3    H251213   1.132   6.404  16.382 -2.3565  1.6820 -0.4576
 9908TIP3   OH251214   4.949   3.170   3.920 -0.0325  0.0249  0.2428
 9908TIP3    H151215   4.870   3.187   3.971  0.3306 -0.8988  1.1390
 9908TIP3    H251216   4.917   3.131   3.838 -0.6368  1.7871 -0.4187
 9909TIP3   OH251217   4.027   3.871   6.354  0.3351  0.0165 -0.6923
 9909TIP3    H151218   3.966   3.848   6.424  0.1359 -0.6653 -1.0830
 9909TIP3    H251219   4.094   3.924   6.397  0.8275 -1.3275  0.2556
 9910TIP3   OH251220   6.428   6.660   2.736 -1.0784 -0.2343 -0.6702
 9910TIP3    H151221   6.388   6.729   2.789 -1.8908 -1.8939  0.9832
 9910TIP3    H251222   6.416   6.580   2.788 -0.1209 -1.6179 -2.4845
 9911TIP3   OH251223   6.518   4.133   2.649 -0.3355  0.9939 -0.1052
 9911TIP3    H151224   6.587   4.150   2.584 -2.1713  3.3196 -1.6449
 9911TIP3    H251225   6.499   4.219   2.687 -1.4583  0.1913  1.2374
 9912TIP3   OH251226   1.246   2.542   0.959 -0.6160 -0.9394 -0.4850
 9912TIP3    H151227   1.322   2.553   0.902 -0.5051  0.4579 -0.0828
 9912TIP3    H251228   1.171   2.555   0.901 -0.5152  2.6356 -0.0186
 9913TIP3   OH251229   5.778   2.494   4.918 -0.5776 -0.0439 -0.9402
 9913TIP3    H151230   5.825   2.506   4.836 -0.6117  0.6124 -0.8696
 9913TIP3    H251231   5.847   2.487   4.984 -0.5412 -0.9234 -1.0628
 9914TIP3   OH251232   2.812   2.317  13.605 -0.0570  0.2184  0.2024
 9914TIP3    H151233   2.836   2.347  13.693 -2.4883  0.6775  0.7985
 9914TIP3    H251234   2.801   2.398  13.555  2.3944 -0.0642 -0.9150
 9915TIP3   OH251235   3.569   4.254  13.159  0.1048 -0.0972 -0.0434
 9915TIP3    H151236   3.496   4.252  13.221  1.4345  0.8519  1.6358
 9915TIP3    H251237   3.527   4.258  13.073 -1.8158 -2.1028  0.7105
 9916TIP3   OH251238   5.371   6.010   0.421 -0.6576  0.2416 -0.0449
 9916TIP3    H151239   5.350   5.922   0.391 -1.6813  1.0420 -1.9105
 9916TIP3    H251240   5.287   6.048   0.448 -0.6669  1.3905 -1.5314
 9917TIP3   OH251241   0.433   6.810   0.747 -0.1112  0.2200 -0.1842
 9917TIP3    H151242   0.498   6.871   0.713 -0.5214  0.3967 -0.6549
 9917TIP3    H251243   0.399   6.852   0.826 -0.6835  0.7961 -0.7269
 9918TIP3   OH251244   5.863   1.976  14.378  0.3783  0.1280 -0.5457
 9918TIP3    H151245   5.947   2.023  14.376  3.0324 -3.9176  1.6131
 9918TIP3    H251246   5.867   1.920  14.301  0.2152 -0.8863  0.1758
 9919TIP3   OH251247   3.290   4.451   4.699 -0.1591  0.5492  0.0769
 9919TIP3    H151248   3.277   4.530   4.646 -0.3353  1.3035  1.1944
 9919TIP3    H251249   3.206   4.438   4.743 -0.2795 -0.5516 -0.4438
 9920TIP3   OH251250   0.974   4.411   4.419 -0.3142  0.0346  0.0366
 9920TIP3    H151251   0.995   4.448   4.333 -3.0630  0.2850 -0.6036
 9920TIP3    H251252   1.038   4.341   4.431  1.4146  1.2975 -1.2701
 9921TIP3   OH251253   6.459   0.243  14.900 -0.1990 -0.0782  0.3720
 9921TIP3    H151254   6.538   0.199  14.867  0.1503  0.5852  0.3142
 9921TIP3    H251255   6.404   0.171  14.933  0.3285 -0.5659  0.2094
 9922TIP3   OH251256   6.199   6.385   3.238 -0.3673  0.7919  0.4253
 9922TIP3    H151257   6.210   6.299   3.278 -1.5818 -0.4050 -1.6437
 9922TIP3    H251258   6.262   6.441   3.284  0.4064 -1.1634  1.8768
 9923TIP3   OH251259   3.475   3.105  12.578  0.3625  0.3055 -0.1646
 9923TIP3    H151260   3.456   3.014  12.599  3.4169 -0.1509  1.1897
 9923TIP3    H251261   3.493   3.105  12.484 -2.1874  0.1014 -0.7195
 9924TIP3   OH251262   4.410   3.678  11.829  0.0803 -0.2390  0.1435
 9924TIP3    H151263   4.403   3.638  11.916  0.0886 -0.7026 -0.0640
 9924TIP3    H251264   4.484   3.739  11.837 -0.4530  0.3482  0.6939
 9925TIP3   OH251265   5.822   4.096   1.030 -0.2937 -0.0094  0.2344
 9925TIP3    H151266   5.913   4.100   1.002 -0.5704 -1.0870 -0.9051
 9925TIP3    H251267   5.783   4.177   0.997  0.0075 -0.0529 -0.2426
 9926TIP3   OH251268   4.620   5.605   3.892 -0.5724  0.2836  0.3551
 9926TIP3    H151269   4.628   5.526   3.947  2.1575  2.5078  3.5935
 9926TIP3    H251270   4.538   5.645   3.919  0.0691  0.6179  1.9391
 9927TIP3   OH251271   3.128   0.198   3.209 -0.2704  0.0542  0.0142
 9927TIP3    H151272   3.160   0.162   3.292  1.7633  1.7538  0.0577
 9927TIP3    H251273   3.201   0.187   3.148 -0.0885  2.5718 -0.3537
 9928TIP3   OH251274   4.275   1.380  16.502 -0.0949 -0.4843 -0.2941
 9928TIP3    H151275   4.343   1.396  16.436 -1.5015 -3.0163 -2.5909
 9928TIP3    H251276   4.196   1.418  16.464 -0.4923  0.1771  1.1414
 9929TIP3   OH251277   2.240   5.374  16.910  0.3301 -0.8701  0.3616
 9929TIP3    H151278   2.243   5.418  16.995  0.5344 -0.6889  0.2632
 9929TIP3    H251279   2.225   5.444  16.847  0.4346 -0.9695  0.2243
 9930TIP3   OH251280   6.450   0.435  16.582 -1.2451 -0.4020  0.4702
 9930TIP3    H151281   6.386   0.501  16.609 -1.3893 -0.9508  1.5240
 9930TIP3    H251282   6.399   0.354  16.578 -0.9108 -0.5895 -0.1173
 9931TIP3   OH251283   3.214   1.020  16.294  0.3185 -0.5372 -0.1102
 9931TIP3    H151284   3.276   1.064  16.353  2.0316 -1.7033 -0.9491
 9931TIP3    H251285   3.195   1.085  16.226 -0.1551  0.1604  0.6759
 9932TIP3   OH251286   3.765   6.311   4.751 -0.2019 -0.4151  0.2829
 9932TIP3    H151287   3.827   6.344   4.816 -0.5628  0.6371  0.1023
 9932TIP3    H251288   3.785   6.360   4.672  0.6386 -2.1017 -0.6075
 9933TIP3   OH251289   1.904   0.904  11.196  0.3346 -0.3964  0.2915
 9933TIP3    H151290   1.877   0.868  11.112  2.0549 -2.1161  0.3990
 9933TIP3    H251291   1.996   0.929  11.184  0.4938 -0.2834  1.5413
 9934TIP3   OH251292   6.550   1.120   4.766 -0.2120 -0.5582 -0.3958
 9934TIP3    H151293   6.486   1.191   4.762  1.8700  1.4716  0.0020
 9934TIP3    H251294   6.584   1.114   4.677  0.7205  0.0960 -0.1065
 9935TIP3   OH251295   4.073   0.154  13.295 -0.4987  0.0416 -0.5560
 9935TIP3    H151296   4.055   0.220  13.362  1.2853  0.3834 -0.3810
 9935TIP3    H251297   4.106   0.204  13.220 -1.9535 -0.3893 -1.5361
 9936TIP3   OH251298   1.653   3.882  15.837  0.0604 -0.1618  0.1255
 9936TIP3    H151299   1.591   3.814  15.811  0.7854 -0.7657 -0.0395
 9936TIP3    H251300   1.712   3.891  15.763  1.0135 -0.5781  0.8122
 9937TIP3   OH251301   5.392   2.904  14.960  0.3307  0.0190 -0.1690
 9937TIP3    H151302   5.380   2.822  15.007  0.4105  0.1327  0.0544
 9937TIP3    H251303   5.479   2.898  14.922  0.3693  0.0334 -0.0832
 9938TIP3   OH251304   5.721   5.791  14.632  0.1359 -0.2470  0.1585
 9938TIP3    H151305   5.646   5.831  14.588 -0.2798 -1.4404 -0.2921
 9938TIP3    H251306   5.735   5.709  14.583  1.8700  0.0549  0.1027
 9939TIP3   OH251307   1.202   4.841  11.207  0.4390 -0.1513  0.1324
 9939TIP3    H151308   1.221   4.862  11.115  0.9523  0.7213  0.4245
 9939TIP3    H251309   1.115   4.876  11.222 -0.4845 -2.0182 -0.5387
 9940TIP3   OH251310   4.112   6.749  16.215  0.0542 -0.3430  0.3151
 9940TIP3    H151311   4.056   6.672  16.219  2.0496 -2.1863 -2.9851
 9940TIP3    H251312   4.063   6.811  16.161 -0.5224 -0.2023  0.9753
 9941TIP3   OH251313   2.430   5.888   1.922  0.1466 -0.1100  0.0526
 9941TIP3    H151314   2.439   5.874   1.828 -0.0012  1.0812 -0.1590
 9941TIP3    H251315   2.511   5.853   1.959 -0.2501 -1.5648 -0.3795
 9942TIP3   OH251316   5.855   5.787  13.552  0.3933  0.6279 -0.2985
 9942TIP3    H151317   5.930   5.828  13.596 -0.0036  1.0801 -0.0384
 9942TIP3    H251318   5.840   5.705  13.600  0.4345  0.7575 -0.0672
 9943TIP3   OH251319   5.481   2.215  12.291  0.3168 -0.3147 -0.0705
 9943TIP3    H151320   5.513   2.130  12.262  0.8529 -0.7015  1.5279
 9943TIP3    H251321   5.386   2.211  12.277  0.0519 -1.9690  1.7311
 9944TIP3   OH251322   6.127   5.091   6.222  0.2058 -0.2756 -0.0910
 9944TIP3    H151323   6.217   5.125   6.227  0.4273 -0.8959  0.2241
 9944TIP3    H251324   6.138   4.996   6.212 -0.4068 -0.2744 -0.8305
 9945TIP3   OH251325   6.422   4.885  16.042  0.2973 -0.0147 -0.0645
 9945TIP3    H151326   6.364   4.810  16.023  1.9729 -1.0726 -1.2073
 9945TIP3    H251327   6.442   4.875  16.135 -0.4664 -0.2684  0.0832
 9946TIP3   OH251328   4.901   1.058  16.392  0.5061  0.0938  0.2351
 9946TIP3    H151329   4.884   0.970  16.426  1.4194  0.2322  1.0843
 9946TIP3    H251330   4.839   1.114  16.439  0.0070 -0.0563 -0.2211
 9947TIP3   OH251331   6.002   0.397   3.048  0.1186  0.2214 -0.4198
 9947TIP3    H151332   5.945   0.458   3.095 -1.1448 -1.0494 -0.2153
 9947TIP3    H251333   6.090   0.419   3.078 -0.3094  1.7884 -0.2004
 9948TIP3   OH251334   4.673   1.412   0.435  0.3438  0.0715 -0.7719
 9948TIP3    H151335   4.578   1.402   0.434  0.1445  1.5755 -3.1040
 9948TIP3    H251336   4.705   1.331   0.476 -1.8971 -0.4972 -0.0075
 9949TIP3   OH251337   5.644   0.058   3.681  0.0981 -0.3047  0.0606
 9949TIP3    H151338   5.573   0.101   3.730  1.2819 -2.9403  4.7767
 9949TIP3    H251339   5.720   0.113   3.697  0.1862 -0.3589 -0.1799
 9950TIP3   OH251340   2.609   6.412   0.915  0.0226 -0.2562 -0.2583
 9950TIP3    H151341   2.664   6.364   0.978 -0.4024  0.0503  0.3526
 9950TIP3    H251342   2.671   6.459   0.860  0.4309 -1.0954 -0.5391
 9951TIP3   OH251343   5.836   4.953   4.603  0.3502 -0.2779 -0.7509
 9951TIP3    H151344   5.897   4.880   4.618  0.4086  0.0833  0.9998
 9951TIP3    H251345   5.893   5.029   4.590  0.2864 -0.0967  0.0024
 9952TIP3   OH251346   4.274   1.423   2.580 -0.1861 -0.4005 -0.3580
 9952TIP3    H151347   4.313   1.429   2.667 -0.2247 -1.2906 -0.2687
 9952TIP3    H251348   4.180   1.422   2.596 -0.1844 -1.2180 -0.3511
 9953TIP3   OH251349   5.420   2.480   2.524 -0.6161  0.1586 -0.1131
 9953TIP3    H151350   5.358   2.436   2.582  0.5434 -2.0505 -0.4197
 9953TIP3    H251351   5.368   2.505   2.448 -1.4322 -0.2156  0.3075
 9954TIP3   OH251352   1.272   3.265  12.365 -0.5297  0.0899  0.2249
 9954TIP3    H151353   1.277   3.273  12.269 -3.3049 -0.3411 -0.0477
 9954TIP3    H251354   1.320   3.341  12.397  0.7000  0.1029 -1.4913
 9955TIP3   OH251355   5.031   5.950   4.694  0.2157  0.2183  0.0798
 9955TIP3    H151356   5.093   5.963   4.766 -0.3986  1.0484  0.4678
 9955TIP3    H251357   4.985   6.033   4.686  0.1251  0.0691 -1.1453
 9956TIP3   OH251358   2.139   6.469  12.963  0.5841  0.6591  0.2477
 9956TIP3    H151359   2.068   6.506  12.911 -0.1945 -0.1894  0.6731
 9956TIP3    H251360   2.153   6.531  13.034 -0.8315  0.0935  1.0626
 9957TIP3   OH251361   6.196   2.971  15.836  0.3409  0.0512 -0.4597
 9957TIP3    H151362   6.223   2.907  15.770  1.8752  0.6083 -0.4383
 9957TIP3    H251363   6.276   2.988  15.886  0.4049  2.9389 -1.3037
 9958TIP3   OH251364   6.334   0.394   4.863  0.1638  0.6131  0.1760
 9958TIP3    H151365   6.283   0.466   4.898 -1.6344 -0.3024 -0.4260
 9958TIP3    H251366   6.338   0.410   4.769 -0.7541 -0.3216 -0.0477
 9959TIP3   OH251367   6.827   1.426   3.860 -0.4567 -0.5692 -0.1958
 9959TIP3    H151368   6.842   1.332   3.875 -1.2896 -0.9803 -1.7521
 9959TIP3    H251369   6.811   1.433   3.766 -1.4266  1.0096  0.0591
 9960TIP3   OH251370   2.936   6.099  15.016 -0.5391 -0.2105  0.3612
 9960TIP3    H151371   2.927   6.010  15.050  3.0882 -1.1580 -0.6951
 9960TIP3    H251372   2.994   6.143  15.078  0.4001  0.3134 -0.8511
 9961TIP3   OH251373   4.666   5.059   3.152  0.1533 -0.4497  0.4344
 9961TIP3    H151374   4.627   5.066   3.239 -1.9216  0.3288 -0.4977
 9961TIP3    H251375   4.592   5.059   3.092  1.5843  0.6159 -1.4522
 9962TIP3   OH251376   2.798   3.522   2.511 -0.3176 -0.0168  0.0233
 9962TIP3    H151377   2.775   3.615   2.510  0.2545  0.1343  0.2098
 9962TIP3    H251378   2.736   3.483   2.572  0.4598  0.5386  1.2088
 9963TIP3   OH251379   4.394   1.565  16.014  0.0961 -0.8483  0.1896
 9963TIP3    H151380   4.421   1.655  15.996 -1.3882  0.2595  2.9426
 9963TIP3    H251381   4.432   1.514  15.942 -0.4418  2.1557 -2.4477
 9964TIP3   OH251382   6.016   4.686  14.550  0.2614 -0.4424 -0.0951
 9964TIP3    H151383   6.079   4.615  14.536  1.1306  0.0793  1.1148
 9964TIP3    H251384   6.052   4.760  14.502  3.2451  1.3498  4.2768
 9965TIP3   OH251385   6.188   6.729  13.989  0.1589 -0.0122 -0.2151
 9965TIP3    H151386   6.213   6.675  13.914  0.3655 -0.9039  0.4835
 9965TIP3    H251387   6.261   6.791  13.999  0.2681 -0.0805 -0.5558
 9966TIP3   OH251388   4.221   6.149  12.297 -0.2709 -0.1055 -0.2209
 9966TIP3    H151389   4.257   6.073  12.251  0.3497 -0.2061  0.4135
 9966TIP3    H251390   4.290   6.215  12.290 -0.2381 -0.0698  0.4126
 9967TIP3   OH251391   6.694   6.398   2.566  0.2782  0.3951 -0.5805
 9967TIP3    H151392   6.643   6.373   2.643 -0.3996  0.5305 -0.9790
 9967TIP3    H251393   6.629   6.417   2.499  0.8624 -1.1244 -1.6494
 9968TIP3   OH251394   5.803   4.851  12.369 -0.0468 -0.2372 -0.5459
 9968TIP3    H151395   5.804   4.826  12.277  1.1620  0.8825 -0.8604
 9968TIP3    H251396   5.881   4.809  12.406  0.3700  0.6190 -0.4218
 9969TIP3   OH251397   2.194   1.186  11.272 -0.3237  0.3489  0.7995
 9969TIP3    H151398   2.186   1.091  11.277  0.1128  0.2599 -0.0133
 9969TIP3    H251399   2.105   1.218  11.287 -0.8285 -0.2773 -0.6475
 9970TIP3   OH251400   4.314   1.446  12.935 -0.1474  0.2816 -0.3217
 9970TIP3    H151401   4.227   1.450  12.976 -0.3622 -1.6181 -0.4912
 9970TIP3    H251402   4.369   1.500  12.992 -0.7126 -1.2598  1.8450
 9971TIP3   OH251403   4.814   5.736  12.688  0.0138  0.4323 -0.1913
 9971TIP3    H151404   4.892   5.681  12.682 -0.0936  0.3065 -0.4853
 9971TIP3    H251405   4.773   5.712  12.771  0.3302  0.5558  0.0010
 9972TIP3   OH251406   4.566   5.948  15.338 -0.3221 -0.4293  0.0429
 9972TIP3    H151407   4.544   6.034  15.303 -0.9553 -0.2893  0.7750
 9972TIP3    H251408   4.495   5.891  15.308 -1.6880 -0.0084  2.2691
 9973TIP3   OH251409   0.906   2.397   2.752 -0.4055  0.0718  0.4574
 9973TIP3    H151410   0.842   2.330   2.729  0.5116 -0.6989  0.0975
 9973TIP3    H251411   0.976   2.349   2.798  0.3279  0.7531  0.0741
 9974TIP3   OH251412   4.905   5.266  13.935  0.4040  0.2540 -0.7048
 9974TIP3    H151413   4.989   5.263  13.889  1.0750 -1.0387  0.5233
 9974TIP3    H251414   4.853   5.197  13.893  0.0850  0.7785 -1.1895
 9975TIP3   OH251415   6.766   1.476   1.752 -0.0190 -0.1119  0.2988
 9975TIP3    H151416   6.846   1.514   1.788 -0.1811  0.2661  0.2555
 9975TIP3    H251417   6.797   1.418   1.682  0.0504  2.8045 -2.2733
 9976TIP3   OH251418   0.725   1.375   4.536  0.1670  0.4936 -0.3793
 9976TIP3    H151419   0.699   1.298   4.486 -0.5101  0.2189  0.3667
 9976TIP3    H251420   0.795   1.344   4.594 -0.1737  0.4053 -0.0087
 9977TIP3   OH251421   4.482   5.903  14.285 -0.2771  0.0831  0.1753
 9977TIP3    H151422   4.574   5.882  14.297  0.3707  2.0333 -0.9425
 9977TIP3    H251423   4.457   5.855  14.206  0.2691  0.8813 -0.4932
 9978TIP3   OH251424   6.678   1.221  15.370  0.1205 -0.3907  0.0520
 9978TIP3    H151425   6.707   1.191  15.284 -0.6642  0.3454 -0.4939
 9978TIP3    H251426   6.587   1.249  15.356  0.0060 -0.1873  1.0998
 9979TIP3   OH251427   6.466   5.614  11.235  0.2443  0.4901  0.4159
 9979TIP3    H151428   6.551   5.578  11.213  0.0989 -0.1498  0.8588
 9979TIP3    H251429   6.410   5.589  11.161  0.4121  0.8014  0.1836
 9980TIP3   OH251430   4.090   0.965  11.095  0.4061  0.0117 -0.1001
 9980TIP3    H151431   4.066   0.876  11.068  0.6453 -0.2971  0.6610
 9980TIP3    H251432   4.039   1.022  11.038 -0.2903 -0.6234 -0.1345
 9981TIP3   OH251433   4.981   0.368  10.999  0.1011 -0.1083 -0.0316
 9981TIP3    H151434   5.055   0.361  10.939  0.7733  1.0809  0.6271
 9981TIP3    H251435   4.967   0.463  11.008  0.9599 -0.1648  2.8117
 9982TIP3   OH251436   5.657   5.522   5.576 -0.4032  0.5023 -0.3946
 9982TIP3    H151437   5.692   5.530   5.487  0.8535 -0.5126 -0.0175
 9982TIP3    H251438   5.565   5.497   5.564 -0.3557  0.7741 -1.3960
 9983TIP3   OH251439   2.497   1.180  11.387 -0.6418 -0.0887  0.0065
 9983TIP3    H151440   2.513   1.209  11.297 -0.5896  0.7179  0.2628
 9983TIP3    H251441   2.403   1.164  11.390 -0.5531 -0.7031 -0.3511
 9984TIP3   OH251442   5.237   2.230  13.701 -0.4475  0.4133  0.3001
 9984TIP3    H151443   5.152   2.189  13.713 -0.2483 -0.2454 -0.4430
 9984TIP3    H251444   5.300   2.160  13.716  0.0352  1.1335  1.9119
 9985TIP3   OH251445   5.882   1.338  16.337  0.3600  0.2589 -0.1624
 9985TIP3    H151446   5.868   1.257  16.387  2.0988 -0.6269 -0.9983
 9985TIP3    H251447   5.852   1.316  16.248 -1.9369  1.5517  0.2170
 9986TIP3   OH251448   3.896   0.645   1.735 -0.3335  0.0095 -0.5410
 9986TIP3    H151449   3.865   0.604   1.654  0.0175  0.4291 -0.8888
 9986TIP3    H251450   3.817   0.683   1.774 -0.5870 -0.6015 -0.4368
 9987TIP3   OH251451   2.313   2.643  13.202  0.1461 -0.6290  0.0710
 9987TIP3    H151452   2.325   2.731  13.239  0.6910 -0.8241  0.3528
 9987TIP3    H251453   2.249   2.657  13.132 -0.7037 -0.2100  0.8893
 9988TIP3   OH251454   5.293   1.340  15.211 -0.2603  0.0693  0.2958
 9988TIP3    H151455   5.247   1.268  15.169  0.6217 -0.2198 -0.2123
 9988TIP3    H251456   5.337   1.386  15.139  0.0951  0.4366  0.7358
 9989TIP3   OH251457   3.451   6.420   1.054 -0.4034  0.1846 -0.0825
 9989TIP3    H151458   3.536   6.411   1.096 -0.0710 -1.2499 -0.9800
 9989TIP3    H251459   3.391   6.442   1.125  0.5329  0.0938  0.7464
 9990TIP3   OH251460   4.583   0.637   1.168  0.3243 -0.0103 -0.0493
 9990TIP3    H151461   4.519   0.577   1.206  1.2576 -0.4577  0.8938
 9990TIP3    H251462   4.534   0.690   1.106 -1.3063  0.7662  1.8090
 9991TIP3   OH251463   6.043   1.784   2.555 -0.7572  0.0336 -0.1268
 9991TIP3    H151464   6.040   1.703   2.505 -2.1728 -0.2306  0.3258
 9991TIP3    H251465   6.018   1.759   2.644  1.4593  0.5375  0.6971
 9992TIP3   OH251466   6.139   6.838   2.595  0.5683  0.2366 -0.2974
 9992TIP3    H151467   6.173   6.811   2.509 -1.5269 -2.8218 -0.3027
 9992TIP3    H251468   6.052   6.872   2.576 -0.6459 -2.1244  0.6751
 9993TIP3   OH251469   4.091   4.380  11.932 -0.3428 -0.6538  0.0459
 9993TIP3    H151470   4.176   4.373  11.976 -0.5714  0.6481  0.7439
 9993TIP3    H251471   4.096   4.316  11.861  0.8410 -1.3029  0.6803
 9994TIP3   OH251472   4.965   6.690   1.083  0.3791 -0.0810  0.0181
 9994TIP3    H151473   4.931   6.677   1.171 -0.6074 -0.4920 -0.4065
 9994TIP3    H251474   4.888   6.684   1.026  0.9709  0.3322 -0.8608
 9995TIP3   OH251475   0.356   4.369  12.688 -0.1656  0.3596 -0.3391
 9995TIP3    H151476   0.277   4.419  12.707  0.7170  0.8947  2.3952
 9995TIP3    H251477   0.427   4.433  12.690  0.8210 -0.6936  1.8391
 9996TIP3   OH251478   4.966   5.181  13.244 -0.0992  0.0699 -0.4340
 9996TIP3    H151479   5.039   5.140  13.198  2.3189  2.1061  1.3689
 9996TIP3    H251480   4.962   5.270  13.209 -2.9313 -0.4340 -1.7145
 9997TIP3   OH251481   0.656   0.369   5.932 -1.2956 -0.5536  0.6039
 9997TIP3    H151482   0.683   0.457   5.907 -2.8817 -0.0291  0.6487
 9997TIP3    H251483   0.729   0.313   5.905  0.3239  0.8948  1.7636
 9998TIP3   OH251484   2.291   0.074   3.940  0.0109 -0.5558 -0.1144
 9998TIP3    H151485   2.383   0.067   3.913  0.1573  0.8760 -0.0361
 9998TIP3    H251486   2.289   0.147   4.001 -1.1410 -0.7633  0.1148
 9999TIP3   OH251487   4.284   0.189  16.102  0.1348 -0.0859 -0.3271
 9999TIP3    H151488   4.338   0.134  16.159 -0.0067  0.5623  0.4544
 9999TIP3    H251489   4.332   0.193  16.019 -0.7460 -2.9094 -1.0900
10000TIP3   OH251490   1.844   5.089  16.788 -0.8637  0.5529 -0.3436
10000TIP3    H151491   1.856   5.083  16.693 -0.3203  0.5605 -0.2818
10000TIP3    H251492   1.901   5.161  16.814 -0.6894  0.2823  0.0398
10001TIP3   OH251493   4.653   3.971  15.873  0.3673  0.1717  0.9263
10001TIP3    H151494   4.722   3.987  15.937  0.6075  1.5630  0.3445
10001TIP3    H251495   4.643   4.054  15.826 -0.2131 -0.6238 -0.4362
10002TIP3   OH251496   1.506   6.478  14.227 -0.3430 -0.2160  0.3111
10002TIP3    H151497   1.415   6.481  14.197  0.0919  2.0812 -1.0698
10002TIP3    H251498   1.514   6.551  14.289  0.6670  0.0025 -0.0457
10003TIP3   OH251499   6.263   0.493  13.584 -0.1624 -0.1919 -0.0446
10003TIP3    H151500   6.352   0.460  13.572  0.9813  2.2496  1.2522
10003TIP3    H251501   6.216   0.460  13.507  1.8596 -1.4565 -0.8265
10004TIP3   OH251502   1.171   2.722  12.400  0.0289 -0.4065  0.0509
10004TIP3    H151503   1.127   2.680  12.474 -1.1386 -0.6566 -0.7578
10004TIP3    H251504   1.132   2.810  12.397 -0.9688 -0.8535 -1.0841
10005TIP3   OH251505   0.632   4.951  15.734 -0.4938 -0.7469 -0.3923
10005TIP3    H151506   0.544   4.972  15.702 -0.3431 -0.6679 -0.7712
10005TIP3    H251507   0.618   4.899  15.812 -0.8778  0.4380  0.3472
10006TIP3   OH251508   3.877   5.684   1.838 -0.2274 -0.4345 -0.7646
10006TIP3    H151509   3.927   5.611   1.800 -0.5633 -1.1206  0.0743
10006TIP3    H251510   3.898   5.681   1.932 -0.1390  0.6412 -0.7393
10007TIP3   OH251511   6.198   3.235  11.027  0.1103  0.5787  0.1999
10007TIP3    H151512   6.251   3.155  11.037  1.4911  1.7207  3.0819
10007TIP3    H251513   6.170   3.257  11.116 -1.2414  2.6744 -0.6714
10008TIP3   OH251514   2.065   0.691   3.022 -0.4244 -0.1799 -0.5123
10008TIP3    H151515   2.072   0.601   3.053  0.2637 -0.2930 -0.9839
10008TIP3    H251516   2.067   0.744   3.102 -0.3444 -0.5524 -0.2626
10009TIP3   OH251517   5.320   0.164  12.091  0.3244 -0.1133  0.5732
10009TIP3    H151518   5.371   0.110  12.031 -2.5319 -1.5439 -0.7840
10009TIP3    H251519   5.318   0.114  12.173  0.4572 -0.4384  0.3778
10010TIP3   OH251520   6.152   3.944  13.124 -0.3397  0.1505  0.4827
10010TIP3    H151521   6.198   3.956  13.207 -0.4118  0.2122  0.5142
10010TIP3    H251522   6.212   3.978  13.058  0.1137 -0.7776  0.4101
10011TIP3   OH251523   4.326   0.664   1.799  0.2252  0.2347 -0.0607
10011TIP3    H151524   4.412   0.637   1.832  1.2759  3.1585 -0.0766
10011TIP3    H251525   4.267   0.652   1.873  1.4784  1.7921  1.2733
10012TIP3   OH251526   3.822   1.038   4.475  0.9732  0.0967  0.0464
10012TIP3    H151527   3.814   0.953   4.519  1.3231 -0.3172 -0.6764
10012TIP3    H251528   3.734   1.075   4.478  1.1511  0.4816  1.8768
10013TIP3   OH251529   6.544   6.840   5.586 -0.0303 -0.0175  0.4198
10013TIP3    H151530   6.512   6.799   5.506 -0.3001  0.7157  0.1500
10013TIP3    H251531   6.630   6.801   5.600  0.3338  0.3807 -0.6331
10014TIP3   OH251532   5.721   4.579  14.304  0.1675  0.2321  0.1068
10014TIP3    H151533   5.724   4.674  14.308  1.7366  0.2193 -0.1225
10014TIP3    H251534   5.758   4.551  14.388 -0.7623 -0.1822  0.3851
10015TIP3   OH251535   5.951   4.378   0.168  0.1087 -0.2810 -0.6835
10015TIP3    H151536   5.855   4.380   0.170  0.0822 -0.3741  1.8986
10015TIP3    H251537   5.977   4.460   0.210  1.1905 -0.0791 -1.7094
10016TIP3   OH251538   6.539   5.783   5.181  0.1306 -0.0525 -0.0634
10016TIP3    H151539   6.572   5.809   5.267 -0.3004  1.0653 -0.2266
10016TIP3    H251540   6.618   5.761   5.131  0.3466 -1.4933  0.8284
10017TIP3   OH251541   2.824   4.574   4.969 -0.0138 -0.2881 -0.2714
10017TIP3    H151542   2.844   4.631   5.042  0.0526  0.8990 -1.1893
10017TIP3    H251543   2.790   4.494   5.009  0.7494  0.0381  1.0639
10018TIP3   OH251544   4.505   0.266  14.640 -0.2305 -0.0462 -0.0235
10018TIP3    H151545   4.510   0.333  14.572  0.9474 -0.8180 -0.7270
10018TIP3    H251546   4.590   0.268  14.683  0.0856 -1.5401 -0.5098
10019TIP3   OH251547   1.464   4.098  12.409 -0.3536  0.1824 -0.5339
10019TIP3    H151548   1.432   4.023  12.459 -2.2450  0.0814 -1.7510
10019TIP3    H251549   1.447   4.075  12.318  0.2748  1.5382 -1.0258
10020TIP3   OH251550   1.763   4.905  15.073 -0.0616  0.0288  0.1247
10020TIP3    H151551   1.731   4.881  15.160  1.4600 -0.2319  0.6369
10020TIP3    H251552   1.855   4.927  15.086  0.4393 -0.8751 -1.5537
10021TIP3   OH251553   4.687   4.533   5.657 -0.8516 -0.8917  1.0518
10021TIP3    H151554   4.676   4.548   5.563 -0.5745  0.5888  1.2313
10021TIP3    H251555   4.667   4.617   5.698  0.3612 -1.1177  2.2110
10022TIP3   OH251556   1.776   1.404  12.175 -0.2646 -0.2216 -0.4494
10022TIP3    H151557   1.748   1.411  12.084 -0.6106 -1.3167 -0.4421
10022TIP3    H251558   1.710   1.453  12.224 -0.2101  0.1667 -0.7576
10023TIP3   OH251559   1.370   6.117   0.593 -0.3972  0.2065 -0.4820
10023TIP3    H151560   1.342   6.181   0.658 -1.3139  0.5701 -1.2162
10023TIP3    H251561   1.373   6.034   0.640 -1.7452  0.3366 -0.1246
10024TIP3   OH251562   4.258   1.893   0.203 -0.2438 -0.7335 -0.3687
10024TIP3    H151563   4.260   1.837   0.281  0.8305 -0.6495 -0.3285
10024TIP3    H251564   4.165   1.913   0.191 -0.2534  1.9980  2.8617
10025TIP3   OH251565   2.440   4.052   3.902  0.0584 -0.8140 -0.6063
10025TIP3    H151566   2.426   4.108   3.979 -0.7597 -0.4198 -1.0239
10025TIP3    H251567   2.520   4.004   3.921  0.3908 -0.0140  0.0753
10026TIP3   OH251568   2.493   0.097  13.609  0.0507 -0.5018  0.2961
10026TIP3    H151569   2.473   0.122  13.519  0.6307  0.7858  0.5016
10026TIP3    H251570   2.508   0.003  13.605  0.0444 -0.4643 -0.9472
10027TIP3   OH251571   3.777   4.600  13.338 -0.2864 -0.1642  0.4971
10027TIP3    H151572   3.799   4.640  13.423 -1.4247 -0.4609  0.9501
10027TIP3    H251573   3.826   4.518  13.337  2.8504  1.5806 -0.8550
10028TIP3   OH251574   2.214   1.461  14.890 -0.6287 -0.4457 -0.0249
10028TIP3    H151575   2.301   1.501  14.900 -0.9295  0.4367 -0.7505
10028TIP3    H251576   2.218   1.414  14.807 -1.2013  0.6500 -0.7106
10029TIP3   OH251577   2.946   6.610  11.702  0.7153  0.0142  0.1485
10029TIP3    H151578   2.941   6.683  11.640 -0.7949 -0.3929 -0.2645
10029TIP3    H251579   2.869   6.557  11.681 -0.8604  0.7554  3.5270
10030TIP3   OH251580   5.180   0.984   4.159  0.0520  0.4713  0.1906
10030TIP3    H151581   5.207   1.026   4.078  0.8355 -0.8769 -0.2813
10030TIP3    H251582   5.132   0.906   4.131  3.3869 -2.0382  0.8691
10031TIP3   OH251583   2.410   5.558   2.363  0.0656 -0.4315  0.0695
10031TIP3    H151584   2.341   5.505   2.403 -1.7763 -1.7512 -4.2758
10031TIP3    H251585   2.479   5.496   2.342 -0.2033 -0.3156 -1.1937
10032TIP3   OH251586   6.768   5.241   4.247 -0.3542  0.0354  0.3122
10032TIP3    H151587   6.722   5.159   4.267 -0.0547 -0.3297 -0.4373
10032TIP3    H251588   6.824   5.255   4.322  0.0968 -0.8310  0.1575
10033TIP3   OH251589   6.203   0.979  14.402  0.2283 -0.4617 -0.0033
10033TIP3    H151590   6.221   0.887  14.380 -0.7581 -0.9523  1.1427
10033TIP3    H251591   6.108   0.987  14.394  0.2998  0.4613 -0.0303
10034TIP3   OH251592   6.302   4.284   0.922 -0.3865 -0.9638 -0.1710
10034TIP3    H151593   6.288   4.287   0.828 -1.3027 -0.1463 -0.0181
10034TIP3    H251594   6.345   4.199   0.937 -0.6203 -1.2912 -1.2580
10035TIP3   OH251595   5.282   2.143  15.770 -0.0519  0.5100 -0.0208
10035TIP3    H151596   5.220   2.070  15.777  0.0335  0.3272 -1.0542
10035TIP3    H251597   5.366   2.102  15.751  0.1697  0.8320  0.2428
10036TIP3   OH251598   1.212   1.469  16.784 -0.1747 -0.1294  0.5166
10036TIP3    H151599   1.130   1.455  16.831  0.0202 -0.6350  0.7169
10036TIP3    H251600   1.245   1.552  16.817 -0.1195 -0.3998  1.1636
10037TIP3   OH251601   2.534   6.566   5.712 -0.0587 -0.3064 -0.2373
10037TIP3    H151602   2.584   6.515   5.648  1.5037 -0.9763  1.4363
10037TIP3    H251603   2.591   6.639   5.735  0.7525 -1.6848  2.5298
10038TIP3   OH251604   1.963   0.464   4.871  0.1124 -0.0723  0.0985
10038TIP3    H151605   1.941   0.541   4.819  1.5084 -0.0157 -0.4501
10038TIP3    H251606   1.983   0.498   4.958 -2.0631 -0.1508  0.7068
10039TIP3   OH251607   3.675   0.835   1.771  0.2584  0.2963 -0.0106
10039TIP3    H151608   3.619   0.781   1.715  0.3000 -0.2476  0.4643
10039TIP3    H251609   3.622   0.913   1.789 -0.1496  0.0170  0.0144
10040TIP3   OH251610   1.098   5.113   3.957 -0.2740 -0.5155 -0.5933
10040TIP3    H151611   1.049   5.039   3.992 -1.7625  0.0174 -1.4681
10040TIP3    H251612   1.184   5.076   3.934 -1.0491 -2.0224 -1.2179
10041TIP3   OH251613   3.036   5.621  12.313 -0.4091  0.5379  0.0098
10041TIP3    H151614   2.995   5.705  12.335  1.0108  1.5425 -0.9899
10041TIP3    H251615   3.091   5.601  12.389  0.9315  1.6614 -0.6196
10042TIP3   OH251616   6.847   4.223  14.403  0.5152  0.3986  0.0758
10042TIP3    H151617   6.777   4.158  14.405  0.8529 -0.0651 -1.4423
10042TIP3    H251618   6.803   4.306  14.389  0.2103  0.1832 -0.2826
10043TIP3   OH251619   2.127   0.202  14.118 -0.2905  0.0357 -0.1714
10043TIP3    H151620   2.060   0.148  14.161  0.5577 -0.1390  1.0033
10043TIP3    H251621   2.123   0.177  14.026 -1.6399 -0.1655 -0.0829
10044TIP3   OH251622   3.891   5.217  12.955 -0.3619 -0.2034  0.4418
10044TIP3    H151623   3.970   5.207  13.008  0.3973 -0.2617 -0.6573
10044TIP3    H251624   3.882   5.312  12.943 -0.3638 -0.2041  0.4387
10045TIP3   OH251625   3.489   4.275  10.386  0.7536 -0.2523  0.5800
10045TIP3    H151626   3.481   4.364  10.353 -0.9242  0.1312  1.8729
10045TIP3    H251627   3.448   4.220  10.319  0.5956  0.0864  0.4003
10046TIP3   OH251628   0.673   2.108   4.764  0.0467 -0.1255 -0.5685
10046TIP3    H151629   0.646   2.023   4.729 -0.9930  0.6433 -1.7337
10046TIP3    H251630   0.638   2.171   4.701 -1.5674  1.3166  1.6368
10047TIP3   OH251631   1.500   6.603  13.846  0.1490  0.0194  0.1600
10047TIP3    H151632   1.515   6.658  13.923  2.2339  1.1919 -1.0106
10047TIP3    H251633   1.578   6.549  13.840 -0.1163 -0.2537 -0.9921
10048TIP3   OH251634   1.809   2.192   1.979 -0.5135  0.2464 -0.1364
10048TIP3    H151635   1.749   2.244   1.926 -1.5289  0.9605  1.6473
10048TIP3    H251636   1.794   2.222   2.069  0.3484 -1.6925  0.7028
10049TIP3   OH251637   1.828   4.371   2.919 -0.1750  0.2383 -0.2242
10049TIP3    H151638   1.908   4.361   2.972 -1.4150  2.2354  2.2495
10049TIP3    H251639   1.764   4.316   2.963 -0.9923  1.1724 -0.2319
10050TIP3   OH251640   1.566   4.497  14.832 -0.1773 -0.4956 -0.0699
10050TIP3    H151641   1.643   4.472  14.781 -0.7865 -1.1662 -0.6843
10050TIP3    H251642   1.595   4.496  14.923  1.0370  1.0912 -0.3900
10051TIP3   OH251643   6.565   4.702   5.552 -0.1264 -0.3536  0.0306
10051TIP3    H151644   6.615   4.784   5.549 -1.3116  0.6491  3.3604
10051TIP3    H251645   6.503   4.710   5.479 -0.4621  1.9645  0.4764
10052TIP3   OH251646   0.037   0.399   5.305 -0.8274  0.5882  0.3999
10052TIP3    H151647  -0.022   0.374   5.234  0.6320 -2.2794  0.0317
10052TIP3    H251648  -0.002   0.360   5.383 -0.5352  0.5316  0.5200
10053TIP3   OH251649   3.750   0.196   2.166  0.0253 -0.2649 -0.1296
10053TIP3    H151650   3.698   0.185   2.087  0.0914 -1.7641  0.0041
10053TIP3    H251651   3.841   0.185   2.137  0.2127  1.2593 -0.1796
10054TIP3   OH251652   0.163   4.849  13.456  0.0367 -0.0973  0.4579
10054TIP3    H151653   0.193   4.918  13.397  0.6461 -0.8251 -0.1027
10054TIP3    H251654   0.068   4.863  13.462  0.0261  0.2522 -0.3478
10055TIP3   OH251655   0.815   2.911   1.620 -0.9663 -0.3831  0.0132
10055TIP3    H151656   0.903   2.944   1.636 -1.1865 -0.0722  0.5880
10055TIP3    H251657   0.757   2.979   1.653 -1.4328 -1.4336  1.4436
10056TIP3   OH251658   0.090   6.138  14.836 -0.8500 -0.3812 -0.4448
10056TIP3    H151659   0.024   6.206  14.833 -0.5133  0.0352  0.8451
10056TIP3    H251660   0.173   6.184  14.825 -0.1339  0.3138  5.0196
10057TIP3   OH251661   3.531   2.566   1.644 -0.1495 -0.1545 -0.1411
10057TIP3    H151662   3.498   2.503   1.708 -1.1668 -0.3312 -0.8132
10057TIP3    H251663   3.547   2.646   1.694  0.5682 -0.7451  0.6101
10058TIP3   OH251664   4.960   6.164  11.367 -0.5096  0.3462  0.0562
10058TIP3    H151665   4.925   6.225  11.433 -3.1556 -0.2157 -0.6954
10058TIP3    H251666   5.009   6.100  11.418  0.6244  1.9093  1.0591
10059TIP3   OH251667   3.661   3.026  11.162 -0.1290  0.2113 -0.4610
10059TIP3    H151668   3.600   2.999  11.230 -1.5713  3.1329 -0.4339
10059TIP3    H251669   3.643   2.967  11.089  0.6375 -2.2222  1.1905
10060TIP3   OH251670   4.084   5.396   2.386 -0.3874  0.2750  0.2013
10060TIP3    H151671   4.129   5.469   2.344 -0.5773  0.4906  0.3675
10060TIP3    H251672   4.043   5.434   2.463 -1.1998  0.1719 -0.1651
10061TIP3   OH251673   6.600   3.901   1.345  0.6593  0.4124  0.4086
10061TIP3    H151674   6.595   3.806   1.343  0.0633  0.4421  0.4449
10061TIP3    H251675   6.610   3.927   1.254  0.5985  0.3273  0.3775
10062TIP3   OH251676   6.338   3.657  15.427  0.1733  0.4793 -0.4225
10062TIP3    H151677   6.257   3.692  15.391 -0.3380  0.0295  0.2815
10062TIP3    H251678   6.311   3.605  15.503  0.9868 -0.7624 -0.9498
10063TIP3   OH251679   0.557   3.520  14.121  0.0864  0.0807 -0.0487
10063TIP3    H151680   0.609   3.522  14.201  1.6838 -1.8577 -0.9399
10063TIP3    H251681   0.589   3.594  14.070  2.3349 -1.2668 -0.7231
10064TIP3   OH251682   3.082   5.191   4.559 -0.2231  0.1841  0.3880
10064TIP3    H151683   3.171   5.155   4.566  0.2128  0.3695 -2.7478
10064TIP3    H251684   3.037   5.132   4.499 -1.9769  0.6101  1.2167
10065TIP3   OH251685   6.684   2.038  11.488  0.5710 -0.7621  0.2965
10065TIP3    H151686   6.697   2.125  11.452 -1.0279  0.3063  2.1151
10065TIP3    H251687   6.626   1.994  11.426  0.5363 -0.1457 -0.1102
10066TIP3   OH251688   5.438   0.515  10.702  0.4245  0.2792  0.3803
10066TIP3    H151689   5.526   0.551  10.712  0.5542 -0.0403  0.3892
10066TIP3    H251690   5.449   0.442  10.641  0.0760  0.5745 -0.0387
10067TIP3   OH251691   0.355   2.549   4.116  0.0020 -0.0585  0.1728
10067TIP3    H151692   0.344   2.473   4.060  1.4681  1.2881 -2.0913
10067TIP3    H251693   0.268   2.563   4.155 -0.1714 -3.1497  1.1717
10068TIP3   OH251694   5.683   1.668  11.236 -0.2058  0.4811 -0.4590
10068TIP3    H151695   5.673   1.680  11.330  0.0119  0.5423 -0.4430
10068TIP3    H251696   5.753   1.729  11.211  0.6512 -0.4677 -0.4391
10069TIP3   OH251697   6.180   5.014  16.258  0.1790  0.1857 -0.9219
10069TIP3    H151698   6.131   5.075  16.313  0.1460 -1.6894  1.2491
10069TIP3    H251699   6.270   5.045  16.262 -0.3229  2.2230 -2.9661
10070TIP3   OH251700   4.003   0.270  16.287 -0.3437  0.5028  0.4349
10070TIP3    H151701   3.917   0.312  16.281 -0.3880  0.2125 -1.9857
10070TIP3    H251702   4.020   0.236  16.199  3.5081  3.0871 -0.0838
10071TIP3   OH251703   3.019   6.181  10.740 -0.1391 -0.0028  0.0163
10071TIP3    H151704   3.050   6.092  10.756 -0.4057 -0.1592 -0.3121
10071TIP3    H251705   2.953   6.171  10.670  0.7493  0.6060 -0.9366
10072TIP3   OH251706   3.496   1.513   3.286  0.1219  0.1792  0.5378
10072TIP3    H151707   3.553   1.516   3.210 -0.6312 -0.9991 -0.0994
10072TIP3    H251708   3.497   1.421   3.314 -0.1163  0.4674  1.5595
10073TIP3   OH251709   3.094   6.571  16.354  0.0195  0.2958 -0.2968
10073TIP3    H151710   3.031   6.567  16.282 -0.8986  2.9730  0.2335
10073TIP3    H251711   3.050   6.527  16.427  0.6892 -1.8494 -1.1172
10074TIP3   OH251712   6.180   1.946  15.468  0.7145 -0.7452  0.2998
10074TIP3    H151713   6.179   2.039  15.442  2.4572 -0.8452 -0.2410
10074TIP3    H251714   6.121   1.903  15.406  0.7192 -0.1612 -0.1189
10075TIP3   OH251715   2.726   1.356  15.178  0.2015 -0.0693 -0.4684
10075TIP3    H151716   2.785   1.301  15.126 -0.6548 -1.1636 -0.3111
10075TIP3    H251717   2.641   1.348  15.135 -0.3366 -0.3478  0.6003
10076TIP3   OH251718   1.084   0.580   4.237  0.3405 -0.2594 -0.0103
10076TIP3    H151719   1.010   0.591   4.297  0.3103 -0.3094 -0.0384
10076TIP3    H251720   1.159   0.616   4.285  0.1937  0.3248 -0.2154
10077TIP3   OH251721   0.033   4.533   2.277  0.2912  0.2045  0.0246
10077TIP3    H151722   0.035   4.438   2.264  1.2879  0.3071 -0.7454
10077TIP3    H251723   0.061   4.545   2.368  1.7891 -0.2025 -0.3435
10078TIP3   OH251724   1.483   5.790  16.881  0.1941  0.6230 -0.2250
10078TIP3    H151725   1.477   5.753  16.793 -4.3268 -0.6722  0.3978
10078TIP3    H251726   1.535   5.726  16.931 -1.0609 -1.0520 -0.9730
10079TIP3   OH251727   4.878   4.020  16.051  0.7730 -0.3874  0.1533
10079TIP3    H151728   4.928   4.101  16.049  1.5981 -0.8853 -1.0334
10079TIP3    H251729   4.836   4.019  16.137  2.3785  0.3286  1.0022
10080TIP3   OH251730   0.960   0.013   3.945 -0.0498 -0.2173 -0.3181
10080TIP3    H151731   0.903   0.069   3.891  0.9204  0.9751 -0.1335
10080TIP3    H251732   0.954   0.050   4.033 -0.2992 -1.1295  0.0640
10081TIP3   OH251733   3.671   3.124   2.067  0.1973 -0.2827  0.3206
10081TIP3    H151734   3.648   3.145   1.976  1.4015 -1.0783 -0.1947
10081TIP3    H251735   3.587   3.105   2.109 -0.4914  1.1779 -0.3204
10082TIP3   OH251736   4.713   1.858   2.637  0.1058 -0.0937 -0.2549
10082TIP3    H151737   4.696   1.875   2.730 -0.3313  0.2503 -0.3935
10082TIP3    H251738   4.708   1.762   2.630 -2.3848 -0.0362 -0.3553
10083TIP3   OH251739   3.442   6.267   5.646  0.2073  0.4756  0.3924
10083TIP3    H151740   3.391   6.320   5.708  1.0456 -1.1013  2.5793
10083TIP3    H251741   3.425   6.306   5.561 -2.4727  1.6861  1.3704
10084TIP3   OH251742   3.169   3.308   5.490 -0.4848 -0.3507  0.2870
10084TIP3    H151743   3.146   3.341   5.577  1.0327 -0.8577  0.9176
10084TIP3    H251744   3.171   3.212   5.500  0.6665 -0.3820 -0.0087
10085TIP3   OH251745   1.053   1.491  11.673 -0.0609 -0.0297 -0.4969
10085TIP3    H151746   1.083   1.439  11.598 -1.9459 -0.4196 -1.0252
10085TIP3    H251747   1.125   1.485  11.736  0.5304 -1.7711 -1.2735
10086TIP3   OH251748   1.433   2.607  16.352  0.0436 -0.0878 -0.0756
10086TIP3    H151749   1.506   2.545  16.349 -0.1060 -0.2200 -1.6389
10086TIP3    H251750   1.461   2.680  16.297  0.2410  1.3155  1.7989
10087TIP3   OH251751   3.738   0.638   3.058  0.6491  0.4481  0.2729
10087TIP3    H151752   3.679   0.617   2.985  1.2612 -2.1639  0.4314
10087TIP3    H251753   3.729   0.733   3.070 -1.0582  0.6167 -1.7966
10088TIP3   OH251754   2.722   1.938  15.859  0.0552  0.7899 -0.2239
10088TIP3    H151755   2.680   1.862  15.899  1.0932 -0.3912 -1.2985
10088TIP3    H251756   2.799   1.954  15.914  0.0654  0.8151 -0.2454
10089TIP3   OH251757   0.345   2.321  14.994  0.5873  0.2053 -0.4308
10089TIP3    H151758   0.251   2.337  14.997  0.3569 -1.1716  0.3238
10089TIP3    H251759   0.366   2.324  14.901 -0.0683  1.1880 -0.5639
10090TIP3   OH251760   5.732   0.418  13.613  0.5895  0.0263  0.5633
10090TIP3    H151761   5.686   0.407  13.696 -1.3172 -1.1381 -0.5811
10090TIP3    H251762   5.819   0.450  13.638  0.1956 -0.6248  3.0147
10091TIP3   OH251763   0.517   5.544   3.031 -0.4542  0.2982 -0.1768
10091TIP3    H151764   0.552   5.595   3.105 -0.4193  0.0729 -0.0378
10091TIP3    H251765   0.530   5.453   3.057 -0.8175  0.2170 -0.2856
10092TIP3   OH251766   1.157   2.299   3.095 -0.3153  0.1227  0.1636
10092TIP3    H151767   1.208   2.230   3.139 -0.6899  0.5604  1.3308
10092TIP3    H251768   1.080   2.310   3.151 -0.2712  1.4714 -0.0093
10093TIP3   OH251769   1.969   0.267   2.317 -0.6832 -0.1590  0.2922
10093TIP3    H151770   1.994   0.179   2.347 -2.6169 -1.0878 -0.6522
10093TIP3    H251771   2.039   0.293   2.258 -0.2002 -1.1654  0.4060
10094TIP3   OH251772   3.110   0.327   4.032 -0.1801 -0.0385 -0.5521
10094TIP3    H151773   3.111   0.308   3.938  0.4808 -1.2831 -0.3158
10094TIP3    H251774   3.018   0.321   4.057 -0.1502 -1.7831 -0.7471
10095TIP3   OH251775   4.015   2.535   1.244  0.3684 -0.1300  0.4656
10095TIP3    H151776   3.954   2.592   1.198  0.0259 -0.7443  0.1441
10095TIP3    H251777   3.959   2.481   1.301  0.8378  1.2011  2.2902
10096TIP3   OH251778   0.448   1.864   0.243 -0.1841  0.6466 -0.5805
10096TIP3    H151779   0.375   1.899   0.192 -0.9462 -1.7235 -1.2336
10096TIP3    H251780   0.406   1.813   0.312  0.7934 -1.4134 -1.4288
10097TIP3   OH251781   0.066   3.399  10.762  0.2142 -0.1690 -0.7226
10097TIP3    H151782   0.091   3.353  10.682 -0.5296  0.7817 -1.5181
10097TIP3    H251783   0.024   3.479  10.732  1.0379  0.8120  0.6261
10098TIP3   OH251784   1.599   4.998  16.850  0.4204  0.0317 -0.5604
10098TIP3    H151785   1.577   5.027  16.938  1.0444  0.0091 -0.3932
10098TIP3    H251786   1.691   5.020  16.840  0.0584  1.2039 -1.6737
10099TIP3   OH251787   5.328   4.974  11.336 -0.0589  0.1137 -0.2518
10099TIP3    H151788   5.408   4.939  11.298  0.1943 -0.4217  0.7374
10099TIP3    H251789   5.315   5.058  11.293 -0.3420 -0.8813 -2.2397
10100TIP3   OH251790   0.862   2.180   5.382 -0.0572  0.2186  0.1322
10100TIP3    H151791   0.882   2.205   5.292  1.9012 -0.4950  0.3166
10100TIP3    H251792   0.892   2.089   5.389  1.4966  0.8008  1.9570
10101TIP3   OH251793   3.148   0.740  13.926 -0.0612 -0.1109  0.0040
10101TIP3    H151794   3.126   0.817  13.978  1.1221 -0.4181  1.0197
10101TIP3    H251795   3.170   0.673  13.991 -1.9331 -1.6336 -0.8071
10102TIP3   OH251796   6.087   0.874  14.968 -0.3843 -0.6061 -0.1773
10102TIP3    H151797   6.000   0.914  14.957  0.1088  0.5220 -0.1286
10102TIP3    H251798   6.147   0.934  14.923  0.5353 -0.6386  0.9613
10103TIP3   OH251799   3.192   0.735  10.595 -0.0364 -0.0209  0.3169
10103TIP3    H151800   3.282   0.728  10.627  0.0801 -1.8547 -0.3034
10103TIP3    H251801   3.199   0.786  10.515  0.2574  0.9400  0.9360
10104TIP3   OH251802   2.445   6.476   4.450 -0.1748  0.1825  0.4503
10104TIP3    H151803   2.536   6.451   4.432  0.1238 -0.5296  2.7208
10104TIP3    H251804   2.451   6.564   4.489 -0.5180  0.3323  0.1749
10105TIP3   OH251805   6.825   3.529  14.150  0.0736 -0.6450  0.4325
10105TIP3    H151806   6.777   3.553  14.229 -0.7256  0.1050 -0.2677
10105TIP3    H251807   6.917   3.534  14.176 -0.1348  0.8560  0.9774
10106TIP3   OH251808   3.655   5.218   0.002  0.1784 -0.0092 -0.3512
10106TIP3    H151809   3.679   5.291   0.058 -0.6688  0.7005 -0.8823
10106TIP3    H251810   3.587   5.253  -0.055 -1.8723 -1.7791  0.8315
10107TIP3   OH251811   6.451   6.432  13.653  0.1421 -0.3874  0.3267
10107TIP3    H151812   6.370   6.460  13.694  0.4975 -1.5437  1.9092
10107TIP3    H251813   6.447   6.337  13.652  1.1891 -0.4507 -0.1993
10108TIP3   OH251814   1.455   3.392   3.073  0.0775 -0.2216 -0.1491
10108TIP3    H151815   1.451   3.297   3.059  2.2408 -0.3573 -0.2824
10108TIP3    H251816   1.527   3.421   3.016  1.9028  0.9210  2.5343
10109TIP3   OH251817   3.613   0.107   4.428 -0.0145  0.5204  0.1115
10109TIP3    H151818   3.709   0.107   4.434  0.0743  0.7272 -1.1575
10109TIP3    H251819   3.585   0.161   4.502  0.9173  1.5906 -0.2843
10110TIP3   OH251820   6.452   5.040   4.774  0.0411 -0.3821  0.3562
10110TIP3    H151821   6.495   5.077   4.697 -2.6248  1.1064 -0.5489
10110TIP3    H251822   6.523   5.020   4.835  1.9873  1.7114 -1.0876
10111TIP3   OH251823   3.745   5.745  10.625  0.0770  0.0065 -0.0005
10111TIP3    H151824   3.719   5.793  10.546  3.5379  1.9935 -0.1315
10111TIP3    H251825   3.727   5.805  10.697  0.0753 -0.3993  0.3387
10112TIP3   OH251826   6.157   5.258  16.472 -0.0110  0.0620 -0.2410
10112TIP3    H151827   6.160   5.353  16.485  0.8720  0.4096 -2.5269
10112TIP3    H251828   6.244   5.235  16.440 -0.5074 -1.3524 -0.6759
10113TIP3   OH251829   3.036   1.676   0.235 -0.3293 -0.3658 -0.4823
10113TIP3    H151830   3.001   1.595   0.199 -1.7800  1.0165 -2.4255
10113TIP3    H251831   3.091   1.649   0.308 -0.6320 -3.0792 -1.1711
10114TIP3   OH251832   1.087   3.090  16.800 -0.6209 -0.3183 -0.4478
10114TIP3    H151833   1.102   3.149  16.726  0.2079 -0.9938 -0.8280
10114TIP3    H251834   1.163   3.102  16.856  0.3224 -2.1129 -1.2714
10115TIP3   OH251835   1.088   4.689   1.658  0.2994  0.3530  0.2555
10115TIP3    H151836   1.079   4.718   1.567  2.1577 -0.8465 -0.3705
10115TIP3    H251837   1.119   4.599   1.651  0.7030  0.3213  2.0849
10116TIP3   OH251838   6.741   6.729  11.089 -0.2250  0.7353  0.1106
10116TIP3    H151839   6.725   6.819  11.119  1.6819  1.4709 -0.8871
10116TIP3    H251840   6.820   6.702  11.136 -0.2059 -0.0385 -0.3535
10117TIP3   OH251841   3.315   4.720  16.155 -0.1334  0.0627  0.4603
10117TIP3    H151842   3.368   4.733  16.234 -0.7726  1.3528  0.6991
10117TIP3    H251843   3.327   4.800  16.104  0.2227 -0.7288 -0.7539
10118TIP3   OH251844   2.446   1.228   1.398  0.0805 -0.1914 -0.1814
10118TIP3    H151845   2.532   1.201   1.429  0.7309  0.4104 -1.3826
10118TIP3    H251846   2.404   1.268   1.474  1.8545  1.7667 -0.1644
10119TIP3   OH251847   5.654   6.429  13.780  0.1749  0.1026 -0.1763
10119TIP3    H151848   5.592   6.498  13.804  0.5504  0.1531  0.6946
10119TIP3    H251849   5.599   6.354  13.759 -0.1810 -0.0770  1.3051
10120TIP3   OH251850   1.099   2.209  10.991  0.0748  0.1065  0.1941
10120TIP3    H151851   1.035   2.157  10.943 -1.5785  1.2243  1.1034
10120TIP3    H251852   1.141   2.263  10.923 -0.9286  0.3400 -0.2577
10121TIP3   OH251853   6.794   1.128  17.076 -0.3272  0.2339  0.1351
10121TIP3    H151854   6.766   1.070  17.006  1.5205 -0.3563 -0.1477
10121TIP3    H251855   6.823   1.070  17.146  0.9403  0.7814  0.0935
10122TIP3   OH251856   4.575   0.622   2.670  0.4521  0.5833 -0.4294
10122TIP3    H151857   4.502   0.570   2.704  0.8861  0.3463  0.1632
10122TIP3    H251858   4.566   0.707   2.712  0.8263  0.3799  0.0726
10123TIP3   OH251859   5.529   2.640  11.448  0.1899 -0.1154  0.5670
10123TIP3    H151860   5.597   2.690  11.493  0.5239 -1.3178  1.4517
10123TIP3    H251861   5.576   2.596  11.376 -0.0797  0.7171 -0.1349
10124TIP3   OH251862   6.141   2.790  13.732 -0.1147 -0.1066  0.3381
10124TIP3    H151863   6.058   2.743  13.741  0.1784 -0.4593  1.4767
10124TIP3    H251864   6.180   2.786  13.820  1.6542 -0.9789 -0.4365
10125TIP3   OH251865   1.552   1.835   4.019  0.1306  0.3151 -0.2565
10125TIP3    H151866   1.603   1.903   4.062 -1.0647  0.6911  0.6388
10125TIP3    H251867   1.465   1.873   4.007 -0.7228 -1.1864  0.7279
10126TIP3   OH251868   4.715   3.194  12.195  0.5554 -0.2512 -0.4277
10126TIP3    H151869   4.683   3.245  12.120 -0.2738 -0.1302  0.0023
10126TIP3    H251870   4.652   3.211  12.264  0.3686 -1.7287 -0.2173
10127TIP3   OH251871   4.725   6.463  16.978 -0.1193 -0.2114  0.4084
10127TIP3    H151872   4.663   6.536  16.974  1.5212  1.2375  0.0869
10127TIP3    H251873   4.747   6.456  17.071  0.3155  0.2770  0.3530
10128TIP3   OH251874   0.551   1.831  11.997  0.0929  0.2948  0.3096
10128TIP3    H151875   0.563   1.896  11.928  0.0898 -0.1888 -0.1571
10128TIP3    H251876   0.640   1.800  12.016 -0.0213 -0.5755 -0.4780
10129TIP3   OH251877   0.866   2.533   5.813 -0.4319 -0.4356 -0.3935
10129TIP3    H151878   0.902   2.479   5.743  0.1410 -2.8126  1.5682
10129TIP3    H251879   0.809   2.473   5.862  1.7217  0.0400  3.0593
10130TIP3   OH251880   3.612   3.671  16.243  0.0238 -0.2992  0.6182
10130TIP3    H151881   3.544   3.608  16.267 -0.5111 -0.8786 -2.1157
10130TIP3    H251882   3.601   3.684  16.149  2.0808  1.5718  0.5562
10131TIP3   OH251883   4.051   4.801  10.334  0.1217  0.0682  0.4457
10131TIP3    H151884   3.956   4.794  10.342 -0.0878  0.5423 -1.2348
10131TIP3    H251885   4.069   4.894  10.345  0.1299  0.2960 -1.2134
10132TIP3   OH251886   0.210   0.035  13.314  0.0227  0.4894 -0.8208
10132TIP3    H151887   0.285   0.073  13.360  1.0076 -2.4313  0.2127
10132TIP3    H251888   0.145   0.106  13.312  0.5458  1.3751  3.6154
10133TIP3   OH251889   4.384   0.838  13.296 -0.2700 -0.2269  0.3889
10133TIP3    H151890   4.424   0.765  13.248 -0.4053  0.5358 -0.9232
10133TIP3    H251891   4.456   0.899  13.310 -0.7182  0.6965 -1.1037
10134TIP3   OH251892   3.349   5.196   4.657 -0.4449  0.1317  0.0896
10134TIP3    H151893   3.389   5.190   4.744 -1.9302 -1.0780  0.7226
10134TIP3    H251894   3.418   5.167   4.597  0.9935  2.0954  0.6978
10135TIP3   OH251895   4.833   1.558  14.891  0.2591 -0.0769 -0.4859
10135TIP3    H151896   4.772   1.504  14.941  0.0526  1.1831  0.6842
10135TIP3    H251897   4.913   1.506  14.886  0.0059 -0.5662  0.4499
10136TIP3   OH251898   4.641   1.018   3.072 -0.4293  0.1246 -0.1166
10136TIP3    H151899   4.673   0.963   3.144  0.2928 -0.4753 -0.8767
10136TIP3    H251900   4.582   1.080   3.114 -0.3932 -0.5223  0.9258
10137TIP3   OH251901   2.823   4.983   1.520  0.3020 -0.2449 -0.1363
10137TIP3    H151902   2.839   4.926   1.444  1.6472 -2.4584  1.6591
10137TIP3    H251903   2.751   4.941   1.566  1.4499 -0.6767  1.3374
10138TIP3   OH251904   4.141   4.433  15.969  0.3166  0.5377  0.3425
10138TIP3    H151905   4.130   4.528  15.973 -0.4089  0.4220  1.4277
10138TIP3    H251906   4.202   4.413  16.040  0.7955  0.2349 -0.1487
10139TIP3   OH251907   3.617   5.945  12.347  0.5663 -0.1386 -0.2173
10139TIP3    H151908   3.558   5.870  12.345 -1.2219  1.1339  1.2824
10139TIP3    H251909   3.561   6.021  12.333  1.7569  1.1437  1.4557
10140TIP3   OH251910   1.573   6.234  15.677  0.2499  0.3139  0.1665
10140TIP3    H151911   1.486   6.273  15.687 -0.1854 -0.2839 -1.0208
10140TIP3    H251912   1.559   6.141  15.695  0.1934 -0.1366 -1.9896
10141TIP3   OH251913   1.692   4.517  11.445  0.2185  0.6572  0.0283
10141TIP3    H151914   1.772   4.559  11.413  0.8282  0.2493  0.9526
10141TIP3    H251915   1.710   4.423  11.439 -1.1943  0.4439 -2.1896
10142TIP3   OH251916   6.043   1.306   0.504 -0.2215 -0.0109  0.3772
10142TIP3    H151917   5.971   1.320   0.443 -0.4139  1.2679  0.8697
10142TIP3    H251918   6.106   1.252   0.456 -0.6548  0.4408 -0.7193
10143TIP3   OH251919   4.655   3.616  13.132  0.1992 -0.1680 -0.4346
10143TIP3    H151920   4.587   3.557  13.165 -0.2545  0.1590 -0.7940
10143TIP3    H251921   4.736   3.565  13.143 -0.2534 -1.1252 -1.3436
10144TIP3   OH251922   2.531   5.853  11.922 -0.1375  0.4327 -0.4223
10144TIP3    H151923   2.455   5.845  11.864 -1.3880  0.5001  1.1252
10144TIP3    H251924   2.586   5.779  11.898 -0.8824  0.1393 -1.3163
10145TIP3   OH251925   1.115   2.028  16.153  0.3921  0.0880 -0.0643
10145TIP3    H151926   1.159   2.100  16.109 -1.9508  1.0316 -1.0669
10145TIP3    H251927   1.134   1.952  16.099 -1.2304  0.9643 -2.0229
10146TIP3   OH251928   1.160   1.447   4.390 -0.1704 -0.5016 -0.5890
10146TIP3    H151929   1.251   1.420   4.389  0.3237  1.0392 -2.2830
10146TIP3    H251930   1.163   1.542   4.407 -1.4873 -0.4710 -0.3406
10147TIP3   OH251931   5.899   1.375  14.827  0.2700 -0.2990  0.2714
10147TIP3    H151932   5.886   1.368  14.733 -0.7202  0.8501  0.3006
10147TIP3    H251933   5.974   1.434  14.837 -0.5732  0.8050  0.2060
10148TIP3   OH251934   6.465   1.762   1.145 -0.7113  0.5332  0.2447
10148TIP3    H151935   6.428   1.677   1.171 -1.9386  1.2065  0.7901
10148TIP3    H251936   6.415   1.785   1.067 -0.2428  0.6733 -0.0141
10149TIP3   OH251937   1.121   4.097  13.019  1.3828 -0.3491  0.2727
10149TIP3    H151938   1.201   4.046  13.030  2.9497  1.9100 -0.0051
10149TIP3    H251939   1.149   4.188  13.026 -1.3357  0.5342  1.1459
10150TIP3   OH251940   0.429   4.640  11.001  0.4129  0.2680 -0.1446
10150TIP3    H151941   0.481   4.669  11.076 -0.1459  1.2689 -0.1226
10150TIP3    H251942   0.469   4.558  10.973  0.0240 -0.6758  1.8892
10151TIP3   OH251943   0.786   3.902  11.982 -0.5240  0.2656  0.4157
10151TIP3    H151944   0.733   3.876  12.057  1.5907 -1.5805  1.3619
10151TIP3    H251945   0.837   3.825  11.960 -0.1126  1.1557 -2.1393
10152TIP3   OH251946   3.177   1.309  11.000 -0.0987  0.2654  0.4000
10152TIP3    H151947   3.215   1.261  10.926  1.7220  1.7188  0.3125
10152TIP3    H251948   3.240   1.298  11.070  0.3820  2.4437  0.3774
10153TIP3   OH251949   4.835   2.631  14.643  0.4102 -0.0525  0.9238
10153TIP3    H151950   4.904   2.573  14.673 -0.9229 -1.3745  1.5594
10153TIP3    H251951   4.772   2.634  14.715 -1.7099 -1.3948 -0.7542
10154TIP3   OH251952   4.669   5.073  11.477  0.7854  0.6130  0.4902
10154TIP3    H151953   4.746   5.131  11.483  1.2805  0.1191 -0.6759
10154TIP3    H251954   4.608   5.107  11.541  2.3554  0.4533  2.1537
10155TIP3   OH251955   5.185   5.679  12.850  0.4464 -0.0439 -0.0642
10155TIP3    H151956   5.267   5.712  12.813 -0.1158  0.2019 -1.1329
10155TIP3    H251957   5.140   5.637  12.776 -0.6477  0.3479  0.3501
10156TIP3   OH251958   0.051   0.615   4.317  0.2215  0.2108 -0.8892
10156TIP3    H151959   0.143   0.592   4.311 -0.1852 -2.6017  1.4768
10156TIP3    H251960   0.051   0.701   4.361  1.7312 -0.3507  0.2971
10157TIP3   OH251961   5.664   2.311   1.270 -0.7413 -0.1112  0.1029
10157TIP3    H151962   5.596   2.319   1.203 -0.6733 -1.2080 -0.1093
10157TIP3    H251963   5.616   2.319   1.353 -0.9176  0.5886 -0.0598
10158TIP3   OH251964   4.820   1.275   2.965 -0.3568 -0.0445  0.6474
10158TIP3    H151965   4.743   1.296   3.018 -1.1176 -1.2463  0.0445
10158TIP3    H251966   4.821   1.180   2.961 -0.7849 -0.0077 -2.1454
10159TIP3   OH251967   2.301   0.843  13.454 -0.4821  0.6713  1.2319
10159TIP3    H151968   2.211   0.876  13.459  0.1383  2.9131 -0.5937
10159TIP3    H251969   2.299   0.781  13.380 -0.9539 -1.0682  2.6387
10160TIP3   OH251970   2.544   5.664  14.043  0.2569 -0.0712 -0.4199
10160TIP3    H151971   2.522   5.590  13.986  0.2251  0.9679 -1.7852
10160TIP3    H251972   2.606   5.716  13.992  0.0026  1.0489  0.3860
10161TIP3   OH251973   4.179   3.016   4.756  0.9333 -0.0409  0.2471
10161TIP3    H151974   4.267   2.987   4.732  1.0763  0.2580  0.4148
10161TIP3    H251975   4.160   3.087   4.696  1.5986  1.2366  1.4765
10162TIP3   OH251976   2.615   5.410   3.631 -0.4757  0.0796 -0.1581
10162TIP3    H151977   2.676   5.366   3.571  0.5754  0.6917  0.4379
10162TIP3    H251978   2.588   5.489   3.583 -0.6659 -0.0953 -0.3442
10163TIP3   OH251979   4.026   2.490  16.609 -0.6890  0.1791 -0.1058
10163TIP3    H151980   4.034   2.495  16.514 -0.6338  0.5436 -0.0831
10163TIP3    H251981   4.064   2.405  16.631 -0.8223  0.0349 -0.4220
10164TIP3   OH251982   3.779   3.253   3.536  0.1718 -0.2625  0.5862
10164TIP3    H151983   3.801   3.206   3.616 -0.0363 -0.1105  0.7356
10164TIP3    H251984   3.706   3.310   3.561 -1.0299 -1.4331 -0.1026
10165TIP3   OH251985   0.616   2.537   3.173  0.3748 -0.0547 -0.4746
10165TIP3    H151986   0.668   2.594   3.116  1.4665 -0.6593 -0.1013
10165TIP3    H251987   0.640   2.563   3.262  0.9634 -1.1663 -0.3013
10166TIP3   OH251988   0.252   4.660   6.038 -0.1738 -0.1548  0.2621
10166TIP3    H151989   0.182   4.601   6.009 -0.7068  1.1539 -1.2653
10166TIP3    H251990   0.205   4.734   6.076  0.4843 -0.5551  1.9366
10167TIP3   OH251991   1.415   0.896  10.879  0.8291  0.3840  0.0292
10167TIP3    H151992   1.507   0.871  10.887  0.5531 -1.3317 -1.4273
10167TIP3    H251993   1.417   0.981  10.836  1.7303  0.3269 -0.0733
10168TIP3   OH251994   4.674   0.169  10.681  0.0423 -0.2925 -0.3003
10168TIP3    H151995   4.639   0.256  10.703  0.4553 -0.7217  2.3338
10168TIP3    H251996   4.597   0.112  10.681 -0.0286 -0.2005 -0.5527
10169TIP3   OH251997   0.678   2.023  11.252  0.6108 -0.2527  0.6631
10169TIP3    H151998   0.684   2.118  11.259 -1.5509 -0.1555  2.0191
10169TIP3    H251999   0.661   2.007  11.159 -0.0288  0.7781  0.5869
10170TIP3   OH252000   5.460   0.853   6.442 -0.3341 -0.0818 -0.0265
10170TIP3    H152001   5.378   0.804   6.431  0.0656 -0.6541 -0.5094
10170TIP3    H252002   5.470   0.862   6.537 -1.3130  0.6068  0.0251
10171TIP3   OH252003   5.145   4.275   0.787 -0.1650 -0.2362 -0.3303
10171TIP3    H152004   5.160   4.186   0.755  1.9796 -0.1345  0.2463
10171TIP3    H252005   5.193   4.280   0.869 -0.2748  1.4426 -0.3279
10172TIP3   OH252006   4.793   4.417   2.239 -0.1847  0.3327 -0.7738
10172TIP3    H152007   4.842   4.397   2.160  3.2923  1.1612  0.9690
10172TIP3    H252008   4.814   4.509   2.258 -2.3977  0.7184  0.1889
10173TIP3   OH252009   1.087   5.603   1.649  0.0260  0.7269 -0.4463
10173TIP3    H152010   1.139   5.526   1.670 -1.6966 -0.9206 -1.8574
10173TIP3    H252011   1.039   5.579   1.570 -0.5471  3.2894 -0.9788
10174TIP3   OH252012   2.812   3.563  13.763 -0.1080 -0.4294 -0.3789
10174TIP3    H152013   2.896   3.517  13.773 -0.6622 -1.6061 -0.9418
10174TIP3    H252014   2.759   3.533  13.837  0.3943  1.3781  0.7811
10175TIP3   OH252015   1.259   1.876   0.471  0.9133 -0.0127 -0.5785
10175TIP3    H152016   1.284   1.794   0.428 -0.3563 -0.4837 -0.4418
10175TIP3    H252017   1.232   1.851   0.559 -0.9693  0.3229 -1.0235
10176TIP3   OH252018   2.490   5.648   3.286 -0.4263 -0.2310  0.2982
10176TIP3    H152019   2.498   5.578   3.222 -0.4925  0.3608 -0.3665
10176TIP3    H252020   2.420   5.704   3.253  1.9423  2.1262 -1.1313
10177TIP3   OH252021   6.830   4.200  17.066  0.4172  0.2220  0.7437
10177TIP3    H152022   6.795   4.121  17.107 -1.2504  1.0562  0.9934
10177TIP3    H252023   6.846   4.174  16.975 -2.1748  0.1162  0.2338
10178TIP3   OH252024   0.398   5.944   3.436 -0.2625 -0.2498  0.5024
10178TIP3    H152025   0.489   5.928   3.413 -0.9981 -1.9827 -1.6593
10178TIP3    H252026   0.389   5.912   3.525  0.8448 -1.9130  0.0595
10179TIP3   OH252027   1.914   3.399  11.386  0.1674  0.2036 -0.5785
10179TIP3    H152028   1.869   3.315  11.376 -0.7783  0.7888 -1.3849
10179TIP3    H252029   1.985   3.396  11.322  1.0373 -0.5349  0.3797
10180TIP3   OH252030   6.393   3.149   0.913 -0.0553  0.7871 -0.7999
10180TIP3    H152031   6.350   3.099   0.983  0.4240  1.9421  0.3552
10180TIP3    H252032   6.464   3.092   0.884  0.0719  0.5149  0.0253
10181TIP3   OH252033   0.867   5.956   0.550 -0.1354  0.0781  0.9146
10181TIP3    H152034   0.925   5.882   0.566 -0.8415 -0.1235  2.7758
10181TIP3    H252035   0.840   5.946   0.459  2.2975 -0.1109  0.1357
10182TIP3   OH252036   3.033   0.872   3.988 -0.1969 -0.5417  0.2546
10182TIP3    H152037   2.973   0.906   3.922  0.3155 -1.8924 -0.9492
10182TIP3    H252038   3.114   0.921   3.974  0.1703 -1.4009 -0.6861
10183TIP3   OH252039   6.813   5.713  11.892 -0.2299 -0.0909 -0.2646
10183TIP3    H152040   6.887   5.698  11.950  0.0481  0.0005 -0.5911
10183TIP3    H252041   6.775   5.626  11.879 -0.6586 -0.0261  0.5307
10184TIP3   OH252042   2.535   2.673  14.697  0.6122 -0.5643  0.2206
10184TIP3    H152043   2.557   2.581  14.681  1.8647 -0.2702  0.1152
10184TIP3    H252044   2.447   2.683  14.660  0.3881 -1.7542  0.3855
10185TIP3   OH252045   3.447   0.597  12.178 -0.2456 -0.3709 -0.2904
10185TIP3    H152046   3.403   0.675  12.143  1.7824  1.1222  0.3349
10185TIP3    H252047   3.489   0.627  12.258  0.7361 -2.0807 -0.1323
10186TIP3   OH252048   0.466   0.628   0.230  0.0473 -0.0731  0.3073
10186TIP3    H152049   0.378   0.664   0.223 -0.0715 -0.6696 -2.6586
10186TIP3    H252050   0.465   0.551   0.174  2.1780 -0.7330  1.0702
10187TIP3   OH252051   5.483   6.697   5.948 -0.4863  0.3827  0.7830
10187TIP3    H152052   5.440   6.619   5.913  0.0558  0.5952 -0.3949
10187TIP3    H252053   5.411   6.752   5.980 -0.9360 -0.1481  0.7063
10188TIP3   OH252054   0.038   3.906  15.055 -0.3177  0.0753 -0.4517
10188TIP3    H152055   0.048   3.883  14.962 -1.7201 -0.2335 -0.5428
10188TIP3    H252056   0.011   3.998  15.053 -2.3673 -0.4812 -0.4852
10189TIP3   OH252057   2.646   3.981  15.555  0.3555 -0.2280  0.0404
10189TIP3    H152058   2.613   3.983  15.644  1.5486 -1.5624  0.5515
10189TIP3    H252059   2.736   4.015  15.561  0.3041  0.0889 -0.7354
10190TIP3   OH252060   0.221   5.655  17.104 -0.1019  0.4378 -0.2810
10190TIP3    H152061   0.201   5.697  17.188 -1.6375  0.8281 -0.8104
10190TIP3    H252062   0.310   5.684  17.083  0.3505  0.2456  1.2499
10191TIP3   OH252063   2.855   5.985   1.540  0.3409 -0.7423  0.9383
10191TIP3    H152064   2.866   5.907   1.594  0.1443 -0.0218  2.0716
10191TIP3    H252065   2.910   6.051   1.583  0.2807 -0.1850  0.1688
10192TIP3   OH252066   5.560   5.725   1.530  0.0043  0.4849 -0.0521
10192TIP3    H152067   5.636   5.689   1.577  0.5937  0.8787 -0.6813
10192TIP3    H252068   5.513   5.648   1.497  1.8470  0.2091 -2.3247
10193TIP3   OH252069   6.391   1.771  14.076  0.0097  0.3206  0.5341
10193TIP3    H152070   6.484   1.757  14.098 -0.1595  0.3791  1.3025
10193TIP3    H252071   6.358   1.682  14.060  0.6521  0.4267 -1.7033
10194TIP3   OH252072   2.096   2.985   0.778 -0.3466  0.1227 -0.9174
10194TIP3    H152073   2.163   3.053   0.770  0.1456 -0.2326  0.0234
10194TIP3    H252074   2.032   3.022   0.839 -0.2615 -0.1079 -0.6866
10195TIP3   OH252075   4.666   5.110   3.971  0.5903  0.7008 -0.0684
10195TIP3    H152076   4.602   5.105   3.900 -0.7519  1.2187  1.0694
10195TIP3    H252077   4.749   5.087   3.929 -0.5320 -1.4849 -1.2626
10196TIP3   OH252078   1.158   3.894   5.179  0.7279  0.8429  0.0302
10196TIP3    H152079   1.077   3.874   5.133  1.6036 -1.1587 -0.7531
10196TIP3    H252080   1.132   3.902   5.271 -0.4524  0.9674 -0.2935
10197TIP3   OH252081   0.535   3.863  10.442 -0.1631 -0.3721 -0.6498
10197TIP3    H152082   0.514   3.865  10.348  1.1631 -1.0020 -0.9756
10197TIP3    H252083   0.630   3.859  10.445 -0.0762  1.4437  0.7564
10198TIP3   OH252084   4.090   6.846  16.884 -0.3700 -0.5804  0.8656
10198TIP3    H152085   4.132   6.902  16.818  0.5096 -1.3130  0.7849
10198TIP3    H252086   4.141   6.861  16.964 -1.5531  0.4563  1.4547
10199TIP3   OH252087   4.679   4.285   3.022 -0.3571 -0.1522  0.5925
10199TIP3    H152088   4.656   4.359   2.966  1.7393  0.2478  0.1762
10199TIP3    H252089   4.701   4.215   2.960 -1.0346 -0.7116  0.9743
10200TIP3   OH252090   3.215   4.158   5.658 -0.0312  0.5562 -0.0307
10200TIP3    H152091   3.222   4.202   5.743 -0.1992 -1.5776  1.1608
10200TIP3    H252092   3.303   4.125   5.641 -0.1944  0.2457 -0.2711
10201TIP3   OH252093   5.248   5.808  16.469 -0.6867  0.1460  0.3314
10201TIP3    H152094   5.228   5.787  16.561 -1.4320 -0.0591  0.1224
10201TIP3    H252095   5.206   5.739  16.419 -2.7579  1.8106 -0.3441
10202TIP3   OH252096   1.904   1.761   3.528  0.4320  0.1738 -0.8197
10202TIP3    H152097   1.851   1.686   3.555 -0.0067  0.5385 -0.6516
10202TIP3    H252098   1.994   1.727   3.525  0.6072  0.2311  1.6779
10203TIP3   OH252099   6.263   2.677  15.976 -0.2247  0.6529  0.5286
10203TIP3    H152100   6.242   2.763  16.013  0.2955  0.6316  0.8834
10203TIP3    H252101   6.326   2.639  16.037 -0.6415 -0.0884  0.5028
10204TIP3   OH252102   5.238   5.590   2.865  0.0013 -0.3989 -1.0444
10204TIP3    H152103   5.185   5.511   2.856  0.0124 -0.4190 -0.9326
10204TIP3    H252104   5.183   5.651   2.913  0.6901 -1.0077  0.5925
10205TIP3   OH252105   1.142   6.152   2.442  0.2439  0.1154 -0.2630
10205TIP3    H152106   1.109   6.231   2.400  0.3956  0.5830  0.4732
10205TIP3    H252107   1.233   6.172   2.464  0.3951 -0.3982 -0.4042
10206TIP3   OH252108   1.469   3.797   5.542  0.4864  0.3236 -0.4897
10206TIP3    H152109   1.428   3.872   5.586 -2.0462 -0.7312 -0.9410
10206TIP3    H252110   1.538   3.837   5.488  2.6744  1.8275  2.9914
10207TIP3   OH252111   2.930   2.707  12.456  0.1918 -0.4366  0.0162
10207TIP3    H152112   2.923   2.783  12.398  1.9880  0.0232  0.3512
10207TIP3    H252113   2.971   2.640  12.402 -2.7064 -1.7564 -0.7458
10208TIP3   OH252114   2.758   6.611   5.524 -0.1860  0.2991 -0.3316
10208TIP3    H152115   2.711   6.663   5.458 -0.8772  0.4949  0.2961
10208TIP3    H252116   2.728   6.521   5.510 -1.2595  0.5084  0.4595
10209TIP3   OH252117   0.815   5.171   0.095  0.7096  0.2392  0.0827
10209TIP3    H152118   0.875   5.163   0.020 -0.8717  1.5551 -1.4053
10209TIP3    H252119   0.741   5.115   0.073 -0.0064  1.0441  0.3895
10210TIP3   OH252120   1.860   3.876  13.501 -0.4113  0.5340 -0.3316
10210TIP3    H152121   1.810   3.847  13.424 -1.0068  0.4280  0.0926
10210TIP3    H252122   1.936   3.920  13.464  0.3140 -1.1923 -0.9992
10211TIP3   OH252123   2.063   3.316  12.930  0.3371 -0.1635 -0.0059
10211TIP3    H152124   2.150   3.357  12.926  0.5948 -0.6172  0.6840
10211TIP3    H252125   2.055   3.269  12.847  1.5128 -1.5770  0.6297
10212TIP3   OH252126   0.608   2.173   2.855 -0.0844  0.0884 -0.9061
10212TIP3    H152127   0.639   2.083   2.855  0.5099  0.2939 -1.0087
10212TIP3    H252128   0.546   2.177   2.782 -0.2248 -0.2721 -0.8081
10213TIP3   OH252129   0.157   1.033  10.756  0.1704  0.0223 -0.4576
10213TIP3    H152130   0.145   0.956  10.812  0.7514 -0.7658 -1.3805
10213TIP3    H252131   0.080   1.033  10.699  0.3247 -0.0551 -0.6651
10214TIP3   OH252132   3.464   1.257   2.691  0.4377  0.2934 -0.0262
10214TIP3    H152133   3.554   1.225   2.688 -0.1158 -1.5702  1.2315
10214TIP3    H252134   3.452   1.307   2.610  2.3577 -0.0526 -0.5514
10215TIP3   OH252135   2.935   1.233   4.154  0.1928  0.0727  0.1874
10215TIP3    H152136   2.874   1.268   4.219 -0.5105 -2.0342  0.7213
10215TIP3    H252137   3.018   1.276   4.175 -0.6362  1.4823  0.7141
10216TIP3   OH252138   0.321   4.377  13.860  0.2329  0.1821  0.4684
10216TIP3    H152139   0.400   4.351  13.908  0.9172 -2.4963 -1.8314
10216TIP3    H252140   0.350   4.387  13.770 -1.8910 -0.0758 -0.2976
10217TIP3   OH252141   1.181   4.675  13.920  0.7873 -0.1759  0.3924
10217TIP3    H152142   1.254   4.735  13.908  1.3345 -0.6546  1.2066
10217TIP3    H252143   1.189   4.612  13.849 -0.2972  1.1698 -0.9953
10218TIP3   OH252144   5.562   2.968  16.784 -0.1409 -0.3601 -0.7273
10218TIP3    H152145   5.647   3.010  16.769 -0.3624  0.5644  0.4989
10218TIP3    H252146   5.583   2.875  16.798  1.0442  0.2628  2.4193
10219TIP3   OH252147   1.633   1.669  14.633  0.3017  0.3588 -0.2242
10219TIP3    H152148   1.689   1.721  14.691  0.0014  0.2443  0.1796
10219TIP3    H252149   1.548   1.668  14.678  0.2337 -0.2594 -0.3613
10220TIP3   OH252150   6.274   6.586   4.943 -0.2640 -0.3586 -0.1880
10220TIP3    H152151   6.334   6.516   4.968 -0.6369 -0.6080  0.0158
10220TIP3    H252152   6.307   6.617   4.859 -0.3547 -1.0820 -0.4953
10221TIP3   OH252153   1.126   3.781  13.317  0.5592 -0.3372 -0.0694
10221TIP3    H152154   1.067   3.779  13.242  2.3168 -1.5897 -1.5053
10221TIP3    H252155   1.214   3.778  13.279  1.5201 -0.8262  2.0387
10222TIP3   OH252156   5.896   0.845   3.982 -0.2363 -0.0842 -0.5898
10222TIP3    H152157   5.864   0.852   3.892 -0.9919  0.4770 -0.2849
10222TIP3    H252158   5.960   0.915   3.991  0.0292 -0.3006 -0.7598
10223TIP3   OH252159   4.474   0.917   4.046  0.2930  0.0455  0.5599
10223TIP3    H152160   4.517   0.988   3.999  1.3045 -0.4411  0.7172
10223TIP3    H252161   4.488   0.840   3.991  0.9157 -0.4002  1.3317
10224TIP3   OH252162   1.051   2.311  14.348  0.2595 -0.1741  0.1522
10224TIP3    H152163   1.087   2.223  14.340  0.8265  0.1473 -1.0569
10224TIP3    H252164   1.107   2.354  14.413  0.3247 -0.5170  0.3275
10225TIP3   OH252165   1.135   5.301   2.137 -0.4017  0.4202 -0.4454
10225TIP3    H152166   1.168   5.390   2.147 -1.0345  0.4831  1.4180
10225TIP3    H252167   1.086   5.302   2.055 -1.4185  2.1384  0.1405
10226TIP3   OH252168   3.228   5.158  15.855 -0.2345  0.3626 -0.2815
10226TIP3    H152169   3.151   5.206  15.886 -0.8005 -0.8626  0.2860
10226TIP3    H252170   3.283   5.225  15.815 -1.8653  1.1757 -1.2647
10227TIP3   OH252171   1.138   4.684  10.873 -0.0604 -0.4372 -0.1971
10227TIP3    H152172   1.181   4.765  10.902  0.2994 -0.8889  0.5758
10227TIP3    H252173   1.194   4.650  10.804 -0.9303  0.6604 -1.4988
10228TIP3   OH252174   5.790   4.909  13.658 -0.2072  0.3979 -0.6705
10228TIP3    H152175   5.825   4.966  13.726 -1.8265 -0.0739  0.6204
10228TIP3    H252176   5.866   4.860  13.627  0.5995  0.6904  0.7496
10229TIP3   OH252177   0.353   6.778   4.015  0.2216  0.0469 -0.1041
10229TIP3    H152178   0.437   6.750   3.979  0.1074 -0.5666  0.0976
10229TIP3    H252179   0.297   6.700   4.009  0.9386 -0.9667  3.7157
10230TIP3   OH252180   6.279   0.906  16.080 -0.1273 -0.1228  0.1417
10230TIP3    H152181   6.317   0.854  16.009  0.3115  1.0698 -0.5248
10230TIP3    H252182   6.188   0.918  16.054 -0.3211 -0.8237  0.4695
10231TIP3   OH252183   1.317   5.692  13.497 -0.4617  0.1544  0.0942
10231TIP3    H152184   1.343   5.616  13.550  0.6960  0.0672 -0.5530
10231TIP3    H252185   1.277   5.654  13.418 -1.4987  0.2681  0.5517
10232TIP3   OH252186   1.224   0.593   4.798  0.8602 -0.2434  0.0376
10232TIP3    H152187   1.253   0.503   4.817 -1.5328 -1.8167 -2.8059
10232TIP3    H252188   1.136   0.597   4.834  0.6390  0.6687 -0.5880
10233TIP3   OH252189   1.217   5.551   2.132  0.5653  0.4584 -0.2417
10233TIP3    H152190   1.244   5.571   2.221 -2.3154  1.5640  0.5224
10233TIP3    H252191   1.168   5.628   2.104 -0.4946 -0.7367 -1.9118
10234TIP3   OH252192   0.697   2.707   2.502 -0.0589  0.3307 -0.1024
10234TIP3    H152193   0.607   2.673   2.497 -0.3517  0.6570  1.8919
10234TIP3    H252194   0.740   2.649   2.565  0.6360  1.1575  0.1986
10235TIP3   OH252195   5.257   2.577  14.349 -0.3224  0.1779 -0.1153
10235TIP3    H152196   5.247   2.495  14.396  0.5838 -0.3511 -0.8119
10235TIP3    H252197   5.219   2.561  14.262 -1.2850  0.9021  0.1510
10236TIP3   OH252198   3.665   6.679  15.097  0.0169  0.3813  0.7376
10236TIP3    H152199   3.572   6.703  15.093  0.1410  0.8332  0.4384
10236TIP3    H252200   3.708   6.743  15.040  0.3095 -0.9077 -0.5161
10237TIP3   OH252201   6.205   1.624   6.202  0.7386 -0.3021 -0.1590
10237TIP3    H152202   6.273   1.598   6.265 -0.7364  0.2108  1.7433
10237TIP3    H252203   6.193   1.717   6.217  0.5965 -0.0916 -1.4820
10238TIP3   OH252204   1.977   4.776   5.181 -0.2357 -0.2764  0.8113
10238TIP3    H152205   1.997   4.855   5.233 -5.6488  2.0960 -0.0295
10238TIP3    H252206   2.002   4.799   5.092 -1.7171  0.5419  0.5834
10239TIP3   OH252207   0.030   5.080   1.230 -0.7466 -0.4415  0.2624
10239TIP3    H152208  -0.004   5.170   1.227  0.0661 -0.1330  0.2156
10239TIP3    H252209   0.029   5.058   1.323  0.3032  0.1087  0.4190
10240TIP3   OH252210   3.199   0.618   1.958 -0.0978  0.3366  0.2749
10240TIP3    H152211   3.201   0.583   2.047 -0.6530 -0.0875  0.1266
10240TIP3    H252212   3.250   0.556   1.907  2.2954  1.8242  0.6959
10241TIP3   OH252213   1.606   5.012  16.047  0.6403  0.0279  0.6573
10241TIP3    H152214   1.681   5.062  16.079 -0.4306  2.0737  0.1179
10241TIP3    H252215   1.540   5.078  16.026  0.2300 -1.3498 -3.0717
10242TIP3   OH252216   1.593   4.013  10.656  0.8515 -0.0603 -0.3076
10242TIP3    H152217   1.549   4.051  10.579 -0.9997 -0.8728  0.2761
10242TIP3    H252218   1.666   4.072  10.673 -0.5218  1.9342 -0.8367
10243TIP3   OH252219   6.333   6.586  11.472  0.4381  0.2405  0.1599
10243TIP3    H152220   6.335   6.492  11.490 -2.1372  0.1043  0.0459
10243TIP3    H252221   6.426   6.612  11.470  1.2998 -2.5371 -1.2903
10244TIP3   OH252222   5.261   4.843   4.001 -0.2368  0.4156 -0.4323
10244TIP3    H152223   5.261   4.886   4.086  0.3884 -0.8869  0.2606
10244TIP3    H252224   5.350   4.855   3.968 -0.0901 -0.2201 -0.2828
10245TIP3   OH252225   5.081   5.562  11.165 -0.2843 -0.4617  0.3885
10245TIP3    H152226   5.067   5.486  11.222  1.1041 -1.3701 -0.4399
10245TIP3    H252227   5.133   5.529  11.092 -2.7157  0.4710 -1.9304
10246TIP3   OH252228   3.717   6.786   5.836  0.4019  0.0124 -0.5474
10246TIP3    H152229   3.650   6.720   5.820  1.1077 -0.4237 -1.8388
10246TIP3    H252230   3.668   6.868   5.845 -0.3568 -0.4082 -0.7647
10247TIP3   OH252231   5.588   5.053  11.054 -0.1499 -0.4980 -0.6622
10247TIP3    H152232   5.625   5.142  11.060 -0.1971 -0.4612 -0.8891
10247TIP3    H252233   5.624   5.018  10.972 -0.5061 -0.5134 -0.8156
10248TIP3   OH252234   3.925   2.678  14.006  1.1575  0.4218 -0.0529
10248TIP3    H152235   4.002   2.630  13.973  1.0955 -0.3090  0.8292
10248TIP3    H252236   3.955   2.719  14.087  0.5758  0.0009  0.3826
10249TIP3   OH252237   4.663   6.136   1.851 -0.4488  0.2781  0.2605
10249TIP3    H152238   4.676   6.120   1.758  0.6550  0.4361  0.3810
10249TIP3    H252239   4.708   6.065   1.895  4.1105  3.1044  0.7851
10250TIP3   OH252240   4.633   4.700   0.217  0.3700 -0.0853  0.3175
10250TIP3    H152241   4.715   4.748   0.208 -0.2355  1.1629  1.2825
10250TIP3    H252242   4.566   4.759   0.182 -0.1955 -0.9081 -0.0435
10251TIP3   OH252243   5.372   1.292  16.343 -0.5268 -0.1531 -0.1809
10251TIP3    H152244   5.356   1.214  16.396 -1.2494  0.6762  0.8611
10251TIP3    H252245   5.311   1.357  16.376 -1.3281  0.2841 -2.3501
10252TIP3   OH252246   5.748   5.012  16.871 -0.5135 -0.0124  0.3348
10252TIP3    H152247   5.753   5.105  16.896 -0.1708  0.1820 -0.4106
10252TIP3    H252248   5.840   4.986  16.860 -0.5433 -0.8024  1.7670
10253TIP3   OH252249   4.589   1.368  11.929 -0.3090 -0.3147 -0.0851
10253TIP3    H152250   4.667   1.423  11.937 -1.1789  0.9385 -0.0113
10253TIP3    H252251   4.546   1.398  11.849 -1.6517  0.2546  0.8203
10254TIP3   OH252252   4.935   2.849   2.231  0.1253  0.4243  0.9986
10254TIP3    H152253   4.845   2.874   2.211  0.2106  1.0166  1.3446
10254TIP3    H252254   4.946   2.764   2.188 -0.7488  0.1184  1.3630
10255TIP3   OH252255   5.481   2.236   2.242 -0.1877 -0.1024 -0.6244
10255TIP3    H152256   5.499   2.142   2.237  0.1394 -0.0779 -0.0291
10255TIP3    H252257   5.568   2.277   2.237 -0.1337  0.0759  1.1143
10256TIP3   OH252258   2.305   3.575   3.081 -0.3940  0.2094  0.0046
10256TIP3    H152259   2.223   3.578   3.129 -0.3740  1.9883 -0.0305
10256TIP3    H252260   2.372   3.562   3.149 -0.4936  1.3033  0.3322
10257TIP3   OH252261   6.317   1.217   5.491 -0.0613  0.0209 -1.1631
10257TIP3    H152262   6.301   1.200   5.584 -0.0853  0.3468 -1.1086
10257TIP3    H252263   6.412   1.221   5.483 -0.0443 -0.4852 -1.2365
10258TIP3   OH252264   3.774   3.669  13.632  0.2726  0.0959  0.4373
10258TIP3    H152265   3.687   3.698  13.605  0.6946  0.6852 -0.3050
10258TIP3    H252266   3.826   3.668  13.551  0.5180 -1.9126  0.5468
10259TIP3   OH252267   4.834   6.620   1.311  0.5078  0.1789  0.5198
10259TIP3    H152268   4.748   6.662   1.316  0.2251 -0.4420  0.9884
10259TIP3    H252269   4.882   6.653   1.387  0.6073  0.3462  0.3864
10260TIP3   OH252270   2.736   4.689   4.538 -0.0082  0.0025  0.0752
10260TIP3    H152271   2.751   4.759   4.601  1.0339  0.0127 -0.1729
10260TIP3    H252272   2.801   4.622   4.560  0.3497 -0.0105 -0.9542
10261TIP3   OH252273   2.375   2.843  14.455 -0.3392  0.2282  0.2389
10261TIP3    H152274   2.342   2.908  14.517  1.4652  1.3626  0.0909
10261TIP3    H252275   2.470   2.853  14.459 -0.0783 -1.4950 -0.7925
10262TIP3   OH252276   2.233   3.020   3.058  0.1258 -0.5481  0.2949
10262TIP3    H152277   2.241   3.113   3.037 -0.5692 -0.3477  0.8471
10262TIP3    H252278   2.208   2.979   2.976  2.2422 -0.5508 -0.4052
10263TIP3   OH252279   6.396   3.609   4.833  0.1321  0.0232  0.2795
10263TIP3    H152280   6.457   3.620   4.760  0.3238  2.5764  0.7177
10263TIP3    H252281   6.452   3.608   4.911 -0.2182 -0.1784  0.5293
10264TIP3   OH252282   6.171   0.927  15.718 -0.0347 -0.4024  0.5174
10264TIP3    H152283   6.209   1.012  15.743 -0.8355 -0.2833  1.3895
10264TIP3    H252284   6.221   0.863  15.768 -0.3751 -0.3176  0.9754
10265TIP3   OH252285   6.317   2.925   4.242 -0.1916  0.7056 -0.2962
10265TIP3    H152286   6.234   2.898   4.281 -0.3045  0.6560 -0.5662
10265TIP3    H252287   6.315   2.888   4.154  1.4869 -2.0324  0.6771
10266TIP3   OH252288   0.501   5.881   4.142  0.3631  0.4198 -0.3304
10266TIP3    H152289   0.434   5.896   4.209  0.1904  1.1497 -0.6562
10266TIP3    H252290   0.454   5.832   4.073  0.3046  0.4612 -0.3201
10267TIP3   OH252291   3.766   1.327  15.186 -0.5346 -0.0564  0.0927
10267TIP3    H152292   3.719   1.318  15.103  0.5274  0.7046 -0.6211
10267TIP3    H252293   3.791   1.238  15.210  1.4257 -0.0948 -1.8020
10268TIP3   OH252294   2.474   6.465   1.854  0.5058 -0.3374  0.2823
10268TIP3    H152295   2.407   6.526   1.823  0.9840  0.5893  1.0012
10268TIP3    H252296   2.425   6.390   1.887 -0.2716  0.7111  1.6299
10269TIP3   OH252297   5.273   0.022  13.779  0.1078 -0.1957  0.4225
10269TIP3    H152298   5.310   0.012  13.692 -0.5685  0.5467  0.0272
10269TIP3    H252299   5.276  -0.065  13.818  0.2520 -0.5638 -0.4076
10270TIP3   OH252300   6.613   6.484   3.157  0.5739 -0.1880  0.1917
10270TIP3    H152301   6.586   6.516   3.070  1.6364  0.6533  0.1545
10270TIP3    H252302   6.542   6.511   3.215  0.6408  0.7413 -0.1397
10271TIP3   OH252303   1.871   6.254  10.384 -0.4726 -0.4095 -0.3999
10271TIP3    H152304   1.861   6.349  10.383 -1.0140 -0.4650 -0.3062
10271TIP3    H252305   1.811   6.224  10.452 -1.5694 -0.9583 -1.5840
10272TIP3   OH252306   6.469   5.146   1.519  0.1829  0.0550 -0.2853
10272TIP3    H152307   6.473   5.240   1.502  0.7846  0.1063  0.1278
10272TIP3    H252308   6.472   5.107   1.432  1.4004  0.3805 -0.4108
10273TIP3   OH252309   0.379   2.602  12.026  0.3281  0.0277 -0.5911
10273TIP3    H152310   0.327   2.557  11.959 -0.1928 -1.1309  0.5500
10273TIP3    H252311   0.399   2.534  12.090  2.3242  0.7115 -0.4242
10274TIP3   OH252312   0.356   5.146   0.594 -0.6043  0.6182  0.5699
10274TIP3    H152313   0.326   5.237   0.586 -0.4717  0.7028  0.9838
10274TIP3    H252314   0.330   5.105   0.512 -0.6746  1.0290  0.3813
10275TIP3   OH252315   0.447   2.408  11.162 -0.4027 -0.8247  0.1258
10275TIP3    H152316   0.454   2.465  11.086  0.4029 -1.4875 -0.3139
10275TIP3    H252317   0.386   2.453  11.221 -0.3699  0.1045 -0.5376
10276TIP3   OH252318   1.463   6.246  11.195  0.0266  0.8605  0.1695
10276TIP3    H152319   1.537   6.255  11.136 -0.6288 -1.8597 -1.2472
10276TIP3    H252320   1.391   6.292  11.152  0.5810  2.6449  1.0627
10277TIP3   OH252321   0.674   1.895  15.251  0.1816  1.0064 -0.2914
10277TIP3    H152322   0.744   1.902  15.186 -0.5500 -0.0595 -1.2408
10277TIP3    H252323   0.594   1.883  15.199 -0.2909 -0.9497  0.7980
10278TIP3   OH252324   2.046   4.573  10.261  0.0029 -0.0377  0.3824
10278TIP3    H152325   2.024   4.662  10.290 -2.5558 -0.5212  0.1499
10278TIP3    H252326   1.970   4.544  10.211  1.6001 -1.6702 -1.2504
10279TIP3   OH252327   3.155   4.348   5.350  0.2160 -0.3532 -0.0506
10279TIP3    H152328   3.150   4.253   5.364 -2.9372 -0.4319 -0.8456
10279TIP3    H252329   3.094   4.384   5.415  0.3342  1.0021 -0.6625
10280TIP3   OH252330   3.311   2.856  13.517 -0.9213  0.0031  0.2750
10280TIP3    H152331   3.289   2.890  13.604 -4.1577  0.5118 -0.5918
10280TIP3    H252332   3.243   2.791  13.500 -0.3861 -0.0623 -1.8876
10281TIP3   OH252333   5.418   4.010   1.020  1.0468  0.3396 -0.0718
10281TIP3    H152334   5.430   4.022   0.926 -1.0120  1.0368 -0.2987
10281TIP3    H252335   5.366   4.086   1.047 -0.1943 -0.9255  1.2114
10282TIP3   OH252336   3.961   1.324  16.884 -0.1356  0.3638  0.0252
10282TIP3    H152337   3.917   1.261  16.827  0.2608  1.0879 -1.1083
10282TIP3    H252338   4.047   1.337  16.844  0.7100 -0.1497  1.5696
10283TIP3   OH252339   4.419   4.527   4.984  0.1338 -0.4082  0.2458
10283TIP3    H152340   4.453   4.600   5.036 -1.0044  1.5996 -1.6419
10283TIP3    H252341   4.440   4.449   5.035  3.2768  1.0254  1.3828
10284TIP3   OH252342   6.365   4.227   3.245 -0.2287 -0.2805 -0.2294
10284TIP3    H152343   6.296   4.187   3.298  0.9503 -1.9419  0.1517
10284TIP3    H252344   6.352   4.321   3.254 -3.0569 -0.5066 -1.0192
10285TIP3   OH252345   1.367   1.662  16.164 -0.5361  0.3006  0.4895
10285TIP3    H152346   1.404   1.741  16.203 -0.6496  0.9582 -0.7070
10285TIP3    H252347   1.281   1.654  16.204 -0.3820  0.5792  0.8827
10286TIP3   OH252348   0.157   0.071  10.608  0.2805 -0.0165  0.5469
10286TIP3    H152349   0.090   0.132  10.638  1.4229 -0.1440  3.7588
10286TIP3    H252350   0.140  -0.010  10.657 -0.7039 -2.1332 -2.9989
10287TIP3   OH252351   6.599   2.023   0.257 -0.4226 -0.4536  0.0188
10287TIP3    H152352   6.541   2.004   0.183 -0.5539  1.0516 -0.2922
10287TIP3    H252353   6.674   1.965   0.244  0.1848  0.7095 -2.0682
10288TIP3   OH252354   5.865   4.998  12.047  0.0457  0.2176  0.5991
10288TIP3    H152355   5.787   5.046  12.018  0.3582 -0.0940 -0.8623
10288TIP3    H252356   5.866   4.920  11.991  1.4888  0.2997  0.4778
10289TIP3   OH252357   3.022   4.178  14.938  0.0305  0.6702  0.2419
10289TIP3    H152358   3.038   4.143  14.850 -1.4522 -3.9817  1.5483
10289TIP3    H252359   2.927   4.187  14.944 -0.1891 -1.8618  2.1218
10290TIP3   OH252360   3.712   3.543   6.512  0.5608  0.3546  0.0470
10290TIP3    H152361   3.639   3.585   6.465  1.3192  1.8020  0.1082
10290TIP3    H252362   3.675   3.518   6.597 -0.1593  0.0008 -0.3578
10291TIP3   OH252363   2.140   3.749  13.515 -0.0729 -0.7435 -0.2122
10291TIP3    H152364   2.129   3.841  13.539  0.4384 -0.3791 -1.3365
10291TIP3    H252365   2.157   3.705  13.598  0.6488  0.3227  0.2224
10292TIP3   OH252366   4.075   3.422   4.708 -0.0689  0.1489 -0.4455
10292TIP3    H152367   4.049   3.502   4.755  0.1789 -0.7411  1.3010
10292TIP3    H252368   4.167   3.437   4.686 -0.6715  1.3380 -2.3831
10293TIP3   OH252369   1.077   2.178   1.825 -0.9498  0.7219  0.5329
10293TIP3    H152370   1.069   2.263   1.868 -0.4411 -0.4020  3.0915
10293TIP3    H252371   1.150   2.188   1.764 -1.2941  2.2608  0.3366
10294TIP3   OH252372   0.689   0.175   3.349 -0.0420  0.5569 -0.2849
10294TIP3    H152373   0.739   0.189   3.269  1.0296 -0.4392  0.1892
10294TIP3    H252374   0.668   0.082   3.349  1.6993  0.0804  1.5258
10295TIP3   OH252375   5.748   2.359   2.260 -0.2480  0.0395  0.1321
10295TIP3    H152376   5.796   2.292   2.309 -1.5597 -3.4771 -2.9332
10295TIP3    H252377   5.803   2.378   2.185 -0.8328  0.8361 -0.1074
10296TIP3   OH252378   5.517   1.632   5.200 -0.0528 -0.4501 -0.6290
10296TIP3    H152379   5.426   1.603   5.209  0.0423 -0.8557 -0.9253
10296TIP3    H252380   5.549   1.639   5.290 -0.9598  1.6585 -0.4219
10297TIP3   OH252381   2.849   0.279   2.818 -0.1589 -0.2918 -0.9585
10297TIP3    H152382   2.875   0.231   2.896 -0.9151  1.3646  0.3799
10297TIP3    H252383   2.786   0.222   2.774 -2.2996  0.0139  1.4545
10298TIP3   OH252384   6.461   4.116  10.690 -0.0613  0.0670  0.4508
10298TIP3    H152385   6.460   4.076  10.603 -0.7066 -0.4685  0.6937
10298TIP3    H252386   6.390   4.072  10.737 -0.8669  1.5590  0.7051
10299TIP3   OH252387   4.670   5.053   4.330  0.0200 -0.5087 -0.3152
10299TIP3    H152388   4.575   5.061   4.319  0.2095  0.5567 -1.4699
10299TIP3    H252389   4.692   5.121   4.394  0.1098  0.0129 -0.8772
10300TIP3   OH252390   0.499   5.469   4.827 -0.5700 -0.5731 -0.0132
10300TIP3    H152391   0.426   5.516   4.786 -0.3538 -1.3982 -1.3827
10300TIP3    H252392   0.499   5.383   4.786  0.1785 -1.1598  1.1506
10301TIP3   OH252393   4.964   5.975  12.092  0.2721  0.0049 -0.1324
10301TIP3    H152394   4.881   5.930  12.077  1.4237 -2.4475  0.2864
10301TIP3    H252395   4.939   6.061  12.126 -2.0844  0.1063 -1.8360
10302TIP3   OH252396   0.437   0.734   2.300 -0.3118  0.0655  0.5870
10302TIP3    H152397   0.394   0.764   2.220  0.3205  2.2886  0.9987
10302TIP3    H252398   0.374   0.752   2.370 -0.7057 -1.4966  0.6632
10303TIP3   OH252399   1.679   4.608  12.201 -0.2670  0.0426  0.3635
10303TIP3    H152400   1.641   4.696  12.203 -0.6865 -0.1483  0.8691
10303TIP3    H252401   1.727   4.605  12.118 -0.5367  0.6280  0.1807
10304TIP3   OH252402   4.774   0.294  15.531  0.2080 -0.1871 -0.8645
10304TIP3    H152403   4.766   0.389  15.521  0.3542 -0.0745  0.0142
10304TIP3    H252404   4.869   0.278  15.536  0.2202 -0.4763 -1.8426
10305TIP3   OH252405   5.105   5.075  10.464 -0.2793 -0.2832 -0.3812
10305TIP3    H152406   5.170   5.122  10.517 -2.4946  1.6425  0.8145
10305TIP3    H252407   5.112   4.984  10.492  0.4582  0.2407  1.2692
10306TIP3   OH252408   5.182   6.061  16.377 -0.2540  0.2170 -0.1160
10306TIP3    H152409   5.201   6.131  16.440 -0.7766  0.0925  0.1913
10306TIP3    H252410   5.184   5.981  16.429 -2.5378  0.2769  0.1821
10307TIP3   OH252411   0.007   3.412   0.876 -0.6079 -0.4858 -0.3380
10307TIP3    H152412   0.005   3.353   0.951  1.9747  0.0850  0.2729
10307TIP3    H252413   0.001   3.500   0.913  0.8229 -0.1894 -0.7121
10308TIP3   OH252414   4.766   4.024   0.552  0.0571 -0.4708  0.2561
10308TIP3    H152415   4.709   3.997   0.479  0.0745  0.0136  0.0577
10308TIP3    H252416   4.717   4.094   0.595  1.5051  1.7240 -1.3947
10309TIP3   OH252417   5.080   3.993   0.892  0.0018 -0.0520 -0.0672
10309TIP3    H152418   5.164   3.961   0.860 -0.9779 -1.5283 -1.3401
10309TIP3    H252419   5.016   3.959   0.830 -1.4770  1.8269  0.3067
10310TIP3   OH252420   2.079   5.280   3.924  0.2400 -0.3866 -0.1753
10310TIP3    H152421   2.006   5.327   3.885  0.5814  0.1115 -0.2390
10310TIP3    H252422   2.121   5.346   3.980 -1.8593 -1.7546  3.3197
10311TIP3   OH252423   0.483   5.990  15.814 -0.2024 -0.1661 -0.5083
10311TIP3    H152424   0.461   6.000  15.907  0.7096 -1.9625 -0.0509
10311TIP3    H252425   0.553   6.054  15.798 -1.6391  1.5014 -0.5059
10312TIP3   OH252426   0.125   1.224   3.180 -0.0083 -0.2677 -1.0673
10312TIP3    H152427   0.137   1.311   3.140  0.4516  1.1406  1.8274
10312TIP3    H252428   0.214   1.195   3.200 -0.2745  0.3201  1.2097
10313TIP3   OH252429   1.899   6.178  15.906 -0.6654 -0.0884  0.1608
10313TIP3    H152430   1.895   6.242  15.835  2.1703 -1.5988 -1.5646
10313TIP3    H252431   1.956   6.219  15.971  0.1018 -0.2872 -0.3640
10314TIP3   OH252432   2.038   0.913   3.544 -0.5510  0.1720  0.4585
10314TIP3    H152433   1.973   0.937   3.478  1.1510  0.8153 -1.0553
10314TIP3    H252434   2.023   0.820   3.560 -2.1679  0.4238  0.5477
10315TIP3   OH252435   1.883   1.055   5.557  0.4682  0.0002  0.0337
10315TIP3    H152436   1.920   0.970   5.579  1.4616 -0.3345 -2.5675
10315TIP3    H252437   1.866   1.097   5.642 -0.3559 -2.8563  1.3909
10316TIP3   OH252438   2.496   5.562   3.904  0.2212  0.4270  0.0879
10316TIP3    H152439   2.411   5.550   3.861  0.7340 -0.0343 -0.8360
10316TIP3    H252440   2.548   5.487   3.876  1.7363  1.9094 -1.3629
10317TIP3   OH252441   2.867   5.188   4.174  0.0395 -0.0662 -0.3081
10317TIP3    H152442   2.842   5.269   4.218  0.5642  1.1420 -2.1049
10317TIP3    H252443   2.963   5.190   4.172  0.0286  0.1854 -1.8966
10318TIP3   OH252444   2.549   5.080   5.407 -0.1621  0.1528  0.3936
10318TIP3    H152445   2.614   5.013   5.429  0.5363  0.5815 -0.2929
10318TIP3    H252446   2.464   5.036   5.417  0.2460 -0.5252  0.9378
10319TIP3   OH252447   6.345   1.268   4.659  0.3842 -0.8206 -0.0717
10319TIP3    H152448   6.274   1.205   4.669  0.9686 -1.7232 -1.4244
10319TIP3    H252449   6.320   1.341   4.717 -0.5018 -2.0798  1.2092
10320TIP3   OH252450   4.811   1.262   4.912  0.2897  0.0993 -0.1807
10320TIP3    H152451   4.824   1.204   4.988 -2.4943 -1.0459 -0.4441
10320TIP3    H252452   4.733   1.227   4.869 -0.2401  2.7992 -1.6270
10321TIP3   OH252453   4.705   2.492  12.237  0.4338  0.0271  0.1181
10321TIP3    H152454   4.673   2.582  12.246  0.0398 -0.0998  0.0530
10321TIP3    H252455   4.691   2.452  12.323  0.5626  0.0150  0.1336
10322TIP3   OH252456   5.104   3.436  16.488 -0.6896 -0.0005  0.4597
10322TIP3    H152457   5.061   3.481  16.415 -0.7931 -1.6300 -0.5165
10322TIP3    H252458   5.197   3.441  16.468 -0.8009 -2.4392 -1.0766
10323TIP3   OH252459   6.586   1.967   3.171  0.2142  0.0558  0.6715
10323TIP3    H152460   6.573   1.991   3.262 -1.1099 -0.2757  0.5836
10323TIP3    H252461   6.619   1.877   3.175  0.6559  0.2191  0.8272
10324TIP3   OH252462   5.059   1.380  14.893 -0.8557  0.2012 -0.8375
10324TIP3    H152463   5.043   1.342  14.979  1.7837 -1.3648 -0.9427
10324TIP3    H252464   5.107   1.460  14.910 -0.9759  0.2754 -0.8441
10325TIP3   OH252465   3.696   5.473   2.103 -0.0374 -0.1814 -0.2177
10325TIP3    H152466   3.667   5.515   2.022  1.3637 -1.5856 -1.4985
10325TIP3    H252467   3.759   5.534   2.141 -1.9474  1.2906  0.8037
10326TIP3   OH252468   2.983   1.886   5.173 -0.5073 -0.5395  0.1026
10326TIP3    H152469   3.064   1.900   5.125  0.3137  0.9798  1.8097
10326TIP3    H252470   2.942   1.811   5.130  1.1242 -0.4888 -1.6506
10327TIP3   OH252471   5.754   0.801   3.737  0.5019 -0.4336 -0.3633
10327TIP3    H152472   5.762   0.881   3.686 -1.9619  1.2548  1.6531
10327TIP3    H252473   5.667   0.767   3.715  0.4618 -1.0931  0.7438
10328TIP3   OH252474   3.413   3.782  14.413 -0.0148  0.4922  0.7645
10328TIP3    H152475   3.482   3.832  14.457  3.0160 -1.7743 -1.0411
10328TIP3    H252476   3.404   3.703  14.466 -2.4609  1.3918  1.8236
10329TIP3   OH252477   4.750   4.378   1.445  0.1748 -0.8080  0.0863
10329TIP3    H152478   4.670   4.334   1.474  0.6439 -2.0722 -0.4641
10329TIP3    H252479   4.723   4.429   1.368  0.1464 -2.3188 -0.9422
10330TIP3   OH252480   4.074   4.487   4.242  0.2461 -0.2309 -0.1826
10330TIP3    H152481   4.025   4.543   4.302 -0.1160 -0.3634 -0.3521
10330TIP3    H252482   4.121   4.548   4.186 -2.9838  0.1247 -2.8287
10331TIP3   OH252483   6.474   2.756  11.976  0.0735 -0.2889  0.3461
10331TIP3    H152484   6.543   2.810  12.015 -0.2001 -0.7442  1.5298
10331TIP3    H252485   6.408   2.818  11.946  0.4506  0.1006  0.3178
10332TIP3   OH252486   3.984   6.455   3.028 -0.1658  0.2340  0.1522
10332TIP3    H152487   3.988   6.491   2.939  0.2568  0.1216  0.1206
10332TIP3    H252488   4.068   6.409   3.039 -0.1823  0.3140  0.6372
10333TIP3   OH252489   0.737   4.519   6.272  0.0491  0.2009  0.2712
10333TIP3    H152490   0.760   4.444   6.218  0.1814  0.5436 -0.1577
10333TIP3    H252491   0.643   4.513   6.283  0.0135  0.1548 -0.0447
10334TIP3   OH252492   1.913   4.630   2.945 -0.4480  0.0371 -0.1179
10334TIP3    H152493   1.875   4.551   2.984 -0.6360  0.0757 -0.2245
10334TIP3    H252494   2.008   4.615   2.948 -0.4809 -0.1604 -0.0702
10335TIP3   OH252495   3.019   3.054  11.225 -0.5461  0.0564  0.0156
10335TIP3    H152496   3.055   3.116  11.161  0.9027 -0.9315 -0.1764
10335TIP3    H252497   2.971   2.990  11.172  0.5526 -0.6937 -0.1031
10336TIP3   OH252498   5.511   4.236   2.539 -0.0896  0.2314  0.1294
10336TIP3    H152499   5.480   4.169   2.478 -0.0657  0.8931 -0.6426
10336TIP3    H252500   5.563   4.189   2.603 -0.1211 -0.4954 -0.3664
10337TIP3   OH252501   0.331   1.749   5.413  0.1472 -0.5624  0.2108
10337TIP3    H152502   0.400   1.699   5.371  2.2166  1.4687  0.9844
10337TIP3    H252503   0.298   1.807   5.344 -1.6020 -2.2316 -0.4365
10338TIP3   OH252504   3.400   0.174  12.192 -0.5233 -0.2174 -0.7183
10338TIP3    H152505   3.481   0.124  12.198 -0.4782 -0.1664 -0.9175
10338TIP3    H252506   3.331   0.108  12.203 -0.4787 -0.4237 -1.5908
10339TIP3   OH252507   5.241   3.584  16.960 -0.2320 -0.0520 -0.3192
10339TIP3    H152508   5.257   3.634  17.040 -2.6668  1.1771 -0.4970
10339TIP3    H252509   5.256   3.493  16.985 -1.7846  0.1960  1.8359
10340TIP3   OH252510   5.144   2.851   4.631  0.4838  0.1690  0.1050
10340TIP3    H152511   5.183   2.767   4.654  1.3510  1.0667  2.1264
10340TIP3    H252512   5.052   2.831   4.615  0.5849 -1.1078  0.9470
10341TIP3   OH252513   3.328   0.813  16.113  0.7201  0.3104 -0.6213
10341TIP3    H152514   3.280   0.894  16.130  0.2119 -0.2527  0.7052
10341TIP3    H252515   3.287   0.778  16.034 -1.7006 -0.5778  0.9108
10342TIP3   OH252516   5.582   6.096   0.592  0.5193 -0.3918  0.0870
10342TIP3    H152517   5.528   6.091   0.513 -1.3487  0.6883  1.2307
10342TIP3    H252518   5.600   6.004   0.614 -0.9696 -0.8131 -0.2807
10343TIP3   OH252519   2.901   5.882  14.206  0.2975 -0.6761 -0.8357
10343TIP3    H152520   2.869   5.962  14.165  0.6226 -0.7749 -1.2924
10343TIP3    H252521   2.988   5.906  14.240 -0.2603 -0.3892  0.4553
10344TIP3   OH252522   4.777   1.099  14.780 -0.5783  0.3180 -0.1833
10344TIP3    H152523   4.781   1.046  14.701  1.0963  1.3712 -0.8612
10344TIP3    H252524   4.855   1.073  14.830 -1.4872 -0.1712  1.0529
10345TIP3   OH252525   1.905   5.941   0.274 -0.5541 -0.4207 -0.0438
10345TIP3    H152526   1.842   5.931   0.202 -0.7939 -0.7142  0.2062
10345TIP3    H252527   1.943   6.027   0.260  1.8876 -1.7392 -2.5160
10346TIP3   OH252528   2.046   4.448   2.601 -0.3802 -0.6376  0.3483
10346TIP3    H152529   1.987   4.522   2.611 -1.3046 -1.2185 -0.6147
10346TIP3    H252530   2.047   4.406   2.687 -0.3717  0.0899  0.7125
10347TIP3   OH252531   5.767   2.520  16.899 -0.6630  0.1858  0.2867
10347TIP3    H152532   5.674   2.527  16.877  0.1241  2.7033 -3.1041
10347TIP3    H252533   5.799   2.447  16.846 -0.5752 -0.2674  0.9582
10348TIP3   OH252534   4.969   5.911   4.015  0.2282  0.1199 -1.0464
10348TIP3    H152535   5.015   5.866   3.945 -1.0077 -0.5341 -1.4723
10348TIP3    H252536   4.964   5.848   4.086 -0.8636 -0.1900 -1.3745
10349TIP3   OH252537   3.647   4.310  13.899 -0.3446  0.1409 -0.8441
10349TIP3    H152538   3.620   4.233  13.851  1.9290  0.0435 -2.1280
10349TIP3    H252539   3.687   4.367  13.833  1.3010  0.7764  0.6082
10350TIP3   OH252540   3.767   5.291   1.207 -0.0357  0.9306 -0.0692
10350TIP3    H152541   3.855   5.266   1.178  0.3813  0.8245  1.2102
10350TIP3    H252542   3.770   5.387   1.212 -0.2705  0.9810 -0.8530
10351TIP3   OH252543   6.394   5.431   2.062 -0.0037  0.3035 -0.1259
10351TIP3    H152544   6.449   5.500   2.099  0.8522 -0.0675 -0.6825
10351TIP3    H252545   6.384   5.455   1.970  1.6587 -1.1408 -0.7208
10352TIP3   OH252546   2.428   5.121   1.660 -0.2504  0.4584 -0.0709
10352TIP3    H152547   2.342   5.080   1.650  0.2947 -0.5496 -0.8413
10352TIP3    H252548   2.468   5.113   1.574  2.1303 -2.6742  1.1386
10353TIP3   OH252549   3.733   0.754   4.651 -0.0325 -0.2814 -0.4603
10353TIP3    H152550   3.709   0.830   4.703  0.2899 -0.2746 -0.3196
10353TIP3    H252551   3.668   0.688   4.674  0.8508 -0.7089  0.9424
10354TIP3   OH252552   2.900   1.481   1.050 -0.1763  0.4427  0.1417
10354TIP3    H152553   2.964   1.538   1.007 -0.1786 -0.0594 -0.5454
10354TIP3    H252554   2.826   1.538   1.069  0.2895  0.9271  0.5241
10355TIP3   OH252555   2.441   5.752   1.680  0.3118 -0.5395  0.0073
10355TIP3    H152556   2.358   5.746   1.631 -0.7570 -3.2828  1.9036
10355TIP3    H252557   2.472   5.661   1.685  2.8702  0.2905  0.3571
10356TIP3   OH252558   0.097   5.411  11.006 -0.3774  0.6045 -0.8676
10356TIP3    H152559   0.036   5.340  11.025 -0.2267  0.4743 -0.8717
10356TIP3    H252560   0.180   5.368  10.988  0.5950  0.8943  2.3122
10357TIP3   OH252561   5.664   0.985  12.834  0.3706 -0.0949 -0.1454
10357TIP3    H152562   5.675   1.079  12.821  1.3550 -0.2039 -0.1373
10357TIP3    H252563   5.570   0.974  12.851  0.6646  1.2833  3.0737
10358TIP3   OH252564   4.396   5.700   0.614  0.3884 -0.1557 -0.4949
10358TIP3    H152565   4.401   5.662   0.526  3.1749  1.8740 -1.3438
10358TIP3    H252566   4.324   5.763   0.609 -0.7418 -1.4074 -0.6717
10359TIP3   OH252567   4.994   1.661   3.859  0.6111 -0.1888 -0.1715
10359TIP3    H152568   4.930   1.729   3.838  0.0726 -0.6872 -0.1632
10359TIP3    H252569   5.015   1.620   3.776  1.2176  0.2253 -0.2289
10360TIP3   OH252570   5.628   2.239   5.256  0.4343 -0.6862  0.0294
10360TIP3    H152571   5.588   2.316   5.296  0.1314 -1.5290  1.3984
10360TIP3    H252572   5.644   2.179   5.329  1.3185 -1.6403 -0.9152
10361TIP3   OH252573   0.425   2.424   6.130  0.0813 -0.2902 -0.2579
10361TIP3    H152574   0.401   2.499   6.183 -1.4694 -1.2222  0.4074
10361TIP3    H252575   0.364   2.426   6.056 -0.4978 -1.3114  0.1730
10362TIP3   OH252576   5.126   4.814  15.474  0.3668  0.0691 -0.1112
10362TIP3    H152577   5.221   4.822  15.472  0.3245  0.8114  0.3381
10362TIP3    H252578   5.101   4.847  15.561 -0.2427 -0.7698  0.0432
10363TIP3   OH252579   6.826   4.711  12.549 -0.2065  0.1949 -0.4300
10363TIP3    H152580   6.800   4.621  12.531  0.5056 -0.5475  1.9268
10363TIP3    H252581   6.918   4.716  12.522 -0.2263  0.2110 -0.4961
10364TIP3   OH252582   1.474   4.653   0.141 -0.3245 -0.5031 -0.6311
10364TIP3    H152583   1.453   4.584   0.078 -0.6810 -1.6132  0.6573
10364TIP3    H252584   1.569   4.645   0.155 -0.7643 -3.0770  2.0102
10365TIP3   OH252585   1.107   5.706  11.277  0.6427  0.1098  0.2583
10365TIP3    H152586   1.097   5.616  11.245  1.9343 -0.5640  1.6216
10365TIP3    H252587   1.178   5.743  11.224  0.3737  0.1910 -0.0438
10366TIP3   OH252588   0.291   2.038   1.113 -0.0121 -0.6598 -0.1187
10366TIP3    H152589   0.352   2.008   1.180 -0.3392 -0.8959  0.0810
10366TIP3    H252590   0.209   1.992   1.134 -0.4778  0.2412  0.1006
10367TIP3   OH252591   5.457   0.273   1.732 -0.0212  0.7101 -0.2609
10367TIP3    H152592   5.371   0.235   1.716  1.2610 -1.5007 -2.6789
10367TIP3    H252593   5.475   0.255   1.824 -0.8962 -1.6725 -0.4802
10368TIP3   OH252594   2.984   1.608   4.229 -0.3743  0.1103  0.3096
10368TIP3    H152595   2.924   1.605   4.155 -0.5110  0.4133  0.4076
10368TIP3    H252596   3.070   1.589   4.191 -0.2514  1.5131 -0.1401
10369TIP3   OH252597   1.830   6.652  11.568  0.0941  0.5656  0.3481
10369TIP3    H152598   1.925   6.654  11.576  0.0930 -1.4953  1.3400
10369TIP3    H252599   1.807   6.742  11.543  2.2784  1.1018  0.0450
10370TIP3   OH252600   3.393   2.836   3.255 -0.1322 -0.3416  0.2425
10370TIP3    H152601   3.350   2.759   3.293 -1.1314  0.4210  0.7043
10370TIP3    H252602   3.323   2.880   3.205 -0.1902  1.4303  1.7676
10371TIP3   OH252603   4.857   2.422  13.115 -0.3325  0.4547 -0.0803
10371TIP3    H152604   4.768   2.414  13.148 -0.7010  2.4213 -0.5014
10371TIP3    H252605   4.912   2.418  13.193 -0.8043 -0.2747  0.2271
10372TIP3   OH252606   3.959   1.769  13.620 -0.4105 -0.2067 -0.6668
10372TIP3    H152607   3.865   1.755  13.627 -0.3994 -0.0953 -0.2611
10372TIP3    H252608   3.984   1.807  13.704 -0.1012  0.3135 -0.9836
10373TIP3   OH252609   5.362   5.409   3.674  0.8924  0.2555 -0.8835
10373TIP3    H152610   5.367   5.325   3.720  1.5190  0.4960 -0.4827
10373TIP3    H252611   5.421   5.399   3.600  2.0151  0.7627 -0.0962
10374TIP3   OH252612   6.058   0.559   5.834 -0.2886 -0.3131  0.2286
10374TIP3    H152613   6.152   0.555   5.817 -0.3968 -0.3241 -0.4088
10374TIP3    H252614   6.050   0.603   5.919  0.2284  1.0633 -0.4039
10375TIP3   OH252615   4.610   1.942  14.188 -0.2425  0.1871  0.2451
10375TIP3    H152616   4.638   1.914  14.275 -2.6702  1.0525  1.3841
10375TIP3    H252617   4.556   1.870  14.156 -1.4540  0.9218  0.5764
10376TIP3   OH252618   0.947   3.293  11.449 -0.1140  0.3374 -0.1093
10376TIP3    H152619   0.897   3.228  11.498  0.6962 -0.4143 -0.2617
10376TIP3    H252620   0.945   3.372  11.504 -1.6247  0.4011 -0.2083
10377TIP3   OH252621   0.048   2.956  13.100 -0.2864  0.3688  0.1250
10377TIP3    H152622   0.120   2.990  13.153 -0.5685 -1.0937  1.5395
10377TIP3    H252623   0.080   2.872  13.066 -0.6942  0.5355 -0.7078
10378TIP3   OH252624   4.230   0.549   3.233  0.5340 -0.4429 -0.1734
10378TIP3    H152625   4.301   0.602   3.198  0.9522 -0.4604  0.6387
10378TIP3    H252626   4.150   0.593   3.203  0.8708 -0.4946 -1.1988
10379TIP3   OH252627   1.995   4.180   1.863 -0.4892  0.4369  0.2102
10379TIP3    H152628   2.012   4.230   1.943  1.7051 -2.1261  1.4949
10379TIP3    H252629   1.961   4.096   1.894  0.0267 -0.4761 -1.5624
10380TIP3   OH252630   3.856   2.316   2.250 -0.6081  0.1990 -0.1991
10380TIP3    H152631   3.809   2.375   2.308 -0.2220 -0.7222  1.1079
10380TIP3    H252632   3.791   2.251   2.224 -1.0361  1.1517 -1.6464
10381TIP3   OH252633   3.380   6.426   4.391  0.1322  0.2900 -0.3821
10381TIP3    H152634   3.345   6.337   4.384  0.1544  0.2088  0.4967
10381TIP3    H252635   3.436   6.435   4.314  1.4186 -1.0405  0.3564
10382TIP3   OH252636   1.724   3.079  12.032 -0.0604  0.2003  0.0278
10382TIP3    H152637   1.657   3.101  11.968  0.7082 -0.1490 -0.9273
10382TIP3    H252638   1.794   3.143  12.016  0.8772 -0.9575 -0.6902
10383TIP3   OH252639   3.251   3.385  12.442 -0.2700  0.3869 -0.5542
10383TIP3    H152640   3.159   3.363  12.430 -0.2299 -0.8193  1.1102
10383TIP3    H252641   3.287   3.388  12.353 -2.0537  1.6935 -1.2804
10384TIP3   OH252642   6.011   1.813  15.308 -0.0062  0.1071  0.3623
10384TIP3    H152643   6.005   1.851  15.220 -1.3261 -0.5176  0.1622
10384TIP3    H252644   6.069   1.738  15.298  0.3493  0.4034  0.1668
10385TIP3   OH252645   2.436   3.910  16.965 -0.7821 -0.0274 -0.2697
10385TIP3    H152646   2.507   3.886  16.906 -2.6918  0.0681 -2.7689
10385TIP3    H252647   2.409   3.998  16.937  0.3051  1.4952  2.9435
10386TIP3   OH252648   6.803   5.651   3.767 -0.8780 -0.2103 -0.1072
10386TIP3    H152649   6.733   5.607   3.718 -1.2266 -0.0416  0.2262
10386TIP3    H252650   6.849   5.704   3.702 -1.4289  0.1263 -0.2327
10387TIP3   OH252651   5.919   3.424  12.766  0.0341 -0.3883  0.2660
10387TIP3    H152652   5.921   3.517  12.747 -0.1264 -0.4616 -0.1306
10387TIP3    H252653   6.009   3.401  12.786  0.0312 -0.0980  0.6271
10388TIP3   OH252654   3.779   6.536  15.769  0.4355 -0.4208 -0.0047
10388TIP3    H152655   3.743   6.601  15.708  0.4761  0.0761  0.4856
10388TIP3    H252656   3.859   6.576  15.802 -0.8440  0.4653  2.2604
10389TIP3   OH252657   3.913   5.607   4.448  0.1083  0.4014 -0.1808
10389TIP3    H152658   3.913   5.512   4.456 -1.5660  0.5502  2.8652
10389TIP3    H252659   3.993   5.635   4.491  0.2349  0.4058 -0.4185
10390TIP3   OH252660   3.878   2.762  13.496 -0.1053 -0.3219  0.0585
10390TIP3    H152661   3.903   2.844  13.539  0.5287 -1.1355  1.3172
10390TIP3    H252662   3.953   2.741  13.440 -0.8699  0.6630 -1.3947
10391TIP3   OH252663   4.694   4.516   0.020 -0.3261 -0.1408  0.1060
10391TIP3    H152664   4.783   4.535  -0.007  0.4624 -1.7572  1.4030
10391TIP3    H252665   4.682   4.566   0.101  0.1915 -1.5416  1.0879
10392TIP3   OH252666   6.555   1.845   5.181 -0.0726  0.9325 -0.2001
10392TIP3    H152667   6.609   1.905   5.232  0.6863  0.8066 -0.8454
10392TIP3    H252668   6.474   1.894   5.164 -0.8837  0.5417  2.1543
10393TIP3   OH252669   2.599   3.647  16.820 -0.0201 -0.4986 -1.0521
10393TIP3    H152670   2.681   3.676  16.780  0.3635  0.9156  0.6579
10393TIP3    H252671   2.606   3.672  16.912 -2.8634  0.7948 -1.0716
10394TIP3   OH252672   3.695   3.736  15.978  0.1322  0.0219  0.0181
10394TIP3    H152673   3.693   3.698  15.890  1.4698 -0.8885  0.3502
10394TIP3    H252674   3.675   3.829  15.964 -1.3692 -0.4302 -1.0291
10395TIP3   OH252675   2.108   6.354   2.792 -0.1005  0.6229 -0.4853
10395TIP3    H152676   2.124   6.261   2.776 -0.3151  0.6940 -1.1586
10395TIP3    H252677   2.170   6.399   2.735 -1.1336  0.8903 -1.4478
10396TIP3   OH252678   1.521   6.836  11.363 -0.8100 -0.3638  0.6233
10396TIP3    H152679   1.528   6.763  11.424 -0.2952 -0.1888  0.7809
10396TIP3    H252680   1.562   6.910  11.409 -1.8502  0.1849  0.7045
10397TIP3   OH252681   5.750   2.707  13.502 -0.2301 -0.0492 -0.1913
10397TIP3    H152682   5.672   2.762  13.496 -0.8365 -0.8143  0.4736
10397TIP3    H252683   5.724   2.634  13.559 -0.0994 -2.1437 -2.6617
10398TIP3   OH252684   0.110   3.838   1.177 -0.2308 -0.0423  0.3881
10398TIP3    H152685   0.070   3.793   1.102 -0.9388 -0.4222  0.9807
10398TIP3    H252686   0.202   3.848   1.153 -0.2095 -1.1719 -0.0555
10399TIP3   OH252687   0.572   1.137   6.188  0.6805  0.2829 -0.8296
10399TIP3    H152688   0.610   1.104   6.270 -1.0394  0.9488  0.3167
10399TIP3    H252689   0.603   1.227   6.182  0.2599  0.4536 -0.5199
10400TIP3   OH252690   0.723   3.314  10.693  0.2319  0.2683  0.6002
10400TIP3    H152691   0.752   3.237  10.740  0.2741 -1.9048 -2.6750
10400TIP3    H252692   0.803   3.364  10.675  0.1931  1.2358  2.7859
10401TIP3   OH252693   1.417   0.734  11.818  0.1154  0.1110 -0.0222
10401TIP3    H152694   1.411   0.663  11.882 -1.3395 -0.1367 -0.4017
10401TIP3    H252695   1.464   0.696  11.744 -0.5630 -0.4478 -0.1803
10402TIP3   OH252696   5.838   5.383   6.278  0.0162  0.4735  0.1811
10402TIP3    H152697   5.911   5.429   6.321  1.8970 -0.5670 -1.7167
10402TIP3    H252698   5.771   5.451   6.267  1.9526  2.3554 -0.8342
10403TIP3   OH252699   0.779   0.967  15.097 -0.4062  0.0185 -0.0438
10403TIP3    H152700   0.850   0.903  15.089 -3.3208 -3.3079 -3.0026
10403TIP3    H252701   0.713   0.923  15.150 -2.1386  0.8562 -1.3970
10404TIP3   OH252702   3.900   2.391  13.375  0.4746 -0.1312 -0.3692
10404TIP3    H152703   3.954   2.465  13.404 -0.8787  0.4428  0.8202
10404TIP3    H252704   3.910   2.325  13.444 -1.6008  0.6551  0.7754
10405TIP3   OH252705   3.367   3.015  13.310  0.1266  0.1460 -0.4798
10405TIP3    H152706   3.359   2.943  13.372 -0.5000  0.4516 -0.1880
10405TIP3    H252707   3.461   3.034  13.307  0.0915  0.7328  1.0935
10406TIP3   OH252708   0.958   2.028  14.347  0.3401  0.0845 -0.8609
10406TIP3    H152709   1.004   2.013  14.264 -0.2538 -3.3743 -0.6995
10406TIP3    H252710   0.867   2.006  14.328  0.3278 -1.5583  0.8515
10407TIP3   OH252711   5.945   2.585  17.105 -0.4706 -0.7982  0.1959
10407TIP3    H152712   5.983   2.670  17.083 -1.6409  0.2666  2.0371
10407TIP3    H252713   5.873   2.575  17.042  0.7771 -1.3270 -1.2086
10408TIP3   OH252714   1.758   0.294  16.313  0.0095  0.7328 -0.0585
10408TIP3    H152715   1.770   0.283  16.407  0.9171 -0.5318 -0.2845
10408TIP3    H252716   1.725   0.383  16.302  0.2221  1.0095  1.4237
10409TIP3   OH252717   5.568   3.400   6.562 -0.2453 -0.3433 -0.3079
10409TIP3    H152718   5.529   3.448   6.488  1.5004 -0.5370 -1.4109
10409TIP3    H252719   5.529   3.440   6.640  0.7196  2.5558 -1.1914
10410TIP3   OH252720   0.962   2.928   3.856 -0.3387 -0.2996 -0.2079
10410TIP3    H152721   1.032   2.935   3.920  0.2855  1.5336 -1.0335
10410TIP3    H252722   0.979   2.845   3.811  1.7545  0.4465 -0.8883
10411TIP3   OH252723   4.534   5.960   5.582  0.1797  0.1737 -0.0244
10411TIP3    H152724   4.473   5.888   5.568  0.2071  0.3120 -0.8874
10411TIP3    H252725   4.483   6.025   5.630  0.1936 -0.4576  0.8746
10412TIP3   OH252726   4.466   6.082   5.245  0.0292 -0.0013  0.1386
10412TIP3    H152727   4.511   5.999   5.229  0.5337  0.0811  1.0749
10412TIP3    H252728   4.375   6.065   5.222 -0.0088 -1.0137  0.9772
10413TIP3   OH252729   4.910   4.782   0.553 -0.1130 -1.1415 -0.1707
10413TIP3    H152730   4.969   4.795   0.628 -0.8866  0.7607  0.1660
10413TIP3    H252731   4.837   4.841   0.570 -0.2588 -0.5847 -2.4842
10414TIP3   OH252732   3.351   4.732  15.254  0.1890 -0.4407 -0.4126
10414TIP3    H152733   3.284   4.691  15.309 -0.3041 -0.5298 -1.0729
10414TIP3    H252734   3.323   4.715  15.165  1.0367 -0.3730 -0.7007
10415TIP3   OH252735   2.318   1.153   5.956  0.1532 -0.1840  0.1027
10415TIP3    H152736   2.393   1.201   5.922 -0.2587  1.1990  1.0235
10415TIP3    H252737   2.263   1.137   5.879  0.9054 -0.3259 -0.4167
10416TIP3   OH252738   5.711   1.761  10.368  0.4340  0.2018 -0.6006
10416TIP3    H152739   5.764   1.834  10.338 -1.7526  0.9982 -2.7919
10416TIP3    H252740   5.652   1.800  10.433 -0.2926  0.2569 -1.2885
10417TIP3   OH252741   2.679   4.863   4.977 -0.1275 -0.1775  0.2418
10417TIP3    H152742   2.772   4.865   4.952  0.2774  1.2075  1.6540
10417TIP3    H252743   2.678   4.819   5.061 -0.4749  1.3715  1.0881
10418TIP3   OH252744   6.825   3.663   0.984 -1.2714  0.1726  0.5088
10418TIP3    H152745   6.732   3.639   0.990 -0.9629 -1.1389  0.3868
10418TIP3    H252746   6.826   3.738   0.925 -2.1990 -0.2330 -0.0654
10419TIP3   OH252747   5.608   0.825  13.798 -0.3450  0.0821  1.0888
10419TIP3    H152748   5.545   0.860  13.861 -0.4955  1.7303  0.0796
10419TIP3    H252749   5.585   0.866  13.715  1.5118  0.0502  0.5028
10420TIP3   OH252750   1.077   0.875  11.558 -0.0276 -0.1679  0.4232
10420TIP3    H152751   1.138   0.949  11.562 -1.6253  1.1676  0.8731
10420TIP3    H252752   1.052   0.869  11.466  0.7700 -0.7338  0.2323
10421TIP3   OH252753   5.985   0.321   0.735  0.8267  0.0634 -0.3178
10421TIP3    H152754   6.008   0.321   0.828  1.7274 -0.2586 -0.5255
10421TIP3    H252755   5.909   0.377   0.729  1.2252  0.7174  0.5108
10422TIP3   OH252756   1.105   6.607   4.944 -0.1391  0.2009 -0.3772
10422TIP3    H152757   1.171   6.587   4.877 -0.3104 -0.8257 -0.2607
10422TIP3    H252758   1.150   6.593   5.027  0.3047  2.2391 -0.2390
10423TIP3   OH252759   6.738   5.413   1.638 -0.3312 -0.1482 -0.2644
10423TIP3    H152760   6.793   5.491   1.647  0.7169 -0.7609 -1.1152
10423TIP3    H252761   6.754   5.364   1.719  1.2906 -0.8412 -0.9384
10424TIP3   OH252762   3.074   0.994   6.503  0.1517  0.0972 -0.5048
10424TIP3    H152763   3.075   0.935   6.428  0.7107  1.1971 -1.4047
10424TIP3    H252764   3.128   0.951   6.569 -1.1121 -1.3350 -0.3373
10425TIP3   OH252765   4.064   4.978  14.110 -0.1787 -0.1092  0.0394
10425TIP3    H152766   4.069   4.890  14.146  0.5948 -0.8303 -1.6861
10425TIP3    H252767   4.154   4.998  14.082 -0.2552  1.3913  0.7429
10426TIP3   OH252768   3.433   1.575   3.682 -0.2543 -0.4088  0.4622
10426TIP3    H152769   3.385   1.526   3.616  0.6279  0.5759 -0.9570
10426TIP3    H252770   3.374   1.646   3.708  0.1889  0.4823 -0.8832
10427TIP3   OH252771   3.526   6.052   2.135  0.0236  0.2614  0.5777
10427TIP3    H152772   3.497   6.032   2.046  0.2960  0.3970  0.4589
10427TIP3    H252773   3.513   6.146   2.144  1.2506  0.4710  0.2222
10428TIP3   OH252774   4.159   1.667   3.843  0.0489  0.2897  0.1894
10428TIP3    H152775   4.143   1.586   3.794 -0.8337  0.7130 -0.2452
10428TIP3    H252776   4.253   1.668   3.856  0.5107  0.7071 -2.5003
10429TIP3   OH252777   3.226   0.745  14.770 -0.2781 -0.7023  0.5419
10429TIP3    H152778   3.215   0.824  14.823 -1.2461  0.8890 -1.8746
10429TIP3    H252779   3.299   0.698  14.812  1.9098  2.6029  0.8356
10430TIP3   OH252780   0.893   1.108   2.100  0.0947 -0.2398  0.1901
10430TIP3    H152781   0.819   1.064   2.142 -0.3180 -0.2428 -0.5365
10430TIP3    H252782   0.878   1.201   2.118 -0.5447 -0.1696 -0.6757
10431TIP3   OH252783   4.857   5.405  15.180 -0.0166 -0.0150 -0.0336
10431TIP3    H152784   4.823   5.322  15.146  1.3286 -1.3674  1.6803
10431TIP3    H252785   4.796   5.430  15.250 -0.5228  0.5636 -0.6707
10432TIP3   OH252786   1.397   2.781  15.760 -0.0177 -0.2683  0.0621
10432TIP3    H152787   1.478   2.831  15.772  1.1265 -1.7257 -1.1337
10432TIP3    H252788   1.339   2.841  15.713  0.8612  0.3798 -0.2383
10433TIP3   OH252789   4.072   1.967   6.385 -0.0912 -0.3844  0.1666
10433TIP3    H152790   4.137   2.028   6.350  1.5975 -1.5340  1.1544
10433TIP3    H252791   4.107   1.881   6.363 -2.0117 -1.0355 -0.4804
10434TIP3   OH252792   4.187   4.013  14.688  0.0467 -1.2136  0.0316
10434TIP3    H152793   4.094   4.031  14.703 -0.0709 -0.4585 -1.4411
10434TIP3    H252794   4.212   3.956  14.760 -1.2012 -0.2729  1.2582
10435TIP3   OH252795   0.363   3.481   3.497  0.0369 -0.3239 -0.2166
10435TIP3    H152796   0.327   3.473   3.585  1.3270  1.4230  0.5399
10435TIP3    H252797   0.317   3.415   3.446 -1.4585 -0.7215  1.5327
10436TIP3   OH252798   2.511   3.277   6.592  0.3612  0.5393  0.1804
10436TIP3    H152799   2.497   3.199   6.645  0.9896 -0.2847 -0.8225
10436TIP3    H252800   2.426   3.294   6.551 -0.0543  1.0212  1.2093
10437TIP3   OH252801   6.055   5.274   2.441  0.3917  0.5398  0.1883
10437TIP3    H152802   5.997   5.280   2.517 -0.6311 -1.0481 -0.4145
10437TIP3    H252803   6.135   5.234   2.475 -0.1870 -0.4886  0.4055
10438TIP3   OH252804   5.160   1.615   2.155 -0.2687 -0.3858  0.1379
10438TIP3    H152805   5.229   1.552   2.177  0.1672  0.4151  1.2025
10438TIP3    H252806   5.080   1.575   2.188 -0.0672 -0.6089  0.3674
10439TIP3   OH252807   2.213   0.784  16.323  0.9260 -0.2974 -0.1207
10439TIP3    H152808   2.271   0.768  16.398 -0.3582 -1.4326  0.6688
10439TIP3    H252809   2.176   0.870  16.340  0.6363 -0.5520  0.5581
10440TIP3   OH252810   1.652   2.636   3.633  0.2318 -0.3034  0.3416
10440TIP3    H152811   1.689   2.554   3.663  1.1314  0.1761  0.5870
10440TIP3    H252812   1.716   2.669   3.569  0.4085  0.7075  1.0225
10441TIP3   OH252813   0.844   2.400  15.427  0.2194 -0.4465  0.3537
10441TIP3    H152814   0.837   2.361  15.340  1.2721 -0.6170  0.3243
10441TIP3    H252815   0.897   2.479  15.414 -2.1301  1.2133  0.3697
10442TIP3   OH252816   5.693   4.645   3.574  0.4637 -0.2264 -0.2720
10442TIP3    H152817   5.713   4.728   3.530  1.4755 -0.7559 -0.8687
10442TIP3    H252818   5.756   4.641   3.646 -0.6293  0.2381  0.7478
10443TIP3   OH252819   5.674   3.060   5.900  0.0333 -0.0520  0.0547
10443TIP3    H152820   5.681   3.121   5.826  1.3941 -0.0511  0.1673
10443TIP3    H252821   5.681   3.116   5.977 -0.0244 -0.2080  0.1728
10444TIP3   OH252822   3.114   5.133  11.186 -0.3854 -0.4357 -0.3668
10444TIP3    H152823   3.159   5.112  11.105  0.9756  0.1275  0.2159
10444TIP3    H252824   3.183   5.165  11.244 -1.6175  0.9343  0.3937
10445TIP3   OH252825   1.890   4.913   1.978  0.6660  0.3343 -0.4884
10445TIP3    H152826   1.977   4.872   1.979  0.3000 -0.4590 -0.3802
10445TIP3    H252827   1.829   4.839   1.980 -0.0139  0.8786 -0.7314
10446TIP3   OH252828   3.154   4.493  16.202 -0.7578 -0.6085 -0.0770
10446TIP3    H152829   3.159   4.510  16.296 -0.2155 -0.4747 -0.1299
10446TIP3    H252830   3.217   4.553  16.164 -1.2825 -0.3581 -0.5666
10447TIP3   OH252831   6.126   2.223  15.371 -0.3125  0.0220  0.2466
10447TIP3    H152832   6.129   2.231  15.276 -0.2345 -2.2751  0.0019
10447TIP3    H252833   6.210   2.257  15.401 -0.7698  1.8007 -0.3602
10448TIP3   OH252834   6.451   3.886  13.707  0.1251  0.2852 -0.9596
10448TIP3    H152835   6.448   3.877  13.802  0.2664 -0.0627 -0.9896
10448TIP3    H252836   6.388   3.822  13.674 -0.4235  0.8681 -1.0757
10449TIP3   OH252837   5.134   2.369  12.040  0.4676 -0.4222  0.8849
10449TIP3    H152838   5.182   2.330  12.113  1.1295 -0.8029  0.2584
10449TIP3    H252839   5.066   2.305  12.018  0.9642 -0.8142  0.4632
10450TIP3   OH252840   4.391   0.974   4.574  0.0720  0.1228  0.3739
10450TIP3    H152841   4.318   1.021   4.534  0.3216 -0.5161 -0.9047
10450TIP3    H252842   4.437   1.039   4.626 -0.5214  0.8958 -0.0527
10451TIP3   OH252843   1.391   1.073   5.285 -0.0029 -0.1769 -0.3135
10451TIP3    H152844   1.446   1.044   5.212 -0.9141 -0.3022 -0.9660
10451TIP3    H252845   1.379   0.996   5.339  0.6589 -0.0888 -0.0258
10452TIP3   OH252846   1.231   0.583  14.070 -0.3527  0.1962  0.5581
10452TIP3    H152847   1.215   0.520  14.000  0.4983  0.7115 -0.1250
10452TIP3    H252848   1.303   0.546  14.120 -1.2762 -0.4085  1.4884
10453TIP3   OH252849   2.509   6.538  11.167 -0.7282 -0.8964 -0.1014
10453TIP3    H152850   2.475   6.519  11.080 -0.8736 -2.0229  0.1853
10453TIP3    H252851   2.576   6.605  11.153 -2.4755  0.8069 -0.7688
10454TIP3   OH252852   1.812   0.094  13.237 -0.1782  0.1426 -0.3427
10454TIP3    H152853   1.764   0.011  13.235 -0.0940  0.0895 -0.1913
10454TIP3    H252854   1.743   0.160  13.241 -0.3134  0.1844 -2.4951
10455TIP3   OH252855   1.401   3.124   2.996  0.1300 -0.4156  0.1561
10455TIP3    H152856   1.356   3.062   3.054  1.6900 -1.8679 -0.1055
10455TIP3    H252857   1.346   3.127   2.917 -0.1381 -1.2267  0.3011
10456TIP3   OH252858   4.528   1.128   3.838 -0.1410  0.2562  0.1221
10456TIP3    H152859   4.482   1.148   3.920 -0.2204 -0.8089  0.3437
10456TIP3    H252860   4.539   1.214   3.796 -1.1941  0.6795  0.6619
10457TIP3   OH252861   1.867   2.587   0.372 -0.3830 -0.6771 -0.4731
10457TIP3    H152862   1.831   2.502   0.398  0.1924 -1.0806 -0.9595
10457TIP3    H252863   1.847   2.645   0.445 -1.0015 -1.1721 -0.2387
10458TIP3   OH252864   1.387   4.132   4.302  0.5557  0.3066 -0.2011
10458TIP3    H152865   1.462   4.117   4.359  0.1032  1.3908  0.7359
10458TIP3    H252866   1.373   4.049   4.257  0.5274 -0.8135  1.7599
10459TIP3   OH252867   3.331   2.747   2.635  0.1198 -0.9348 -0.6245
10459TIP3    H152868   3.356   2.720   2.723  0.2606 -3.3890 -1.3243
10459TIP3    H252869   3.414   2.770   2.593 -0.0246  0.9609  0.0543
10460TIP3   OH252870   2.402   2.054   3.061  0.7117  0.4172 -0.0628
10460TIP3    H152871   2.491   2.084   3.044  0.1931  1.5490 -1.0033
10460TIP3    H252872   2.364   2.123   3.116  0.8297 -0.7709  1.5875
10461TIP3   OH252873   3.619   3.210   0.355  0.3869 -0.0172 -0.8451
10461TIP3    H152874   3.638   3.244   0.442  1.8574 -0.2074 -1.0819
10461TIP3    H252875   3.600   3.287   0.302 -2.5007  0.0027  0.0541
10462TIP3   OH252876   1.549   4.028  16.048 -0.1582 -0.0625  0.4434
10462TIP3    H152877   1.618   3.981  16.002 -0.9529  0.3030 -1.1717
10462TIP3    H252878   1.472   3.970  16.042 -0.5016  0.3793  0.5356
10463TIP3   OH252879   1.220   4.456   1.617  0.2205 -0.1641 -0.4762
10463TIP3    H152880   1.227   4.421   1.528  1.5054 -0.2542 -0.3529
10463TIP3    H252881   1.198   4.380   1.671  0.9531 -0.3929 -0.5000
10464TIP3   OH252882   0.414   5.105   1.614 -0.6184 -0.2995 -0.1578
10464TIP3    H152883   0.338   5.048   1.621 -1.8161  1.0809 -1.1545
10464TIP3    H252884   0.379   5.194   1.624  1.2721  0.2976  2.0957
10465TIP3   OH252885   0.272   0.147  16.436 -0.3765 -0.1791 -0.0245
10465TIP3    H152886   0.334   0.215  16.411  1.1653 -0.3617  2.8456
10465TIP3    H252887   0.226   0.184  16.512  0.2443 -2.1100  1.3762
10466TIP3   OH252888   5.948   2.721   4.231 -0.1910 -0.0971 -0.0053
10466TIP3    H152889   5.977   2.735   4.322  0.3411 -0.5239 -0.1068
10466TIP3    H252890   5.989   2.793   4.182  0.8087 -0.7596 -0.1664
10467TIP3   OH252891   3.743   1.913  16.381  0.2081  0.2355 -0.6591
10467TIP3    H152892   3.693   1.858  16.441  1.1489 -0.3829 -0.4211
10467TIP3    H252893   3.746   1.999  16.424 -1.1562  0.4648 -0.9769
10468TIP3   OH252894   3.676   3.971  10.834  0.2107 -0.0805  0.3790
10468TIP3    H152895   3.626   4.010  10.905 -1.7771 -4.0805  1.4722
10468TIP3    H252896   3.628   3.992  10.754 -1.4491 -1.1047  1.0663
10469TIP3   OH252897   1.917   5.695   4.484 -0.0453  0.2405  0.6035
10469TIP3    H152898   1.855   5.753   4.529 -0.1836  0.8340 -0.3343
10469TIP3    H252899   1.990   5.751   4.460 -1.1136  0.5630 -2.1962
10470TIP3   OH252900   1.310   2.367   5.836 -0.0627 -0.2177 -0.2712
10470TIP3    H152901   1.306   2.437   5.771 -0.7709 -2.4002 -2.7459
10470TIP3    H252902   1.357   2.406   5.910  0.4754  2.5102 -1.9049
10471TIP3   OH252903   5.346   0.437   5.680 -0.5441 -0.0228  0.0321
10471TIP3    H152904   5.400   0.456   5.603 -0.7886 -0.9971 -0.4068
10471TIP3    H252905   5.258   0.468   5.656 -0.3299  0.9567  0.4837
10472TIP3   OH252906   1.377   1.094  11.142  0.5520  0.2586 -0.4322
10472TIP3    H152907   1.402   1.049  11.222 -0.0328  1.7592  0.6478
10472TIP3    H252908   1.287   1.067  11.126  0.4215  0.5288 -0.1581
10473TIP3   OH252909   2.453   1.590  14.921  0.2638  0.3351 -0.0311
10473TIP3    H152910   2.450   1.660  14.986 -1.4069  0.2201  0.0692
10473TIP3    H252911   2.477   1.633  14.839 -0.9478  1.0773 -0.0133
10474TIP3   OH252912   4.913   4.756   4.755  0.0919  0.6775  0.0480
10474TIP3    H152913   4.936   4.727   4.844 -0.1261 -0.5050 -0.2572
10474TIP3    H252914   4.985   4.723   4.700 -0.2655  0.5404 -0.3430
10475TIP3   OH252915   1.514   2.885  16.239  0.1026  0.6902  0.1697
10475TIP3    H152916   1.473   2.927  16.164 -1.0521  0.3210  0.5771
10475TIP3    H252917   1.601   2.924  16.244 -0.1023  1.3062 -0.8634
10476TIP3   OH252918   6.771   3.222   5.651 -0.1026  0.7880  0.3695
10476TIP3    H152919   6.812   3.298   5.693 -0.9897  0.7100  1.4013
10476TIP3    H252920   6.677   3.237   5.661 -0.2931 -0.1266  0.0005
10477TIP3   OH252921   5.632   1.750  15.770 -0.1234  0.8026  0.1598
10477TIP3    H152922   5.717   1.709  15.756  0.3006  0.8204  2.2879
10477TIP3    H252923   5.649   1.844  15.762  0.7157  0.9912  3.1514
10478TIP3   OH252924   6.313   6.772  12.558 -0.0725 -0.0474  0.1426
10478TIP3    H152925   6.292   6.693  12.607 -1.6221  0.0103 -0.3927
10478TIP3    H252926   6.276   6.757  12.471 -0.4865  1.3173  0.0724
10479TIP3   OH252927   0.560   6.045   3.943  0.0410 -0.1422 -0.2872
10479TIP3    H152928   0.632   6.101   3.972 -0.6403  0.9676 -0.6547
10479TIP3    H252929   0.556   5.975   4.007  3.1079 -1.7510 -1.6221
10480TIP3   OH252930   2.231   2.890   5.252 -0.5495  0.1550  0.5788
10480TIP3    H152931   2.253   2.797   5.259  1.5211  0.4635 -0.8155
10480TIP3    H252932   2.140   2.891   5.222 -0.0304 -1.5124 -1.2950
10481TIP3   OH252933   5.607   1.191  15.107 -0.0752 -0.5595 -0.4194
10481TIP3    H152934   5.549   1.245  15.052 -0.0563  1.5856  1.5412
10481TIP3    H252935   5.564   1.106  15.108 -2.4208  0.5272 -0.2998
10482TIP3   OH252936   4.457   2.666   2.999 -0.2043 -0.1118  0.1110
10482TIP3    H152937   4.409   2.729   2.945 -0.1813 -0.7992 -0.7334
10482TIP3    H252938   4.392   2.602   3.026  0.1172 -0.7736 -0.6298
10483TIP3   OH252939   3.541   1.655   1.383 -0.1510  0.5908 -0.1399
10483TIP3    H152940   3.564   1.747   1.396  0.0973  0.5823 -0.5075
10483TIP3    H252941   3.574   1.634   1.296 -0.6021  0.2760 -0.2371
10484TIP3   OH252942   2.003   1.101   2.485 -0.2267 -0.4150  0.6367
10484TIP3    H152943   1.968   1.063   2.565  2.9733 -0.8022  1.9999
10484TIP3    H252944   2.062   1.171   2.514  2.0888 -1.4291 -1.1774
10485TIP3   OH252945   2.743   6.094  12.587 -0.1268  0.1901 -0.1243
10485TIP3    H152946   2.830   6.068  12.615  0.2624  1.1057 -0.4372
10485TIP3    H252947   2.758   6.163  12.522 -1.0890  0.8859  0.3569
10486TIP3   OH252948   2.752   6.000  13.575  0.0694  0.3907 -0.5884
10486TIP3    H152949   2.809   5.953  13.635 -1.0426 -1.5754 -1.0112
10486TIP3    H252950   2.732   6.082  13.621 -0.3428 -0.8141  1.5288
10487TIP3   OH252951   0.696   6.062  16.728  0.1212 -0.4740 -0.1201
10487TIP3    H152952   0.758   6.002  16.688  0.3173 -0.2146 -0.2116
10487TIP3    H252953   0.616   6.052  16.678  0.0571 -0.8855  0.0614
10488TIP3   OH252954   6.230   3.058   1.115  0.8310 -0.3369 -0.0419
10488TIP3    H152955   6.144   3.044   1.074  0.2912  1.2541  0.4733
10488TIP3    H252956   6.234   2.994   1.185  0.5413 -1.1586 -0.7526
10489TIP3   OH252957   4.155   4.106   3.671 -0.8664  0.5075  0.0974
10489TIP3    H152958   4.094   4.104   3.597 -1.1693  2.4153  0.2325
10489TIP3    H252959   4.100   4.093   3.748 -0.5195 -1.7192  0.0360
10490TIP3   OH252960   3.572   6.803  14.562  0.2299 -0.2327 -0.0603
10490TIP3    H152961   3.490   6.845  14.586  0.3733  0.1155 -0.1638
10490TIP3    H252962   3.639   6.869  14.581  0.5018 -0.5668  0.1705
10491TIP3   OH252963   4.516   3.118   0.174  0.2227  0.1730  0.1648
10491TIP3    H152964   4.607   3.110   0.202  0.4713  1.6945 -0.1351
10491TIP3    H252965   4.511   3.067   0.093  0.1292 -2.0941  1.5264
10492TIP3   OH252966   2.253   5.543  14.724  0.4188  0.2107  0.0452
10492TIP3    H152967   2.283   5.452  14.721  0.3818  0.2166 -0.6702
10492TIP3    H252968   2.157   5.536  14.719  0.3856  0.2687  0.5414
10493TIP3   OH252969   4.006   2.159   3.978  0.2897 -0.2551  0.2964
10493TIP3    H152970   4.071   2.126   4.040 -1.4332 -0.3132  2.1823
10493TIP3    H252971   3.951   2.083   3.959 -0.2738  0.1995  0.1011
10494TIP3   OH252972   3.891   2.627   0.590 -0.1733 -0.1799 -0.3655
10494TIP3    H152973   3.885   2.547   0.643 -2.0477 -0.4244 -0.8822
10494TIP3    H252974   3.947   2.603   0.516  0.7089 -0.4723  0.3756
10495TIP3   OH252975   0.537   2.093  16.966  0.1482 -0.1212  0.1610
10495TIP3    H152976   0.556   2.177  17.008 -0.0377 -0.1825  0.3706
10495TIP3    H252977   0.568   2.103  16.876  0.2920  0.1089  0.2361
10496TIP3   OH252978   2.556   3.269   0.018  0.0353 -0.6455  0.4042
10496TIP3    H152979   2.598   3.355   0.007 -0.0521 -0.6656 -0.1012
10496TIP3    H252980   2.539   3.263   0.112  0.8507 -0.4910  0.5727
10497TIP3   OH252981   3.045   5.067   3.167 -0.5167  0.3727 -0.0004
10497TIP3    H152982   3.064   5.060   3.261 -2.2684  2.4315  0.5833
10497TIP3    H252983   2.969   5.011   3.154 -0.3750  0.2186 -0.1700
10498TIP3   OH252984   5.090   0.589   4.391 -0.2644 -0.4981  0.2726
10498TIP3    H152985   5.006   0.566   4.431 -0.3344 -0.4491  0.1532
10498TIP3    H252986   5.095   0.533   4.314 -0.5043 -0.0060 -0.1062
10499TIP3   OH252987   3.742   4.034   1.508 -0.2870 -0.2326  0.2348
10499TIP3    H152988   3.814   3.976   1.531  0.7139  0.7136 -0.3686
10499TIP3    H252989   3.667   3.999   1.555  0.2546 -2.0224 -0.1395
10500TIP3   OH252990   2.741   2.986  11.271  0.5406 -0.0290 -0.8276
10500TIP3    H152991   2.834   3.005  11.282  0.2669  1.6745 -1.1405
10500TIP3    H252992   2.724   2.913  11.331  1.6474  0.9459  0.7581
10501TIP3   OH252993   4.812   4.389   0.408 -0.1752  0.1419 -0.0735
10501TIP3    H152994   4.848   4.336   0.479 -2.0999 -0.9553  0.1356
10501TIP3    H252995   4.828   4.337   0.329 -0.3385  0.1599 -0.1179
10502TIP3   OH252996   5.353   4.798  13.926  0.0086  0.3452  0.1813
10502TIP3    H152997   5.429   4.830  13.975  0.1913 -1.9307  1.5102
10502TIP3    H252998   5.390   4.757  13.848 -0.1849  2.5695 -1.1723
10503TIP3   OH252999   5.634   6.783   3.205 -0.1254 -0.7252  0.2167
10503TIP3    H153000   5.626   6.877   3.192 -0.5276 -0.7962 -0.0931
10503TIP3    H253001   5.593   6.766   3.290 -1.1814 -0.7734 -0.2871
10504TIP3   OH253002   3.637   4.089  15.089 -0.1800 -0.5894 -0.0029
10504TIP3    H153003   3.558   4.128  15.126  0.1459  0.4233 -0.3361
10504TIP3    H253004   3.709   4.142  15.124  0.2257 -0.4716 -0.9639
10505TIP3   OH253005   0.400   3.899  13.583 -0.4320  0.3472  0.5159
10505TIP3    H153006   0.308   3.875  13.596 -0.2361 -0.8935 -0.2257
10505TIP3    H253007   0.408   3.986  13.623 -2.0723  0.7540  0.0510
10506TIP3   OH253008   3.851   6.166   3.770 -0.3185 -0.0304 -0.2921
10506TIP3    H153009   3.930   6.203   3.730  1.5013 -1.0033  2.1696
10506TIP3    H253010   3.836   6.218   3.849  0.3859 -2.3469  1.5023
10507TIP3   OH253011   3.534   0.361  14.032  0.0857  0.5471  0.1713
10507TIP3    H153012   3.554   0.356  14.125  0.5630 -1.3380  0.0055
10507TIP3    H253013   3.610   0.405  13.993  0.3633  0.3979  0.5379
10508TIP3   OH253014   0.120   0.507  12.644 -0.2033 -0.0558  0.0738
10508TIP3    H153015   0.122   0.443  12.715 -1.3884  0.2683  0.4150
10508TIP3    H253016   0.029   0.535  12.639  0.1508  1.0395 -0.5821
10509TIP3   OH253017   5.073   2.874  13.503  0.6214 -0.1488  0.0310
10509TIP3    H153018   5.086   2.949  13.561 -0.1525 -0.2288  0.3145
10509TIP3    H253019   5.084   2.797  13.559  0.3670 -0.2331 -0.0322
10510TIP3   OH253020   6.269   4.348  16.445  0.4598  0.6040  0.3151
10510TIP3    H153021   6.201   4.309  16.390 -0.2211 -0.1001  1.6045
10510TIP3    H253022   6.319   4.404  16.386 -2.4121  2.6834 -0.3308
10511TIP3   OH253023   4.945   4.132  14.747  0.5891  0.2008 -0.7349
10511TIP3    H153024   4.879   4.201  14.758  0.6783  0.0361  1.1575
10511TIP3    H253025   5.027   4.179  14.737  0.9086  0.4845  2.2263
10512TIP3   OH253026   1.515   1.521   5.939 -0.0884 -0.4588 -0.0876
10512TIP3    H153027   1.476   1.434   5.945  0.5821 -0.6744  1.8342
10512TIP3    H253028   1.503   1.559   6.026  0.7779  0.8625 -0.5081
10513TIP3   OH253029   4.702   3.162  14.856 -0.2525 -0.1489  0.0388
10513TIP3    H153030   4.781   3.207  14.828 -0.6162  0.1239 -0.5788
10513TIP3    H253031   4.725   3.122  14.940 -0.4169  2.6485  1.5469
10514TIP3   OH253032   2.276   5.511   3.410  0.1140 -0.4608 -0.3273
10514TIP3    H153033   2.326   5.592   3.403 -0.8858  0.2398  0.4647
10514TIP3    H253034   2.323   5.450   3.352  1.6271  0.2772  0.0484
10515TIP3   OH253035   3.170   2.991  15.667 -0.1140 -0.2972  0.9993
10515TIP3    H153036   3.191   3.075  15.627  0.9082 -0.5832  0.8975
10515TIP3    H253037   3.213   2.993  15.752 -1.1445 -0.2286  1.5346
10516TIP3   OH253038   0.615   4.375  12.212  0.2434  0.0263 -0.0484
10516TIP3    H153039   0.563   4.318  12.155 -0.7342  1.6205 -0.8132
10516TIP3    H253040   0.631   4.453  12.159  1.6234  0.4374  0.9421
10517TIP3   OH253041   1.506   2.161  12.941 -0.1165  0.5891  0.2119
10517TIP3    H153042   1.590   2.180  12.899 -0.1763  0.0088 -0.1909
10517TIP3    H253043   1.468   2.090  12.888 -0.9018  0.9073  0.3339
10518TIP3   OH253044   4.280   1.999   0.691 -0.2013  0.4335 -0.0639
10518TIP3    H153045   4.333   2.009   0.612 -0.8760 -0.1558 -0.6128
10518TIP3    H253046   4.313   1.919   0.733 -1.1665 -0.4193 -0.8549
10519TIP3   OH253047   5.750   1.721  15.295  0.0765  0.3801  0.1076
10519TIP3    H153048   5.841   1.749  15.284  0.9379 -2.1576  0.1309
10519TIP3    H253049   5.732   1.669  15.216 -0.5632 -1.0111  1.1276
10520TIP3   OH253050   0.102   1.498   5.144 -0.0225  0.3208  0.0221
10520TIP3    H153051   0.103   1.517   5.238  0.3966 -0.2154  0.1290
10520TIP3    H253052   0.012   1.518   5.117  0.1052  1.4163  0.3371
10521TIP3   OH253053   2.417   4.096   0.504  0.1699 -0.0255  0.2418
10521TIP3    H153054   2.357   4.170   0.506  1.3884  1.0276  2.5587
10521TIP3    H253055   2.403   4.051   0.588  2.0362 -0.1700  0.5297
10522TIP3   OH253056   1.183   1.432  13.696 -0.4860 -0.2190  0.0476
10522TIP3    H153057   1.127   1.387  13.758  0.4636 -0.8859  0.4445
10522TIP3    H253058   1.258   1.374  13.685 -0.2990  0.2224 -1.1725
10523TIP3   OH253059   3.575   6.594  12.307  0.2973  0.4860 -0.0969
10523TIP3    H153060   3.528   6.550  12.378 -1.5402 -1.3120 -2.2740
10523TIP3    H253061   3.658   6.547  12.300  0.7408  1.0366  1.1470
10524TIP3   OH253062   1.421   3.293   0.929 -0.7895 -0.2743 -0.3595
10524TIP3    H153063   1.404   3.383   0.956  0.7374  0.1104 -0.5755
10524TIP3    H253064   1.459   3.251   1.006 -1.4736 -0.7401 -0.2660
10525TIP3   OH253065   2.080   0.963  13.533  0.4039  0.4869 -0.0664
10525TIP3    H153066   2.102   0.993  13.622  1.7886  1.9426 -0.8382
10525TIP3    H253067   1.993   0.924  13.541 -0.3287  2.2930  1.5963
10526TIP3   OH253068   6.268   2.727   5.112 -0.0787 -0.3714 -0.1109
10526TIP3    H153069   6.328   2.687   5.049  0.3655 -0.2891  0.2506
10526TIP3    H253070   6.183   2.727   5.068 -0.2358 -2.2677  0.0986
10527TIP3   OH253071   1.034   0.798   2.805 -0.1519  0.0138 -0.4877
10527TIP3    H153072   1.088   0.775   2.880 -1.5047  1.6577  1.0765
10527TIP3    H253073   1.085   0.862   2.756 -0.5509  1.4260  0.8785
10528TIP3   OH253074   5.873   3.282   0.732  0.0327  0.1354 -0.2671
10528TIP3    H153075   5.908   3.370   0.750  2.0820 -0.7152  0.1904
10528TIP3    H253076   5.946   3.235   0.694 -0.5641 -1.8416  0.9186
10529TIP3   OH253077   1.496   5.951  15.650  0.2199 -0.1413  0.4489
10529TIP3    H153078   1.540   5.866  15.651  0.2493 -0.3083 -2.6532
10529TIP3    H253079   1.432   5.946  15.721  0.5349 -2.6024  0.6520
10530TIP3   OH253080   6.608   0.686   1.424 -0.1038 -0.2197  0.5335
10530TIP3    H153081   6.645   0.726   1.503  1.6635 -1.1550  0.2447
10530TIP3    H253082   6.588   0.596   1.450  2.8903 -1.3525 -0.6156
10531TIP3   OH253083   2.041   2.152  12.156  0.2474  0.0388 -0.2433
10531TIP3    H153084   2.024   2.091  12.085  0.3001 -2.3939  1.6954
10531TIP3    H253085   2.029   2.239  12.117 -0.2564 -1.1826 -3.0221
10532TIP3   OH253086   2.164   2.243  14.548 -0.2417 -0.6200 -0.6565
10532TIP3    H153087   2.206   2.304  14.488  0.3109  0.4413  0.7583
10532TIP3    H253088   2.080   2.283  14.569  0.8564  0.6189  1.6585
10533TIP3   OH253089   3.404   4.752  11.080  0.0828  0.4847  0.2452
10533TIP3    H153090   3.317   4.757  11.040 -0.0169  0.1687  0.4169
10533TIP3    H253091   3.417   4.837  11.121  1.4114  1.9629 -2.9105
10534TIP3   OH253092   2.485   2.337   4.082 -0.0292  0.1369 -0.4135
10534TIP3    H153093   2.436   2.311   4.004  0.2935  1.1049 -0.9588
10534TIP3    H253094   2.420   2.377   4.139  0.2661  2.6629 -1.7025
10535TIP3   OH253095   0.281   6.353   5.163 -0.6125 -0.4347 -0.3932
10535TIP3    H153096   0.367   6.317   5.141  0.1686  0.3714  1.1983
10535TIP3    H253097   0.228   6.277   5.186  0.2244 -0.8129  0.3517
10536TIP3   OH253098   0.849   2.699   5.301  0.4216  0.1589 -0.5434
10536TIP3    H153099   0.918   2.683   5.236 -0.3489  2.3331 -2.0032
10536TIP3    H253100   0.890   2.756   5.366 -0.0880  2.0966 -1.8145
10537TIP3   OH253101   4.816   3.076   0.250  0.5229  0.0527  0.1209
10537TIP3    H153102   4.890   3.137   0.252  2.3942 -2.0562  1.3252
10537TIP3    H253103   4.811   3.042   0.340 -0.3566 -1.5833 -0.5041
10538TIP3   OH253104   5.154   2.072   4.022 -0.4011 -0.0254 -0.0939
10538TIP3    H153105   5.178   2.165   4.020 -0.5610  0.0870  1.6638
10538TIP3    H253106   5.206   2.032   3.953 -1.5380  1.6295 -2.0229
10539TIP3   OH253107   2.762   4.800  13.015 -0.2463  0.1496  1.1208
10539TIP3    H153108   2.759   4.705  13.025  0.6884 -0.1469 -0.8054
10539TIP3    H253109   2.675   4.823  12.982 -0.4910 -0.0124  1.6350
10540TIP3   OH253110   2.159   2.212   6.754  0.5211  0.8397 -0.1738
10540TIP3    H153111   2.142   2.242   6.665 -0.4451  1.0301  0.0628
10540TIP3    H253112   2.079   2.165   6.779  1.0592  0.1809  0.3382
10541TIP3   OH253113   1.215   5.756   5.432 -0.3262  0.1745 -0.1269
10541TIP3    H153114   1.268   5.757   5.512  0.5722  1.0809 -0.7025
10541TIP3    H253115   1.256   5.691   5.376 -1.7868 -1.4831  0.6472
10542TIP3   OH253116   6.217   6.300  16.820  0.2155  0.1280  0.2290
10542TIP3    H153117   6.209   6.210  16.852  1.4933 -0.3455 -0.7247
10542TIP3    H253118   6.291   6.337  16.868  1.2591 -0.1411 -1.1183
10543TIP3   OH253119   3.518   1.691   0.750 -0.3431 -0.4619  0.4612
10543TIP3    H153120   3.570   1.766   0.722 -1.1619 -0.1618 -0.3103
10543TIP3    H253121   3.436   1.729   0.781 -0.6031 -1.0035  0.4529
10544TIP3   OH253122   2.900   4.118  12.725  0.2694 -0.1038  0.2457
10544TIP3    H153123   2.971   4.182  12.718 -1.2913  1.5802 -0.9705
10544TIP3    H253124   2.935   4.051  12.785  2.4614  1.1735  0.5245
10545TIP3   OH253125   1.560   5.627   3.443 -0.3929 -0.0720  0.3599
10545TIP3    H153126   1.577   5.546   3.393  0.7028 -0.5524  1.4517
10545TIP3    H253127   1.648   5.657   3.468 -0.4758  3.0482 -2.3709
10546TIP3   OH253128   0.403   2.030  13.361 -0.2121  0.1246 -0.6858
10546TIP3    H153129   0.491   2.047  13.328 -0.1110  0.3164 -0.3292
10546TIP3    H253130   0.415   1.962  13.427 -0.3639 -0.0271 -0.8149
10547TIP3   OH253131   0.187   3.286  16.276  0.1925  0.3239  0.2648
10547TIP3    H153132   0.120   3.225  16.244  0.5079 -1.1819  2.2797
10547TIP3    H253133   0.180   3.361  16.218 -0.5887 -1.3849 -2.0230
10548TIP3   OH253134   6.550   4.165   0.125 -0.7697 -0.1345 -0.1712
10548TIP3    H153135   6.506   4.207   0.051 -1.5031 -0.3989  0.1025
10548TIP3    H253136   6.599   4.093   0.087  0.2455  0.7634 -0.6083
10549TIP3   OH253137   0.299   2.579   1.163 -0.4568  0.4338  0.4436
10549TIP3    H153138   0.261   2.545   1.083 -0.1471 -0.1072  0.5213
10549TIP3    H253139   0.375   2.630   1.135 -2.0041  2.7486  0.1624
10550TIP3   OH253140   0.553   3.978  12.408 -0.3325  0.4667 -0.2406
10550TIP3    H153141   0.646   3.988  12.429 -0.5047  0.9472  0.3388
10550TIP3    H253142   0.510   3.970  12.493 -1.0133  2.0685 -0.3989
10551TIP3   OH253143   4.298   0.709   4.904  0.0396 -0.2587  0.5138
10551TIP3    H153144   4.386   0.710   4.867 -1.0256  1.1964 -2.2620
10551TIP3    H253145   4.272   0.801   4.905 -1.6670 -0.7176  0.6961
10552TIP3   OH253146   4.256   2.796   0.385 -0.0235 -0.0017 -0.0243
10552TIP3    H153147   4.189   2.834   0.442 -1.1523  0.3356 -1.5110
10552TIP3    H253148   4.252   2.702   0.403  1.5659  0.3103  2.4006
10553TIP3   OH253149   2.802   3.900   4.605 -0.0694 -0.1046  0.0861
10553TIP3    H153150   2.798   3.808   4.580 -0.8505 -0.5592  1.7963
10553TIP3    H253151   2.733   3.942   4.554 -1.2374 -0.9050  0.9564
10554TIP3   OH253152   2.288   4.985   5.442 -0.3548  0.4501 -0.4891
10554TIP3    H153153   2.197   4.982   5.413 -1.3510  1.2823  2.2349
10554TIP3    H253154   2.284   4.972   5.537  2.5736 -1.4824 -0.5029
10555TIP3   OH253155   3.681   2.570   3.767 -0.4187 -0.1567 -0.2207
10555TIP3    H153156   3.773   2.550   3.783  0.0408  0.7898 -1.5228
10555TIP3    H253157   3.639   2.485   3.759  0.7752 -0.6598 -1.8354
10556TIP3   OH253158   3.850   5.263  12.627  0.2725 -0.3756  0.6899
10556TIP3    H153159   3.790   5.243  12.555 -0.8952  2.7859  0.6477
10556TIP3    H253160   3.934   5.280  12.584  0.3137 -1.3017  0.3911
10557TIP3   OH253161   4.792   0.325  14.736 -0.1085 -0.2732 -0.4938
10557TIP3    H153162   4.829   0.280  14.812 -0.0627 -0.0864 -0.4051
10557TIP3    H253163   4.867   0.359  14.688 -0.0700 -1.3250 -1.2217
10558TIP3   OH253164   2.283   2.260  16.959  0.0633  0.5252  0.2134
10558TIP3    H153165   2.193   2.285  16.978  0.7842  4.6146 -0.7215
10558TIP3    H253166   2.332   2.285  17.037  0.5047 -1.2085  0.5239
10559TIP3   OH253167   3.276   4.639   6.717  0.5484  0.4750 -0.2791
10559TIP3    H153168   3.205   4.628   6.654  1.5905  0.7527 -1.5442
10559TIP3    H253169   3.339   4.570   6.695  0.5419  0.0040  1.0479
10560TIP3   OH253170   4.002   3.311  16.809 -0.2506 -0.3534 -0.1815
10560TIP3    H153171   4.027   3.236  16.754  1.5572 -0.0870  0.2142
10560TIP3    H253172   3.926   3.280  16.858 -1.0415 -1.0811 -1.7709
10561TIP3   OH253173   3.936   4.321  12.699  0.2028 -0.4263  0.3419
10561TIP3    H153174   3.957   4.414  12.693 -2.3015  0.2640  1.0080
10561TIP3    H253175   3.974   4.294  12.783 -1.8503  0.9164  1.8131
10562TIP3   OH253176   3.023   1.587  13.929  0.2376 -0.0330  0.3331
10562TIP3    H153177   3.092   1.640  13.890  1.3326  0.2868  2.5538
10562TIP3    H253178   2.973   1.649  13.983 -0.9268 -0.5459 -0.1160
10563TIP3   OH253179   6.094   2.344   6.656 -0.2498 -0.4025 -0.3351
10563TIP3    H153180   6.122   2.428   6.619 -1.4978  0.6626  1.0460
10563TIP3    H253181   6.047   2.301   6.585  0.4182  0.0398 -1.0603
10564TIP3   OH253182   4.026   6.409   0.707 -0.8142 -0.9815  0.2017
10564TIP3    H153183   3.952   6.448   0.661 -1.7871 -2.3687  0.5151
10564TIP3    H253184   4.011   6.431   0.799  0.5492  0.8705  0.0210
10565TIP3   OH253185   6.758   4.140  10.316 -0.2046 -0.0924 -0.0751
10565TIP3    H153186   6.721   4.054  10.336 -1.1135  0.4708  0.7150
10565TIP3    H253187   6.694   4.180  10.257 -1.1122  1.0298  1.5821
10566TIP3   OH253188   4.841   1.800  15.713 -0.3317  0.5353 -0.1818
10566TIP3    H153189   4.876   1.711  15.724  1.0158  0.8700 -1.4855
10566TIP3    H253190   4.775   1.791  15.644 -0.6533  0.4497  0.1322
10567TIP3   OH253191   2.768   5.522  12.223 -0.2727 -0.1926  0.6443
10567TIP3    H153192   2.845   5.513  12.280  1.2687  0.2762 -1.2537
10567TIP3    H253193   2.694   5.524  12.283  1.1276 -1.3689  2.5194
10568TIP3   OH253194   4.010   4.115   5.252  0.1969 -0.1272  0.0855
10568TIP3    H153195   3.931   4.169   5.260 -0.0105 -0.0286 -2.0047
10568TIP3    H253196   3.977   4.025   5.251  0.1939 -0.1255  0.0345
10569TIP3   OH253197   0.688   3.060  10.069 -0.0365  0.7688 -0.0150
10569TIP3    H153198   0.752   2.998  10.033  1.6047  1.1493  2.0822
10569TIP3    H253199   0.706   3.142  10.023 -0.1076  0.4833 -0.5639
10570TIP3   OH253200   6.313   0.874  17.062 -0.3403 -0.2947 -0.3891
10570TIP3    H153201   6.390   0.860  17.119 -0.9000  1.8952  1.0295
10570TIP3    H253202   6.238   0.860  17.120 -0.9497  0.5646 -0.9491
10571TIP3   OH253203   3.085   4.828   4.861  0.2921 -0.2188  0.8371
10571TIP3    H153204   3.178   4.808   4.871  0.3401  0.6864  2.4018
10571TIP3    H253205   3.042   4.774   4.927 -0.3257 -0.6255  0.1267
10572TIP3   OH253206   2.750   6.325   3.181  0.0120 -0.1365  0.9504
10572TIP3    H153207   2.708   6.239   3.190  3.1483 -1.7123  2.2582
10572TIP3    H253208   2.726   6.371   3.261 -1.3506  0.0986  0.4368
10573TIP3   OH253209   5.239   1.114   3.680  0.0061 -0.3127  0.0500
10573TIP3    H153210   5.152   1.102   3.642 -1.0449 -0.6956  2.4117
10573TIP3    H253211   5.256   1.207   3.671 -0.6339 -0.2304 -0.4289
10574TIP3   OH253212   5.096   4.077  15.284  0.3878 -0.0233 -0.4947
10574TIP3    H153213   5.044   4.099  15.207 -2.2497 -0.0647  1.1349
10574TIP3    H253214   5.079   4.148  15.346  0.8133 -0.9618  0.7508
10575TIP3   OH253215   0.322   4.020   0.299  0.6780  0.2734 -0.1908
10575TIP3    H153216   0.292   4.079   0.230  1.1643  0.7098 -0.0435
10575TIP3    H253217   0.305   4.069   0.380 -0.3921 -0.4550  0.0458
10576TIP3   OH253218   0.113   1.002  12.988  0.6262  0.1817  0.0325
10576TIP3    H153219   0.191   0.954  12.961  1.4222  0.7626  1.2024
10576TIP3    H253220   0.075   0.951  13.059  1.2814  1.0708  1.0481
10577TIP3   OH253221   6.263   4.196  12.457  0.3776 -0.2444  0.1371
10577TIP3    H153222   6.212   4.228  12.532  1.6539 -1.0571  1.4044
10577TIP3    H253223   6.229   4.108  12.442  1.3334 -0.7684  0.9518
10578TIP3   OH253224   5.559   2.558   3.733 -0.0159 -0.0021 -0.1506
10578TIP3    H153225   5.644   2.561   3.777  0.1292 -3.3766  0.0723
10578TIP3    H253226   5.579   2.538   3.642 -0.4548 -3.5407  0.3771
10579TIP3   OH253227   6.609   4.008   4.302  0.3139  0.5337  0.1546
10579TIP3    H153228   6.554   3.932   4.319  1.6259 -0.1026  1.8689
10579TIP3    H253229   6.576   4.044   4.220 -0.8542 -1.4104 -0.2859
10580TIP3   OH253230   4.773   6.611  12.926  0.5569 -0.1169 -0.2725
10580TIP3    H153231   4.791   6.616  13.020  1.2676 -2.5050 -0.2197
10580TIP3    H253232   4.680   6.592  12.920  0.3201  0.9396 -0.1072
10581TIP3   OH253233   1.944   3.627  13.396 -0.1250 -0.4137 -0.5359
10581TIP3    H153234   1.996   3.686  13.450 -0.4544  0.0971 -0.7644
10581TIP3    H253235   1.993   3.621  13.313 -1.5409  1.9347 -1.6424
10582TIP3   OH253236   4.539   0.491  17.095  0.6118  0.0968  0.0099
10582TIP3    H153237   4.449   0.494  17.128  0.2389 -0.0842 -0.9431
10582TIP3    H253238   4.543   0.560  17.030  1.1085 -0.0250 -0.0933
10583TIP3   OH253239   0.079   0.181   3.912 -0.2069 -0.0761 -0.5086
10583TIP3    H153240   0.096   0.226   3.995  0.8495 -2.1647  0.4914
10583TIP3    H253241   0.155   0.204   3.857 -0.7760  1.0899 -0.8567
10584TIP3   OH253242   1.243   3.648   4.048  0.7628 -0.3054  0.9338
10584TIP3    H153243   1.274   3.658   3.958  0.0372  1.0758  0.8099
10584TIP3    H253244   1.190   3.569   4.046  1.2786 -0.6509  0.3018
10585TIP3   OH253245   2.587   3.085  14.618 -0.0053 -0.1509  0.5817
10585TIP3    H153246   2.636   3.146  14.562 -0.4825  0.6262  0.9910
10585TIP3    H253247   2.629   3.001  14.604  0.1789  0.1210 -0.5957
10586TIP3   OH253248   0.980   4.090   4.669  0.3740  0.7513 -0.3459
10586TIP3    H153249   1.021   4.021   4.720 -1.1988 -1.5801 -2.0250
10586TIP3    H253250   1.053   4.133   4.623  1.3954  0.3452  0.8523
10587TIP3   OH253251   5.102   2.082   4.630 -0.5423 -0.1011 -0.0612
10587TIP3    H153252   5.078   1.994   4.600  1.0873 -0.8183  0.6161
10587TIP3    H253253   5.177   2.068   4.687 -0.5934  1.7004  0.5052
10588TIP3   OH253254   2.163   1.551   2.458  0.4323 -0.1898  0.3543
10588TIP3    H153255   2.163   1.458   2.483 -1.0554 -0.0686  0.9134
10588TIP3    H253256   2.153   1.598   2.541 -0.3454  0.4051 -0.0631
10589TIP3   OH253257   1.262   1.143   0.874 -0.2823 -0.4305 -0.7100
10589TIP3    H153258   1.340   1.117   0.825  1.0710  2.6183 -0.4167
10589TIP3    H253259   1.203   1.179   0.808 -0.6766 -1.0467 -0.7002
10590TIP3   OH253260   4.939   3.875  14.333 -0.5878  0.0445 -0.1138
10590TIP3    H153261   4.998   3.942  14.366 -0.1308 -0.5503  0.3009
10590TIP3    H253262   4.898   3.915  14.256  1.3029  0.0553 -1.1928
10591TIP3   OH253263   3.167   0.806  15.191 -0.6940  0.4533  0.2028
10591TIP3    H153264   3.106   0.826  15.120 -0.7992 -0.3692  0.0575
10591TIP3    H253265   3.205   0.891  15.215  1.7630  0.4085 -2.9668
10592TIP3   OH253266   3.295   4.952  10.520 -0.0847 -0.3448 -0.1630
10592TIP3    H153267   3.269   4.966  10.428 -1.0758  3.2956  0.5394
10592TIP3    H253268   3.212   4.936  10.565  0.4451 -2.6448  0.1557
10593TIP3   OH253269   3.813   5.643   2.277  0.8089  0.3027  0.1615
10593TIP3    H153270   3.894   5.618   2.321  0.3344  0.7252  1.3308
10593TIP3    H253271   3.760   5.683   2.346 -0.7797 -0.8195 -0.3342
10594TIP3   OH253272   4.934   5.856  16.416  0.1932  0.0870  0.1761
10594TIP3    H153273   5.002   5.791  16.398 -0.1240 -0.2201  0.0711
10594TIP3    H253274   4.853   5.805  16.420  0.1648  0.2104  1.8928
10595TIP3   OH253275   6.801   3.591   1.899  0.5643 -0.5545 -0.4153
10595TIP3    H153276   6.874   3.529   1.891  1.4425  0.3700  0.1927
10595TIP3    H253277   6.724   3.536   1.909  1.1810 -1.5574 -1.0481
10596TIP3   OH253278   1.091   3.104  12.878  0.0550 -0.1211 -0.4327
10596TIP3    H153279   1.004   3.102  12.917 -0.2774  1.5625 -0.9893
10596TIP3    H253280   1.146   3.149  12.943  0.7114 -1.7926  0.2223
10597TIP3   OH253281   0.468   3.016   6.342 -0.1184 -0.1718  0.1529
10597TIP3    H153282   0.379   3.049   6.350 -0.3737 -0.6508 -0.6086
10597TIP3    H253283   0.523   3.092   6.359 -0.6610  0.0964  0.7695
10598TIP3   OH253284   6.289   0.468   6.345  0.0405 -0.0867 -0.3916
10598TIP3    H153285   6.216   0.407   6.357 -0.4440  0.3239 -1.1440
10598TIP3    H253286   6.248   0.547   6.309  0.7410  0.4595 -0.0207
10599TIP3   OH253287   6.484   6.618  14.168 -0.4968 -0.1958  0.2094
10599TIP3    H153288   6.409   6.675  14.152 -0.1838 -0.1019 -1.0868
10599TIP3    H253289   6.447   6.539  14.206 -1.0432  0.4977  1.1527
10600TIP3   OH253290   3.699   1.916  14.145  0.3787  0.6149  0.2846
10600TIP3    H153291   3.713   1.999  14.099 -0.0450  1.5189  1.7091
10600TIP3    H253292   3.605   1.914  14.162  0.2269 -0.6617 -0.6083
10601TIP3   OH253293   2.821   0.033   3.350  0.1758  0.6525 -0.6704
10601TIP3    H153294   2.869  -0.050   3.350 -1.1520 -0.1578  0.2423
10601TIP3    H253295   2.884   0.096   3.386  0.5140 -0.4372  0.7873
10602TIP3   OH253296   2.597   2.617   6.274  0.1803 -0.3658  0.3085
10602TIP3    H153297   2.689   2.641   6.279 -0.0412  0.7039 -0.3926
10602TIP3    H253298   2.597   2.521   6.280  1.3370 -0.3888  0.2193
10603TIP3   OH253299   4.186   2.552   6.160  0.0482 -0.7289 -0.5301
10603TIP3    H153300   4.114   2.572   6.099 -0.6978 -1.1088  0.2208
10603TIP3    H253301   4.195   2.457   6.157  0.5520 -0.6836 -0.6401
10604TIP3   OH253302   4.323   5.964   5.011 -0.0902  0.4276  0.2016
10604TIP3    H153303   4.316   5.869   5.014  0.0005  0.4040 -0.3662
10604TIP3    H253304   4.393   5.982   4.949 -0.1506  0.8701  0.2528
10605TIP3   OH253305   4.971   2.026  12.450 -0.5631  0.1327  0.2486
10605TIP3    H153306   4.904   2.085  12.484 -0.2692  1.6876 -1.6718
10605TIP3    H253307   4.922   1.956  12.406 -0.9053 -0.7613  1.9609
10606TIP3   OH253308   1.006   1.132  15.857 -0.4799  0.9612 -0.0389
10606TIP3    H153309   1.081   1.169  15.904 -0.0998 -0.1639  0.2795
10606TIP3    H253310   1.041   1.110  15.771  0.3385 -1.9906  0.9328
10607TIP3   OH253311   3.622   5.939  13.788 -0.4692  0.0385 -0.1488
10607TIP3    H153312   3.581   6.024  13.804  0.8681  0.4282  1.4558
10607TIP3    H253313   3.707   5.962  13.750 -0.7887 -0.6775 -1.3489
10608TIP3   OH253314   3.756   5.833  15.267 -0.5291  0.2550 -0.2171
10608TIP3    H153315   3.780   5.916  15.309 -0.0801 -0.9221  2.0096
10608TIP3    H253316   3.669   5.813  15.301  0.7067 -1.7833  2.0312
10609TIP3   OH253317   2.233   5.747   4.689 -0.5422 -0.3855 -0.1950
10609TIP3    H153318   2.175   5.786   4.755  0.2393 -1.5737  1.2467
10609TIP3    H253319   2.217   5.653   4.696  1.9767 -0.8033  0.6940
10610TIP3   OH253320   1.703   4.253   3.594  0.3311 -0.2598 -0.6513
10610TIP3    H153321   1.715   4.216   3.681 -0.8261  1.5624  0.3600
10610TIP3    H253322   1.792   4.269   3.562  1.0858  4.1876  2.6453
10611TIP3   OH253323   6.503   5.252   3.317 -0.3696  0.2921  0.0890
10611TIP3    H153324   6.567   5.289   3.257  1.3348  0.4167  1.8748
10611TIP3    H253325   6.466   5.328   3.362  0.3519  0.0834  1.0695
10612TIP3   OH253326   1.798   2.308  16.462  0.4803  0.1845 -0.3349
10612TIP3    H153327   1.877   2.341  16.505  0.1683  2.6005 -1.4528
10612TIP3    H253328   1.832   2.254  16.390  1.0104 -1.6617  1.2125
10613TIP3   OH253329   5.297   5.995   1.409 -0.3292  0.1306 -0.5264
10613TIP3    H153330   5.244   6.066   1.371  2.5133  2.3617 -0.7245
10613TIP3    H253331   5.356   6.040   1.469  0.8237 -2.2962  0.2754
10614TIP3   OH253332   1.373   0.517   3.602  0.3624  0.1056 -0.3258
10614TIP3    H153333   1.339   0.430   3.623 -0.4945  0.4163 -0.4132
10614TIP3    H253334   1.465   0.502   3.580  0.5145 -0.6309  0.7505
10615TIP3   OH253335   4.915   0.774   4.268  0.5295  0.0005 -0.2464
10615TIP3    H153336   5.001   0.762   4.308  0.4687  1.0715  0.2467
10615TIP3    H253337   4.934   0.787   4.175  0.8885  0.0251 -0.1700
10616TIP3   OH253338   1.483   6.125  12.856 -0.1747 -0.1798 -0.1147
10616TIP3    H153339   1.547   6.054  12.850 -0.9146 -0.8404 -0.3372
10616TIP3    H253340   1.457   6.142  12.765  0.0753  0.4505 -0.0722
10617TIP3   OH253341   3.696   1.337  13.028  0.2221 -0.4740  0.1112
10617TIP3    H153342   3.691   1.241  13.028 -0.9578 -0.4350  0.8714
10617TIP3    H253343   3.761   1.358  12.960 -1.6069 -1.7093 -2.1478
10618TIP3   OH253344   1.809   6.412   4.035 -0.4435 -0.1520 -0.1714
10618TIP3    H153345   1.737   6.431   3.975 -1.1740  2.1665  1.3005
10618TIP3    H253346   1.867   6.487   4.028  1.3665 -1.5301 -0.5823
10619TIP3   OH253347   3.475   5.188  16.122 -0.2807  0.2938  0.3259
10619TIP3    H153348   3.530   5.230  16.056 -0.4863 -1.1493 -0.8051
10619TIP3    H253349   3.533   5.175  16.197 -0.1180  2.2050  0.5882
10620TIP3   OH253350   6.625   6.026   4.961 -0.0351 -0.1342  0.1890
10620TIP3    H153351   6.643   6.102   4.905  0.7692 -0.0781  0.5152
10620TIP3    H253352   6.630   6.060   5.050  0.9132 -0.6781  0.3602
10621TIP3   OH253353   2.234   6.471   6.181 -0.1298  0.2547  0.5829
10621TIP3    H153354   2.258   6.554   6.224  0.2387 -0.2359  1.3392
10621TIP3    H253355   2.282   6.404   6.230  0.5611 -0.2989 -0.7930
10622TIP3   OH253356   4.180   1.774   1.688 -0.5752  0.1450  0.1965
10622TIP3    H153357   4.219   1.748   1.771 -1.4069  1.1834  0.9442
10622TIP3    H253358   4.096   1.812   1.712 -0.9242  0.2826 -1.1485
10623TIP3   OH253359   6.499   3.947   5.625 -0.2419 -0.0853  0.3082
10623TIP3    H153360   6.448   4.022   5.598  1.2637  0.2477 -1.8457
10623TIP3    H253361   6.568   3.939   5.559  1.0856 -1.9040  1.7821
10624TIP3   OH253362   1.764   4.377   4.283  0.2876 -0.9529  0.0188
10624TIP3    H153363   1.759   4.372   4.378  1.2582 -0.0806  0.1275
10624TIP3    H253364   1.693   4.436   4.258 -0.5940 -1.9406  0.0950
10625TIP3   OH253365   4.526   2.574   5.813 -0.2573  0.4198  0.0786
10625TIP3    H153366   4.458   2.532   5.761 -0.2670  1.2590 -0.6174
10625TIP3    H253367   4.512   2.668   5.799  1.4248  0.6018 -0.6064
10626TIP3   OH253368   5.098   0.189   0.123  0.3193 -0.1372  0.3823
10626TIP3    H153369   5.186   0.153   0.111  0.3244  0.2119 -0.8169
10626TIP3    H253370   5.043   0.113   0.139  0.8042 -0.3737  0.9824
10627TIP3   OH253371   2.206   4.135  12.708 -0.1594 -0.3334 -0.4506
10627TIP3    H153372   2.295   4.149  12.742 -0.3564 -1.3852  0.5769
10627TIP3    H253373   2.167   4.222  12.706  0.2262 -0.0883  1.0825
10628TIP3   OH253374   0.583   0.703   5.461 -0.3944 -0.0140 -0.2379
10628TIP3    H153375   0.512   0.659   5.415  0.4388 -3.0137  1.0852
10628TIP3    H253376   0.545   0.724   5.547  0.3438 -2.1669  0.6956
10629TIP3   OH253377   4.213   4.394  15.196  0.1711 -0.6034 -0.2111
10629TIP3    H153378   4.212   4.474  15.143  3.4778 -0.6374 -0.4809
10629TIP3    H253379   4.162   4.331  15.144 -0.5653  0.6623 -1.0926
10630TIP3   OH253380   5.027   0.299  13.268  0.6253 -0.4031 -0.3973
10630TIP3    H153381   5.073   0.330  13.346 -2.2219  0.6244  0.9987
10630TIP3    H253382   5.010   0.206  13.286 -1.1738  0.1298  0.8984
10631TIP3   OH253383   1.925   2.264  12.363 -0.0993  0.3452  0.4472
10631TIP3    H153384   1.987   2.235  12.296  0.4624 -2.3910  2.0117
10631TIP3    H253385   1.863   2.192  12.371 -0.9104  1.1703  1.9787
10632TIP3   OH253386   6.665   4.463  11.417 -0.2591 -0.1040  0.5432
10632TIP3    H153387   6.698   4.534  11.361 -1.2996  0.6630  0.8929
10632TIP3    H253388   6.586   4.433  11.374 -0.7486  0.0934  1.2879
10633TIP3   OH253389   2.658   5.009  15.614  0.2308 -0.6298 -0.0006
10633TIP3    H153390   2.684   5.017  15.706  1.0948  0.1371 -0.2856
10633TIP3    H253391   2.567   4.981  15.617  0.2143 -0.5188  1.0946
10634TIP3   OH253392   4.406   1.413   0.469  0.2116  0.8364  0.0849
10634TIP3    H153393   4.351   1.396   0.393 -0.4062 -1.4037  0.9474
10634TIP3    H253394   4.346   1.407   0.544  1.0812  1.4247  0.8528
10635TIP3   OH253395   3.478   2.673  15.988  0.3459 -0.2700  0.0510
10635TIP3    H153396   3.479   2.644  15.897 -1.0562 -2.8464  0.7695
10635TIP3    H253397   3.565   2.648  16.022  0.8754  0.7094 -0.5427
10636TIP3   OH253398   1.475   5.495   1.664  0.1303  0.3848 -0.4121
10636TIP3    H153399   1.401   5.435   1.657  0.6783 -0.3060 -0.4153
10636TIP3    H253400   1.551   5.442   1.641  0.8039  0.6863  0.9781
10637TIP3   OH253401   4.139   2.910   3.833  0.2979 -0.6026 -0.4222
10637TIP3    H153402   4.127   2.825   3.875 -1.9869  0.3596  1.0671
10637TIP3    H253403   4.068   2.915   3.769  1.3991 -0.4480 -1.6639
10638TIP3   OH253404   5.624   0.388   5.785 -0.0184 -0.5048 -0.4248
10638TIP3    H153405   5.658   0.301   5.766 -2.2122 -1.9613  1.6667
10638TIP3    H253406   5.534   0.386   5.752 -0.2084  0.8589 -0.0635
10639TIP3   OH253407   6.461   0.963  12.441 -0.1244  0.2800  0.4600
10639TIP3    H153408   6.522   0.939  12.511 -0.3193 -0.0594  0.5150
10639TIP3    H253409   6.442   1.056  12.457 -1.1276 -0.0976  1.6062
10640TIP3   OH253410   0.427   4.832  15.301  0.1651 -0.1731  0.1295
10640TIP3    H153411   0.521   4.838  15.312  0.0352  0.4279  0.9894
10640TIP3    H253412   0.390   4.887  15.370 -0.8327 -0.9353  0.2409
10641TIP3   OH253413   1.968   6.696   0.757 -0.4609 -0.5208  0.4587
10641TIP3    H153414   1.949   6.696   0.663 -1.1236 -0.1805  0.5860
10641TIP3    H253415   2.042   6.636   0.766 -1.1550 -1.5079 -0.1380
10642TIP3   OH253416   1.706   2.390  11.979  0.4753  0.2533 -0.9622
10642TIP3    H153417   1.687   2.466  11.924  1.8429  1.4327  0.1386
10642TIP3    H253418   1.726   2.427  12.065 -2.4483 -1.5541  0.6787
10643TIP3   OH253419   1.079   1.982  12.941  0.0114 -0.6201 -0.0879
10643TIP3    H153420   1.076   1.921  13.014  1.3720 -2.3272 -1.3583
10643TIP3    H253421   0.998   2.033  12.948 -0.3519 -1.3820  1.9941
10644TIP3   OH253422   3.312   3.456  12.893 -0.0657 -0.2418 -0.2817
10644TIP3    H153423   3.320   3.393  12.821  1.6322  0.4979 -0.8131
10644TIP3    H253424   3.233   3.430  12.940 -0.5907 -1.4388 -1.7494
10645TIP3   OH253425   4.970   4.006   5.246 -0.5427 -0.3334  0.1252
10645TIP3    H153426   5.050   4.047   5.213 -1.2419 -0.0805 -1.3395
10645TIP3    H253427   4.899   4.052   5.201 -1.4450 -1.6154  0.1762
10646TIP3   OH253428   6.708   4.902   3.745  0.0142 -0.7912 -0.1726
10646TIP3    H153429   6.761   4.972   3.707  1.3146 -1.2868  0.6831
10646TIP3    H253430   6.629   4.947   3.776  1.7293  0.7718  2.3084
10647TIP3   OH253431   0.639   1.762  13.176  0.2280  0.4425  0.1659
10647TIP3    H153432   0.604   1.850  13.162 -0.7510 -0.1250 -1.1882
10647TIP3    H253433   0.708   1.752  13.111  1.9135  0.9871  1.8043
10648TIP3   OH253434   2.031   6.821   0.318 -0.6150  0.4296  1.0217
10648TIP3    H153435   2.042   6.762   0.392  3.1142  0.4097  0.6391
10648TIP3    H253436   2.044   6.908   0.355 -1.8940  0.7067  0.8647
10649TIP3   OH253437   5.317   2.847  14.181  0.0614 -0.4281  1.1186
10649TIP3    H153438   5.373   2.920  14.156 -1.0889  0.0016 -0.3495
10649TIP3    H253439   5.349   2.773  14.130 -0.7163 -0.1641  0.2225
10650TIP3   OH253440   0.383   5.177  11.243  0.3680  0.2821  0.0756
10650TIP3    H153441   0.447   5.174  11.172 -0.7706  1.7280 -1.0433
10650TIP3    H253442   0.299   5.164  11.201 -0.3362  1.1833  1.1607
10651TIP3   OH253443   6.549   2.452  13.753 -0.1978 -0.3766 -0.3767
10651TIP3    H153444   6.589   2.368  13.730 -1.7339 -0.5593 -2.7890
10651TIP3    H253445   6.618   2.516  13.737  0.4950 -1.0349 -0.0931
10652TIP3   OH253446   2.199   6.805  14.751  0.3724  0.2809  0.1099
10652TIP3    H153447   2.253   6.814  14.830  0.0451  2.0287  0.1679
10652TIP3    H253448   2.141   6.881  14.753 -1.1466 -0.8264 -0.6925
10653TIP3   OH253449   2.762   3.888  16.037 -0.0554 -0.8305  0.1413
10653TIP3    H153450   2.763   3.914  16.129 -0.8182 -0.9836  0.2047
10653TIP3    H253451   2.845   3.919  16.002  0.3494 -0.9823  0.9399
10654TIP3   OH253452   2.270   3.892  15.609  0.0102  0.3819 -0.3399
10654TIP3    H153453   2.253   3.802  15.637  1.0450  0.4800  0.6830
10654TIP3    H253454   2.336   3.885  15.541  2.0257  0.4626  1.4988
10655TIP3   OH253455   6.636   4.283  15.710 -0.2419 -0.2270  0.0089
10655TIP3    H153456   6.722   4.322  15.724 -1.2073  1.8444  0.5672
10655TIP3    H253457   6.643   4.196  15.750  2.0471 -0.8055 -1.4371
10656TIP3   OH253458   2.935   2.432   4.520 -0.0648 -0.8476 -0.0586
10656TIP3    H153459   2.890   2.456   4.600  2.7322 -2.3036  2.1297
10656TIP3    H253460   2.965   2.516   4.484  0.6070 -0.2722  1.7234
10657TIP3   OH253461   0.147   3.889  15.543 -0.0886  0.4253 -0.0255
10657TIP3    H153462   0.136   3.795  15.532  2.9000 -0.1024  0.5083
10657TIP3    H253463   0.098   3.928  15.471 -1.1699 -1.5405 -0.4169
10658TIP3   OH253464   5.139   4.480  11.110  0.1769 -0.8052  0.1776
10658TIP3    H153465   5.180   4.498  11.025  0.4261  0.9143  0.6328
10658TIP3    H253466   5.181   4.399  11.140  1.6486 -0.2918 -0.3825
10659TIP3   OH253467   1.546   3.785   1.356 -0.4475  0.1416  0.1932
10659TIP3    H153468   1.555   3.877   1.331  0.1534  0.2123  0.6544
10659TIP3    H253469   1.616   3.741   1.308  0.0147  0.1100  0.8902
10660TIP3   OH253470   2.468   3.339   3.754 -0.1311 -0.1597  0.1782
10660TIP3    H153471   2.506   3.427   3.759 -3.0468  1.3648 -1.7122
10660TIP3    H253472   2.529   3.284   3.803  2.8520  2.5197 -0.1722
10661TIP3   OH253473   1.546   4.663   1.335 -0.1020  0.1648  0.5485
10661TIP3    H153474   1.579   4.660   1.246 -2.0129  2.4074 -0.3249
10661TIP3    H253475   1.624   4.662   1.390  1.0939 -1.6253 -1.0931
10662TIP3   OH253476   3.983   0.640   6.316 -0.2841  0.0702 -0.1521
10662TIP3    H153477   3.999   0.591   6.398  0.5344  0.1381 -0.2654
10662TIP3    H253478   4.050   0.708   6.315 -0.0985 -0.1134 -1.0288
10663TIP3   OH253479   6.546   5.127   3.701 -0.2653 -0.4217 -0.0700
10663TIP3    H153480   6.489   5.201   3.720 -0.0152  0.2112 -1.6892
10663TIP3    H253481   6.634   5.164   3.698  0.1040 -1.1406  0.9560
10664TIP3   OH253482   2.166   2.301  11.124  0.2802 -0.4165  0.0001
10664TIP3    H153483   2.105   2.230  11.141 -0.1379 -0.0362  0.0920
10664TIP3    H253484   2.121   2.358  11.062  0.6107 -0.2248 -0.0679
10665TIP3   OH253485   0.626   4.508   3.664 -0.4219 -0.1357 -0.3882
10665TIP3    H153486   0.634   4.586   3.608 -0.8498  0.5593  0.4892
10665TIP3    H253487   0.622   4.543   3.753  0.0418 -1.2107  0.0678
10666TIP3   OH253488   0.767   4.946  16.769 -0.1971  0.8419  0.1515
10666TIP3    H153489   0.714   5.025  16.760 -0.4678  0.6487  0.0505
10666TIP3    H253490   0.790   4.922  16.679  0.8953  1.4846  0.2404
10667TIP3   OH253491   2.289   5.907   6.629 -0.4049  0.5329  0.0304
10667TIP3    H153492   2.251   5.872   6.709 -0.8610 -0.0581 -0.4331
10667TIP3    H253493   2.290   5.833   6.568 -0.1706  1.0001 -0.5479
10668TIP3   OH253494   0.524   4.486  13.261 -0.0432  0.1885  0.6492
10668TIP3    H153495   0.453   4.541  13.294 -0.5067 -0.3665  0.6097
10668TIP3    H253496   0.535   4.419  13.328  0.6814  0.4672  0.8139
10669TIP3   OH253497   2.528   6.037  13.432 -0.3668  0.2488 -0.2441
10669TIP3    H153498   2.612   6.013  13.473  0.1983 -0.9219 -2.0034
10669TIP3    H253499   2.521   6.131  13.447  0.6517  0.1616  0.9905
10670TIP3   OH253500   4.930   2.408  15.651  0.0760 -0.2215  0.0127
10670TIP3    H153501   5.015   2.393  15.609  0.6500 -0.3143  1.1717
10670TIP3    H253502   4.872   2.344  15.610  0.8501 -0.9414  0.0026
10671TIP3   OH253503   5.001   3.731   3.007  0.4293 -0.1442  0.1766
10671TIP3    H153504   5.019   3.825   3.018  0.2840  0.0886 -1.2959
10671TIP3    H253505   5.025   3.714   2.916 -0.5334 -1.3105  0.1299
10672TIP3   OH253506   4.777   5.527  16.184 -0.2197  0.3900  0.2524
10672TIP3    H153507   4.861   5.489  16.158 -0.9573  0.0187 -1.8416
10672TIP3    H253508   4.750   5.578  16.107 -1.7339  0.7940  1.0225
10673TIP3   OH253509   4.940   0.580   4.875  0.2535 -0.5685  0.0599
10673TIP3    H153510   4.845   0.592   4.874  0.4731  1.6482 -0.2655
10673TIP3    H253511   4.957   0.514   4.808 -0.9213  0.8448 -1.7377
10674TIP3   OH253512   2.412   1.079   3.016 -0.2054 -0.0860  0.6590
10674TIP3    H153513   2.399   1.171   2.992  0.0391 -0.4705 -1.1294
10674TIP3    H253514   2.328   1.052   3.052  0.4205  1.4328  3.5511
10675TIP3   OH253515   0.435   3.638  16.327 -0.3508  0.0085 -0.4104
10675TIP3    H153516   0.456   3.614  16.236 -0.6764 -0.3118 -0.4029
10675TIP3    H253517   0.520   3.643  16.371 -0.2378 -0.5683 -0.5549
10676TIP3   OH253518   0.502   4.245   2.533  0.5160 -0.1718  0.0844
10676TIP3    H153519   0.428   4.188   2.509  0.0578  0.5196 -0.1595
10676TIP3    H253520   0.559   4.243   2.456 -0.3920  1.1310 -0.6425
10677TIP3   OH253521   5.018   2.954   5.380  0.7485 -0.1610 -0.2218
10677TIP3    H153522   5.053   3.032   5.336  2.7373 -0.8750 -0.0073
10677TIP3    H253523   4.923   2.963   5.373  0.9323  0.6303 -3.1438
10678TIP3   OH253524   5.555   5.797  13.487  0.2577 -0.3834 -0.2210
10678TIP3    H153525   5.640   5.830  13.514  0.5073 -1.6594  0.6540
10678TIP3    H253526   5.543   5.717  13.538 -1.0215 -0.7665 -1.0686
10679TIP3   OH253527   4.959   4.666   4.283  0.6039 -0.1995  0.0608
10679TIP3    H153528   4.938   4.758   4.268  0.2508 -0.2722  0.0847
10679TIP3    H253529   5.054   4.662   4.280  0.6037  0.0517 -0.6115
10680TIP3   OH253530   5.426   3.582   1.770 -0.0780  0.9258  0.8542
10680TIP3    H153531   5.492   3.646   1.742 -0.6377  1.8504  1.6365
10680TIP3    H253532   5.347   3.606   1.722  0.2350 -0.5027 -0.4891
10681TIP3   OH253533   4.168   3.880   0.043 -0.0886  0.1111 -0.1060
10681TIP3    H153534   4.174   3.970   0.074 -2.4550 -0.2326  1.6807
10681TIP3    H253535   4.121   3.886  -0.040 -3.5817  0.4295  1.7083
10682TIP3   OH253536   1.894   2.901   4.572 -0.3241 -0.7395 -0.0141
10682TIP3    H153537   1.858   2.858   4.650 -0.4642 -1.2405 -0.3469
10682TIP3    H253538   1.979   2.935   4.600  0.1221 -1.8605  0.0887
10683TIP3   OH253539   3.854   0.371  12.803  0.2587 -0.4390 -0.0792
10683TIP3    H153540   3.842   0.363  12.708 -0.2443 -0.3543 -0.0277
10683TIP3    H253541   3.769   0.402  12.834  0.2577 -0.9829  0.4638
10684TIP3   OH253542   2.988   1.514   6.464 -0.0705 -0.1394  0.1720
10684TIP3    H153543   2.939   1.547   6.389  1.3201  0.4937 -0.5093
10684TIP3    H253544   2.941   1.547   6.541 -0.5175  0.7200 -0.4531
10685TIP3   OH253545   5.930   3.285   5.771  0.4183 -0.3029 -0.4024
10685TIP3    H153546   5.873   3.289   5.847  1.2702 -2.0504  0.3933
10685TIP3    H253547   5.871   3.284   5.696 -0.5630 -1.2996  0.3684
10686TIP3   OH253548   0.621   4.666  14.414 -0.1388 -0.2771 -0.0999
10686TIP3    H153549   0.527   4.683  14.406 -0.2513 -1.1165 -0.5714
10686TIP3    H253550   0.643   4.695  14.503 -0.9071 -0.3840  0.1295
10687TIP3   OH253551   5.274   0.713  17.053  0.1826  0.1163 -0.0787
10687TIP3    H153552   5.183   0.742  17.048  0.0933  0.0074  0.7719
10687TIP3    H253553   5.325   0.789  17.023 -0.1277  0.6467  0.6965
10688TIP3   OH253554   1.252   3.571  14.022 -0.0601  0.2810 -0.0923
10688TIP3    H153555   1.159   3.592  14.022  0.4519  2.9400 -0.5434
10688TIP3    H253556   1.296   3.656  14.018  2.4042 -0.8816  0.1029
10689TIP3   OH253557   3.693   1.044  13.150 -0.0595 -0.6554 -0.6483
10689TIP3    H153558   3.656   0.994  13.222 -0.0065 -0.1863 -0.2895
10689TIP3    H253559   3.676   0.991  13.072 -0.4392 -0.9924 -0.3379
10690TIP3   OH253560   4.165   6.802  12.585  0.2403  0.0653  0.0603
10690TIP3    H153561   4.146   6.891  12.613 -1.3457 -0.0847 -0.4177
10690TIP3    H253562   4.119   6.747  12.648  1.1061 -0.4279  0.2776
10691TIP3   OH253563   0.035   4.653   1.035  0.2688  0.4554  0.2497
10691TIP3    H153564   0.119   4.635   1.079  1.7454  0.9593 -2.1453
10691TIP3    H253565   0.016   4.744   1.056  0.2455  0.2958  0.9301
10692TIP3   OH253566   4.490   5.534  16.007 -0.3555  0.5272  0.2753
10692TIP3    H153567   4.569   5.582  15.981 -0.9228  0.2657 -2.2299
10692TIP3    H253568   4.482   5.550  16.101  2.5182  0.7548  0.5838
10693TIP3   OH253569   4.120   6.285  15.032  0.4118  0.4261 -0.8089
10693TIP3    H153570   4.068   6.291  14.952 -0.7085  0.8796 -0.0716
10693TIP3    H253571   4.181   6.358  15.027  1.4216 -0.4666 -1.9692
10694TIP3   OH253572   3.834   0.397   3.233 -0.1147  0.4471 -0.2523
10694TIP3    H153573   3.866   0.472   3.284  3.2134 -0.5862 -0.5697
10694TIP3    H253574   3.794   0.436   3.156  2.8766  2.0671 -1.1722
10695TIP3   OH253575   1.285   5.714   0.056 -0.3061 -0.0386  0.6497
10695TIP3    H153576   1.236   5.725   0.137 -1.2421  1.2031 -0.0552
10695TIP3    H253577   1.299   5.803   0.023 -0.1316 -0.5138 -0.6528
10696TIP3   OH253578   4.992   3.117   5.964 -0.2373 -0.1277 -0.4241
10696TIP3    H153579   4.911   3.103   6.013 -1.5353  0.9079 -2.1287
10696TIP3    H253580   5.032   3.194   6.004 -0.3979 -0.2817  0.0373
10697TIP3   OH253581   3.586   6.094  12.933 -0.3648  0.2069  0.6571
10697TIP3    H153582   3.556   6.171  12.884 -0.4547  1.2172  2.2081
10697TIP3    H253583   3.648   6.130  12.996  0.6929 -1.2313  0.4615
10698TIP3   OH253584   1.812   0.879   4.014 -0.3196 -0.0991 -0.5543
10698TIP3    H153585   1.893   0.928   4.003 -1.1884  1.4321 -0.4431
10698TIP3    H253586   1.829   0.794   3.974  1.0164  0.5473 -1.4222
10699TIP3   OH253587   1.062   1.367  15.559  0.2141 -0.6280  0.3831
10699TIP3    H153588   0.981   1.414  15.538 -0.1454 -1.0967  0.6857
10699TIP3    H253589   1.045   1.277  15.529  1.0150 -0.4981 -0.4994
10700TIP3   OH253590   1.503   2.849   5.079 -0.0307 -0.1370 -0.1796
10700TIP3    H153591   1.511   2.826   5.172 -0.4155 -1.2732 -0.3987
10700TIP3    H253592   1.469   2.938   5.079  2.0584  0.7246  0.7420
10701TIP3   OH253593   2.899   1.157   1.738 -0.4640  0.4263  0.8254
10701TIP3    H153594   2.986   1.195   1.734 -0.0120 -0.6168  0.3184
10701TIP3    H253595   2.840   1.229   1.718  0.4036  0.6604 -1.0611
10702TIP3   OH253596   6.475   3.769   1.811 -0.4030  1.0159 -0.3250
10702TIP3    H153597   6.549   3.725   1.770 -0.9706  0.6358 -0.9573
10702TIP3    H253598   6.399   3.717   1.786 -0.6970  0.1650  2.0496
10703TIP3   OH253599   0.663   5.104  14.505  0.2598 -0.6198 -0.6106
10703TIP3    H153600   0.673   5.040  14.434  0.6662 -0.1457 -0.9899
10703TIP3    H253601   0.568   5.117  14.512  0.2334 -0.3108 -1.3997
10704TIP3   OH253602   0.030   3.783   2.059  0.6172  0.0734 -0.0538
10704TIP3    H153603  -0.046   3.826   2.097  0.8368  0.6500 -0.2473
10704TIP3    H253604  -0.006   3.714   2.003  0.3145 -1.7403  2.2620
10705TIP3   OH253605   0.457   6.490  14.847  0.0593  0.4311  0.2363
10705TIP3    H153606   0.412   6.419  14.803  2.2905 -0.6274 -0.4939
10705TIP3    H253607   0.439   6.477  14.940  0.1037 -0.8359  0.0736
10706TIP3   OH253608   4.812   5.253  10.770 -0.0438  0.1646 -0.3495
10706TIP3    H153609   4.805   5.280  10.678 -0.2721  0.1954 -0.3228
10706TIP3    H253610   4.728   5.211  10.789  0.3620 -0.6934 -0.4321
10707TIP3   OH253611   2.253   1.604   4.922 -0.3597  0.5222  0.0410
10707TIP3    H153612   2.229   1.557   5.002 -0.1568 -0.4126 -0.4457
10707TIP3    H253613   2.192   1.572   4.856  0.3889  0.2442 -0.5233
10708TIP3   OH253614   4.640   4.739  14.682  0.2911  0.0254 -0.9420
10708TIP3    H153615   4.696   4.684  14.627 -0.2686  0.3150 -1.8250
10708TIP3    H253616   4.657   4.828  14.654  0.0227  0.1814 -0.6218
10709TIP3   OH253617   4.402   4.241  11.811 -0.0114  0.0619  0.0942
10709TIP3    H153618   4.420   4.252  11.718  0.3664  2.2698  0.3576
10709TIP3    H253619   4.481   4.273  11.855 -0.6244  0.1555  1.1691
10710TIP3   OH253620   0.358   1.056  12.626  0.7470 -0.2921 -0.1020
10710TIP3    H153621   0.416   1.115  12.578 -0.0212 -0.9926 -1.9932
10710TIP3    H253622   0.361   0.974  12.576 -3.1455  0.1565 -1.3698
10711TIP3   OH253623   2.408   1.260   2.372 -0.9272 -0.3072 -0.6391
10711TIP3    H153624   2.370   1.225   2.452 -0.9831  0.8507 -0.1483
10711TIP3    H253625   2.440   1.183   2.325 -1.5089 -1.0543  0.1704
10712TIP3   OH253626   6.770   4.415   1.513  0.0680 -0.2031 -0.2090
10712TIP3    H153627   6.703   4.473   1.549 -0.2093 -0.2856 -0.5899
10712TIP3    H253628   6.751   4.329   1.551  0.9571  0.1034  0.9846
10713TIP3   OH253629   1.172   2.295  10.675  0.1114  0.0196  0.2467
10713TIP3    H153630   1.155   2.368  10.616 -0.6536  0.6438  1.2111
10713TIP3    H253631   1.092   2.242  10.672  0.4448 -0.4794 -0.0169
10714TIP3   OH253632   0.361   5.740   1.764  0.0860  0.5289 -0.5432
10714TIP3    H153633   0.305   5.694   1.827  2.6117  0.3721  1.7834
10714TIP3    H253634   0.333   5.831   1.768  0.4016  0.5748  1.1030
10715TIP3   OH253635   5.370   6.485  12.340  0.5458 -0.1313  0.2493
10715TIP3    H153636   5.420   6.431  12.278 -0.6932 -1.2286  0.1642
10715TIP3    H253637   5.308   6.533  12.285 -2.6209 -3.3100  0.7174
10716TIP3   OH253638   6.721   0.460   0.050 -0.1656  0.0078 -0.0947
10716TIP3    H153639   6.639   0.500   0.023 -0.7874 -1.0739  0.1510
10716TIP3    H253640   6.707   0.432   0.140 -0.8839 -3.5255 -1.1517
10717TIP3   OH253641   4.497   2.461  16.977  0.3132  0.0609 -0.1080
10717TIP3    H153642   4.403   2.465  16.959 -0.0081 -1.2644  1.1962
10717TIP3    H253643   4.510   2.379  17.023  2.4822 -0.9190 -2.2424
10718TIP3   OH253644   5.900   1.801  12.577 -0.3742  0.2665 -0.4331
10718TIP3    H153645   5.817   1.794  12.625  0.0355  3.9278  1.2274
10718TIP3    H253646   5.967   1.801  12.646  0.7434  0.2869 -1.4953
10719TIP3   OH253647   4.287   5.551   2.231 -0.2131 -0.3608 -0.3739
10719TIP3    H153648   4.271   5.505   2.149  0.3082 -1.0654 -0.0914
10719TIP3    H253649   4.300   5.643   2.206 -1.2349 -0.3565 -0.9490
10720TIP3   OH253650   4.516   0.636   0.385  0.1226  0.6667  0.7702
10720TIP3    H153651   4.598   0.661   0.342 -0.3362 -0.7252 -1.0408
10720TIP3    H253652   4.517   0.684   0.467  1.5762  2.6424 -0.2997
10721TIP3   OH253653   5.530   4.841   0.660  0.3146  0.0011 -0.3766
10721TIP3    H153654   5.500   4.908   0.722  0.6572 -0.9152  0.8096
10721TIP3    H253655   5.598   4.793   0.707 -2.2070 -3.4123  0.1741
10722TIP3   OH253656   2.713   0.273   6.163 -0.4993  0.1621 -0.1167
10722TIP3    H153657   2.668   0.358   6.158 -1.7470 -0.4986 -0.6922
10722TIP3    H253658   2.665   0.217   6.102 -0.5762 -1.3497  1.2611
10723TIP3   OH253659   6.026   1.508   3.688 -0.2194  0.7458  0.6504
10723TIP3    H153660   6.069   1.560   3.620 -0.6219  2.5579  1.7113
10723TIP3    H253661   5.934   1.536   3.685 -0.9066 -1.3316  0.0022
10724TIP3   OH253662   3.371   1.391   4.544 -0.1242  0.2105 -0.4939
10724TIP3    H153663   3.432   1.358   4.610  0.4188 -0.7429 -1.4610
10724TIP3    H253664   3.285   1.386   4.587  0.0601 -1.5731 -0.2736
10725TIP3   OH253665   0.506   1.029   5.750  0.3864 -0.1060  0.1517
10725TIP3    H153666   0.563   1.069   5.684 -1.6763 -1.3151 -2.5190
10725TIP3    H253667   0.536   0.938   5.755  0.6797  0.0298  1.1201
10726TIP3   OH253668   0.058   0.842   3.787  0.1576 -0.4797 -0.1616
10726TIP3    H153669  -0.036   0.851   3.771  0.4381  5.4237 -0.4364
10726TIP3    H253670   0.096   0.825   3.701 -0.4476  1.0232 -0.7527
10727TIP3   OH253671   5.524   3.454  10.771 -0.0423 -0.3575  0.2586
10727TIP3    H153672   5.429   3.467  10.766 -0.3268 -1.9463  0.8765
10727TIP3    H253673   5.537   3.365  10.737  1.2199 -0.2044  0.3150
10728TIP3   OH253674   1.719   1.477  13.109 -0.2052 -0.4665 -0.3173
10728TIP3    H153675   1.732   1.410  13.042  0.3748  0.6243 -1.3600
10728TIP3    H253676   1.808   1.508  13.129 -0.5237  1.3244 -1.3528
10729TIP3   OH253677   2.273   4.540   3.622 -0.2616  0.4191 -0.3393
10729TIP3    H153678   2.187   4.520   3.586 -0.3980  0.9747 -0.3378
10729TIP3    H253679   2.261   4.624   3.667 -0.6086 -1.1020  2.6978
10730TIP3   OH253680   0.180   4.300  13.094 -0.2504  0.0440 -0.1124
10730TIP3    H153681   0.126   4.290  13.173  0.6024 -2.1520  0.2644
10730TIP3    H253682   0.185   4.394  13.081 -0.2386  0.5099  2.6131
10731TIP3   OH253683   0.951   6.148  15.346  0.3377  0.4505  0.5511
10731TIP3    H153684   0.960   6.134  15.441 -0.1951 -1.1935  0.3983
10731TIP3    H253685   1.000   6.075  15.307 -0.6467  0.2846 -0.4059
10732TIP3   OH253686   1.546   1.692  12.603 -0.1586  0.1267  0.0231
10732TIP3    H153687   1.498   1.611  12.588 -0.1756  0.0537  0.4659
10732TIP3    H253688   1.567   1.691  12.696  1.1540 -0.0940 -0.2477
10733TIP3   OH253689   0.938   1.343   4.231 -0.5807  0.0865 -0.0267
10733TIP3    H153690   1.011   1.395   4.262 -1.3354  1.0604  0.1581
10733TIP3    H253691   0.865   1.367   4.287 -1.6421  0.9035 -1.6746
10734TIP3   OH253692   3.365   1.751   1.864 -0.1497  0.2076 -0.1536
10734TIP3    H153693   3.327   1.677   1.817  0.2003  1.4080 -2.4323
10734TIP3    H253694   3.297   1.775   1.928 -0.8049 -1.2220 -0.2617
10735TIP3   OH253695   0.768   6.083  11.427 -0.1872 -0.2550 -0.5852
10735TIP3    H153696   0.779   6.143  11.500  2.0697 -0.1310 -0.9767
10735TIP3    H253697   0.679   6.100  11.395 -0.6149  0.8334  1.0717
10736TIP3   OH253698   6.655   2.051  13.898 -0.3236  0.1250 -0.0247
10736TIP3    H153699   6.671   2.093  13.813 -0.1958  1.3853  0.5927
10736TIP3    H253700   6.563   2.025  13.894 -0.9389  2.0676  0.1938
10737TIP3   OH253701   1.231   3.351  16.043  0.8418 -0.3023  0.6283
10737TIP3    H153702   1.166   3.372  15.976 -2.5034 -1.1669  3.3686
10737TIP3    H253703   1.233   3.255  16.045  1.2677 -0.2824  1.4289
10738TIP3   OH253704   1.895   3.871  16.630 -0.5573  0.0510 -0.0494
10738TIP3    H153705   1.917   3.927  16.555  1.1843 -0.3043  0.1706
10738TIP3    H253706   1.974   3.869  16.683 -0.8184 -2.0248  0.3394
10739TIP3   OH253707   1.836   1.204  14.009  0.0462 -0.3221 -0.6446
10739TIP3    H153708   1.844   1.253  14.091 -0.0675 -1.2958 -0.0221
10739TIP3    H253709   1.919   1.157  14.001  0.0196 -0.3048 -1.0383
10740TIP3   OH253710   3.937   2.355  13.116 -0.5995 -0.0106  0.3793
10740TIP3    H153711   3.912   2.342  13.207 -0.3036 -0.1287  0.4464
10740TIP3    H253712   4.014   2.299  13.104 -0.0360  0.7534  0.3316
10741TIP3   OH253713   6.811   2.654  12.654  0.1983 -0.2306  0.1273
10741TIP3    H153714   6.724   2.647  12.614  0.2447 -1.3566  0.1797
10741TIP3    H253715   6.841   2.563  12.663  1.2041  0.1163  0.5059
10742TIP3   OH253716   6.312   6.224  12.271 -0.1636  0.4791 -0.1943
10742TIP3    H153717   6.362   6.144  12.287 -1.1381  0.2838  2.4385
10742TIP3    H253718   6.377   6.294  12.273  0.6766 -0.1728 -2.3564
10743TIP3   OH253719   2.011   5.489   5.033 -0.1384  0.5154 -0.0127
10743TIP3    H153720   1.999   5.427   4.961  2.0358  1.2582 -1.0952
10743TIP3    H253721   2.076   5.449   5.089  0.7096  1.4316 -0.3106
10744TIP3   OH253722   2.841   4.680   5.990  0.0244 -0.6287 -0.3658
10744TIP3    H153723   2.776   4.746   5.963  1.1946 -0.0103 -1.8118
10744TIP3    H253724   2.798   4.596   5.973 -2.0439 -0.3975  2.8236
10745TIP3   OH253725   3.156   4.427  10.352  0.5485  0.1540  0.1353
10745TIP3    H153726   3.243   4.454  10.322  1.2659 -0.0624  1.8443
10745TIP3    H253727   3.171   4.343  10.395 -0.2869  0.6442  1.4539
10746TIP3   OH253728   6.001   5.679   2.991 -0.8028 -0.2553 -0.2944
10746TIP3    H153729   6.040   5.747   2.936 -0.5231  0.1616  0.4105
10746TIP3    H253730   6.026   5.597   2.949 -0.9527  0.0660 -1.0299
10747TIP3   OH253731   3.781   2.264   5.087  0.0384  0.2729 -0.0843
10747TIP3    H153732   3.876   2.271   5.092  0.0658  0.1760 -0.4505
10747TIP3    H253733   3.762   2.177   5.123  0.0518  0.4555  0.3732
10748TIP3   OH253734   1.830   1.425  16.600  0.3599 -0.5227 -0.3191
10748TIP3    H153735   1.845   1.410  16.506  1.1523  0.0467 -0.2953
10748TIP3    H253736   1.907   1.388  16.643  0.5140  0.1648  0.0155
10749TIP3   OH253737   0.708   4.218  15.295  0.5248  0.5471  0.7021
10749TIP3    H153738   0.618   4.214  15.329  0.1681 -0.5046 -0.3136
10749TIP3    H253739   0.763   4.207  15.373 -0.2288  0.5563  1.2522
10750TIP3   OH253740   1.599   2.611   2.131  0.3857  0.6576  0.4886
10750TIP3    H153741   1.552   2.542   2.177  1.3801  0.9290  1.9619
10750TIP3    H253742   1.550   2.691   2.151 -0.2519  0.5312 -0.4893
10751TIP3   OH253743   3.449   1.368  15.128 -0.6021  0.0495 -0.1017
10751TIP3    H153744   3.362   1.405  15.147 -1.0514 -0.3245 -1.3590
10751TIP3    H253745   3.457   1.373  15.033  0.4933 -0.5327 -0.0518
10752TIP3   OH253746   0.002   6.755  14.561  0.0341  0.4050  0.0185
10752TIP3    H153747  -0.047   6.678  14.587 -2.6322  1.5879 -1.1444
10752TIP3    H253748  -0.017   6.767  14.468 -0.8897  3.2510  0.4632
10753TIP3   OH253749   5.597   4.652   2.361  0.4357 -0.4773 -0.6781
10753TIP3    H153750   5.505   4.674   2.373  0.4144  0.1269 -1.8605
10753TIP3    H253751   5.641   4.691   2.437  0.0644  1.6032 -1.4521
10754TIP3   OH253752   1.763   6.507   4.640 -0.1746 -0.2229 -0.1090
10754TIP3    H153753   1.784   6.522   4.548 -0.7182 -2.0213 -0.5793
10754TIP3    H253754   1.668   6.498   4.642 -0.2783  0.8472  0.8243
10755TIP3   OH253755   6.785   2.499  15.882 -0.5863 -0.0929 -0.0101
10755TIP3    H153756   6.702   2.453  15.869 -0.0623 -1.1639  0.3193
10755TIP3    H253757   6.843   2.434  15.922  0.8707  0.1959 -1.5444
10756TIP3   OH253758   1.385   4.104  15.430 -0.3879 -0.1952  0.3013
10756TIP3    H153759   1.410   4.014  15.453 -1.5876 -0.5024  0.4397
10756TIP3    H253760   1.459   4.136  15.378 -1.0926 -2.2297 -2.1877
10757TIP3   OH253761   2.037   0.975   0.906 -0.7078 -0.2585 -0.3670
10757TIP3    H153762   1.974   0.995   0.974  0.3060 -0.6573  0.7232
10757TIP3    H253763   1.987   0.926   0.840 -1.3270 -1.4469  0.9452
10758TIP3   OH253764   0.172   5.702  12.933 -0.1885  0.1532  0.6698
10758TIP3    H153765   0.180   5.735  13.022 -1.7418 -0.2014  0.9662
10758TIP3    H253766   0.086   5.662  12.929 -0.7354  1.3347 -1.3621
10759TIP3   OH253767   6.237   4.739  10.859  0.2335 -0.3041 -0.6656
10759TIP3    H153768   6.270   4.690  10.935 -2.9764 -0.3371  0.8905
10759TIP3    H253769   6.295   4.715  10.787  2.7192 -1.2050  1.4957
10760TIP3   OH253770   2.291   2.523   6.260 -0.0635 -0.0446  0.9993
10760TIP3    H153771   2.332   2.549   6.177 -0.3760  2.1472  1.4600
10760TIP3    H253772   2.302   2.428   6.264  0.5399 -0.1236 -1.2317
10761TIP3   OH253773   5.885   0.933   1.685  0.0378 -0.3194 -0.2071
10761TIP3    H153774   5.868   0.988   1.608  3.2234  0.9228 -0.1710
10761TIP3    H253775   5.922   0.852   1.649 -1.6793 -1.1906 -0.0929
10762TIP3   OH253776   5.237   3.309  15.325  0.2674 -0.5468  0.1272
10762TIP3    H153777   5.245   3.217  15.352 -1.0935  0.0042  2.7174
10762TIP3    H253778   5.164   3.309  15.263  1.2197 -1.3705 -1.0506
10763TIP3   OH253779   6.193   2.387  11.448 -0.6572 -0.0948  0.6051
10763TIP3    H153780   6.286   2.374  11.468 -0.2933  0.6579 -0.4662
10763TIP3    H253781   6.192   2.407  11.354 -1.9386 -0.3814  0.5466
10764TIP3   OH253782   6.030   3.771   1.119 -0.0085  0.5902  0.0462
10764TIP3    H153783   6.031   3.824   1.039  1.2503 -0.9059 -1.0015
10764TIP3    H253784   6.099   3.809   1.173  1.1724 -0.1757 -0.8725
10765TIP3   OH253785   0.206   4.522  16.187  0.1908 -0.0350  0.6372
10765TIP3    H153786   0.111   4.512  16.184  0.2303 -0.8302  1.4252
10765TIP3    H253787   0.223   4.605  16.143 -0.9006  0.3326  0.8700
10766TIP3   OH253788   5.071   6.603  13.191  0.0522 -0.3221 -0.1583
10766TIP3    H153789   5.107   6.538  13.251  1.5322  0.1495 -0.5172
10766TIP3    H253790   5.061   6.556  13.108 -2.5334 -1.1397  0.5121
10767TIP3   OH253791   1.698   5.938  12.763  0.1334 -0.2595 -0.2574
10767TIP3    H153792   1.769   5.983  12.807  0.0461 -0.2176 -0.1585
10767TIP3    H253793   1.731   5.919  12.675  1.1854 -2.4308  0.5332
10768TIP3   OH253794   0.477   3.821  15.957 -0.2708  0.3022 -0.1796
10768TIP3    H153795   0.466   3.808  15.862 -2.2402  2.3616 -0.3048
10768TIP3    H253796   0.549   3.884  15.964  0.5311 -0.5743 -0.2009
10769TIP3   OH253797   2.223   2.110   4.479  0.3685  0.0653  0.1402
10769TIP3    H153798   2.177   2.132   4.560  0.6486 -2.6199  1.1236
10769TIP3    H253799   2.316   2.117   4.502  0.4854 -2.4690  0.6880
10770TIP3   OH253800   0.292   0.512  14.914 -0.8036  0.2451 -0.2622
10770TIP3    H153801   0.293   0.582  14.849 -0.0992 -1.1762 -1.8430
10770TIP3    H253802   0.385   0.499  14.935 -0.7853 -1.2401 -1.1614
10771TIP3   OH253803   5.313   1.358  14.713  0.6228 -0.5103 -0.1122
10771TIP3    H153804   5.218   1.357  14.719  0.6324 -1.2348 -0.0283
10771TIP3    H253805   5.332   1.402  14.631  0.2539  1.1036  0.6317
10772TIP3   OH253806   2.893   5.450  15.624  0.2200  0.2525 -0.3086
10772TIP3    H153807   2.927   5.421  15.540  0.4213 -0.2531 -0.0570
10772TIP3    H253808   2.802   5.420  15.625  0.8096 -1.6692  0.5273
10773TIP3   OH253809   5.622   1.500  13.227  0.5966 -0.1839  0.0452
10773TIP3    H153810   5.598   1.477  13.137  1.5887  1.3257 -0.6534
10773TIP3    H253811   5.717   1.509  13.225  0.6999 -0.7968  1.4255
10774TIP3   OH253812   3.581   1.308  11.949 -0.0078 -0.2816  0.2970
10774TIP3    H153813   3.494   1.269  11.960 -0.6523  0.9589 -0.1876
10774TIP3    H253814   3.642   1.236  11.966 -1.1109 -1.0497  1.1574
10775TIP3   OH253815   5.382   3.457  16.441  0.3619  0.1635  0.1016
10775TIP3    H153816   5.382   3.497  16.353 -1.6645 -0.8139 -0.4105
10775TIP3    H253817   5.421   3.524  16.497  1.4503  0.9382 -1.4892
10776TIP3   OH253818   0.685   4.732  13.106  0.0716  0.0779  0.5672
10776TIP3    H153819   0.764   4.750  13.054 -0.8441 -0.1838 -0.9996
10776TIP3    H253820   0.670   4.638  13.096 -0.6046  0.1768  0.5853
10777TIP3   OH253821   2.421   1.485  15.967  0.5477  0.2921 -0.1411
10777TIP3    H153822   2.332   1.460  15.943  0.2070  0.0813  1.2527
10777TIP3    H253823   2.435   1.446  16.054  2.2224 -0.1958 -0.5756
10778TIP3   OH253824   3.517   5.243   4.886  0.4081  0.1978 -0.1693
10778TIP3    H153825   3.586   5.298   4.848  2.6240 -1.4380  1.2037
10778TIP3    H253826   3.493   5.287   4.967  0.3413  0.4044 -0.2986
10779TIP3   OH253827   1.108   1.875   2.915  0.8983 -0.3651 -0.0507
10779TIP3    H153828   1.052   1.931   2.969 -1.1931 -1.0236 -1.3906
10779TIP3    H253829   1.165   1.831   2.978  0.2167  0.6714  1.3565
10780TIP3   OH253830   5.299   1.114  15.800 -0.1551 -0.5702  0.8135
10780TIP3    H153831   5.379   1.165  15.809  0.0880 -0.9768  0.9824
10780TIP3    H253832   5.228   1.179  15.800  0.1300 -0.2608  1.3008
10781TIP3   OH253833   2.738   1.124  15.862 -0.3066 -0.0718 -0.8545
10781TIP3    H153834   2.788   1.195  15.903  0.1963 -1.1370  0.4316
10781TIP3    H253835   2.660   1.168  15.826 -1.2340  0.8521  2.0016
10782TIP3   OH253836   0.915   4.808   4.745  0.4314 -0.0641 -0.0054
10782TIP3    H153837   0.887   4.898   4.726  0.2365 -0.0648  0.2669
10782TIP3    H253838   0.857   4.753   4.691  0.2341 -0.0450  0.1855
10783TIP3   OH253839   1.600   1.211  11.387 -0.0672  0.5148  0.1499
10783TIP3    H153840   1.561   1.126  11.365  1.3761  0.3135 -1.9146
10783TIP3    H253841   1.539   1.275  11.351 -0.3480  0.3180  0.2667
10784TIP3   OH253842   6.773   5.806   5.037  0.2339  0.9328 -0.5327
10784TIP3    H153843   6.865   5.830   5.048  0.5569 -0.3039 -0.3954
10784TIP3    H253844   6.737   5.875   4.981  1.5558  0.7722 -1.6410
10785TIP3   OH253845   1.035   2.840  15.178 -0.1556 -0.0820 -0.3124
10785TIP3    H153846   1.007   2.909  15.238 -1.5252 -0.3166 -0.6301
10785TIP3    H253847   1.059   2.886  15.097 -2.2696  0.0045 -0.9629
10786TIP3   OH253848   4.307   0.027   0.417 -0.1140 -0.8580  0.1445
10786TIP3    H153849   4.365   0.002   0.345  2.2978 -0.2286  1.7529
10786TIP3    H253850   4.327   0.119   0.433 -1.2980 -0.7320  1.0051
10787TIP3   OH253851   5.686   0.479  14.301 -0.5676  0.3207  0.3579
10787TIP3    H153852   5.723   0.396  14.274 -2.2261 -1.5702  3.3720
10787TIP3    H253853   5.604   0.487  14.251 -0.6040 -0.0651  0.3578
10788TIP3   OH253854   1.741   3.491   0.847  0.5310 -0.2921 -0.3646
10788TIP3    H153855   1.831   3.520   0.862  0.4672 -0.2897  0.0208
10788TIP3    H253856   1.711   3.460   0.933 -0.0216  0.2384 -0.3600
10789TIP3   OH253857   4.544   0.435   5.738 -0.5620 -0.4467  0.5074
10789TIP3    H153858   4.451   0.413   5.748 -0.3124 -1.6495  0.4203
10789TIP3    H253859   4.565   0.487   5.816 -1.2696 -0.3180  0.6182
10790TIP3   OH253860   1.523   3.700   1.015  0.4350  0.2613 -0.7696
10790TIP3    H153861   1.594   3.681   1.076  0.5922  0.4840 -0.8850
10790TIP3    H253862   1.443   3.681   1.065  0.5848 -0.6494 -0.8554
10791TIP3   OH253863   1.179   6.841  14.593 -0.2011 -0.0103  0.3840
10791TIP3    H153864   1.162   6.935  14.582  0.6168 -0.0456 -1.4884
10791TIP3    H253865   1.094   6.805  14.620 -0.9371  1.0410 -0.4440
10792TIP3   OH253866   2.932   1.040  16.295  0.0476  0.2494  0.2222
10792TIP3    H153867   3.027   1.047  16.297  0.0308  0.5184  0.0960
10792TIP3    H253868   2.915   0.960  16.246  0.1909  0.8055 -0.7660
10793TIP3   OH253869   3.057   1.658   6.197 -1.1135 -0.2296 -0.1922
10793TIP3    H153870   3.115   1.671   6.271 -1.8571  2.8028 -0.0239
10793TIP3    H253871   2.978   1.619   6.234 -0.4077 -1.4737  0.0652
10794TIP3   OH253872   6.187   0.291  13.909 -0.0564  0.5413 -0.2526
10794TIP3    H153873   6.271   0.329  13.882  0.4173  0.7135  1.3692
10794TIP3    H253874   6.190   0.291  14.005 -0.6254 -2.3126 -0.1440
10795TIP3   OH253875   0.682   1.988   0.604 -0.2440 -0.0050  0.2382
10795TIP3    H153876   0.637   2.001   0.520  0.3949 -0.6928 -0.2150
10795TIP3    H253877   0.657   2.065   0.655 -1.5194 -0.1010 -0.1856
10796TIP3   OH253878   5.576   0.409  14.557  0.2690  0.3657 -0.1020
10796TIP3    H153879   5.590   0.480  14.495 -2.4831  3.0102  2.0294
10796TIP3    H253880   5.612   0.441  14.640  0.5690 -1.5268  0.5607
10797TIP3   OH253881   0.124   5.318   2.356  0.0299  0.1109 -0.2315
10797TIP3    H153882   0.066   5.243   2.347 -1.2877  1.0622  0.1074
10797TIP3    H253883   0.194   5.288   2.414 -1.5677 -0.2475  1.5841
10798TIP3   OH253884   1.322   4.871  10.610 -0.1389 -0.2039 -0.3234
10798TIP3    H153885   1.340   4.784  10.646 -0.7482  0.1452  0.8729
10798TIP3    H253886   1.347   4.931  10.680 -2.9096  0.4360  0.2159
10799TIP3   OH253887   5.362   0.783   2.890 -0.7308  0.2618  0.2965
10799TIP3    H153888   5.284   0.767   2.942 -1.4200 -1.7228 -1.2478
10799TIP3    H253889   5.334   0.772   2.800  0.6497  2.6552 -0.5098
10800TIP3   OH253890   4.470   3.852   0.435  0.4803 -0.8625  0.1032
10800TIP3    H153891   4.496   3.943   0.421  0.6725 -0.9644 -0.2304
10800TIP3    H253892   4.375   3.856   0.448  0.7745 -0.3800  2.3897
10801TIP3   OH253893   1.573   4.946   1.887  0.1536 -0.3391  0.4813
10801TIP3    H153894   1.551   4.869   1.938 -0.4041 -1.0809 -0.8366
10801TIP3    H253895   1.519   5.016   1.923 -1.0269 -1.0995  0.2213
10802TIP3   OH253896   2.788   0.858   2.215 -0.0837 -0.0137 -0.1449
10802TIP3    H153897   2.829   0.910   2.285  0.5800 -0.1476 -0.4225
10802TIP3    H253898   2.794   0.768   2.246  1.0508 -0.1710 -0.7664
10803TIP3   OH253899   0.826   0.530   3.287 -0.0539 -0.2590 -0.0905
10803TIP3    H153900   0.872   0.594   3.233  0.5683 -0.4905  0.1599
10803TIP3    H253901   0.872   0.448   3.273 -2.4631 -1.3684 -2.5536
10804TIP3   OH253902   4.659   0.566   4.891 -0.4502 -0.2361 -0.0247
10804TIP3    H153903   4.597   0.493   4.893  0.8516 -1.3881 -0.3147
10804TIP3    H253904   4.617   0.632   4.837 -0.5968 -1.7995 -1.9251
10805TIP3   OH253905   0.455   0.895  10.699 -0.1599 -0.1857 -0.2754
10805TIP3    H153906   0.424   0.972  10.652 -0.4611 -0.0564  0.1325
10805TIP3    H253907   0.376   0.854  10.734 -0.2629 -1.9784 -2.4233
10806TIP3   OH253908   1.649   0.133  14.218  0.5749  0.6550  0.0981
10806TIP3    H153909   1.600   0.066  14.170  2.8601  0.0310 -1.5424
10806TIP3    H253910   1.584   0.172  14.277 -1.7695 -0.3266 -1.6508
10807TIP3   OH253911   2.040   2.513  11.366  0.3748 -0.0655 -0.1265
10807TIP3    H153912   2.016   2.606  11.361  0.1102 -0.0714  0.7169
10807TIP3    H253913   2.133   2.514  11.386  0.8694 -0.0256 -2.2295
10808TIP3   OH253914   5.964   3.504  16.725 -0.0081  0.5793  0.3765
10808TIP3    H153915   5.940   3.488  16.634  1.9698  0.8133 -0.2425
10808TIP3    H253916   6.054   3.537  16.720  0.7181 -0.8779  2.5060
10809TIP3   OH253917   4.951   1.738   3.446  0.4963 -0.0296  0.0190
10809TIP3    H153918   5.014   1.693   3.503 -0.5110 -0.0021  1.2024
10809TIP3    H253919   4.899   1.667   3.408  1.4170 -0.0744 -1.2216
10810TIP3   OH253920   6.420   0.848   3.904  0.0411 -0.8895  0.1175
10810TIP3    H153921   6.381   0.767   3.935  0.3885 -2.0792 -2.3428
10810TIP3    H253922   6.391   0.856   3.813 -0.5816  2.1634  0.4900
10811TIP3   OH253923   4.523   2.010  15.753 -0.2692  0.2457 -0.6087
10811TIP3    H153924   4.477   2.070  15.695  0.8970  1.0736 -0.7217
10811TIP3    H253925   4.591   2.064  15.794 -0.4423 -0.5479  0.7912
10812TIP3   OH253926   6.056   2.394   2.311 -0.0092  0.0639 -0.0955
10812TIP3    H153927   6.093   2.381   2.224 -1.8147  0.7525 -1.0204
10812TIP3    H253928   6.013   2.311   2.332 -0.4584  0.2379 -0.3207
10813TIP3   OH253929   0.597   4.864  11.732 -0.6794  0.6061 -0.3955
10813TIP3    H153930   0.683   4.885  11.695  1.1683 -2.7900  1.4125
10813TIP3    H253931   0.559   4.802  11.670 -1.5426  1.5135 -0.8023
10814TIP3   OH253932   0.739   1.934   2.872  0.5049  0.3750 -0.4648
10814TIP3    H153933   0.679   1.879   2.821 -0.3929  0.0212  0.9242
10814TIP3    H253934   0.775   1.875   2.938  1.2961  0.9391 -0.3802
10815TIP3   OH253935   3.862   4.984   5.218  0.1091 -0.5750 -0.5997
10815TIP3    H153936   3.867   5.069   5.262  0.0712 -0.8944  0.0498
10815TIP3    H253937   3.795   4.936   5.267 -0.6328 -0.6055 -1.6330
10816TIP3   OH253938   1.269   1.142  16.004  0.2284  0.7287 -0.1151
10816TIP3    H153939   1.335   1.197  16.046 -0.3357  1.0634  0.3444
10816TIP3    H253940   1.197   1.137  16.067  0.2345 -0.4814 -0.1725
10817TIP3   OH253941   4.204   0.057  13.903 -0.0615  0.0592  0.5391
10817TIP3    H153942   4.200  -0.008  13.832  0.4812  1.0643 -0.4473
10817TIP3    H253943   4.290   0.042  13.944  0.3290  0.5256 -0.0814
10818TIP3   OH253944   4.806   1.006  15.325 -0.1879 -0.0948 -0.0790
10818TIP3    H153945   4.740   1.054  15.376 -0.5546 -0.2509 -0.4050
10818TIP3    H253946   4.889   1.028  15.367 -0.5826 -1.0774  1.2775
10819TIP3   OH253947   2.443   5.957  13.817 -0.2720  0.6886 -0.0209
10819TIP3    H153948   2.412   6.037  13.776  0.9527  1.1752 -0.0369
10819TIP3    H253949   2.464   5.983  13.907  1.3344  0.7157 -0.3759
10820TIP3   OH253950   0.623   0.364  15.766  0.4551  0.4285  0.1690
10820TIP3    H153951   0.579   0.444  15.794  2.3930  2.1140 -1.2541
10820TIP3    H253952   0.661   0.387  15.680  2.2563 -1.5467  0.3565
10821TIP3   OH253953   2.256   5.288  11.196  0.5110 -0.1124  0.1648
10821TIP3    H153954   2.284   5.200  11.221 -0.6711 -0.4943  0.2009
10821TIP3    H253955   2.332   5.326  11.152  1.1103 -1.0642  0.3616
10822TIP3   OH253956   0.391   1.820   2.103  0.7965 -0.3670  0.3624
10822TIP3    H153957   0.410   1.779   2.019  0.5408  0.6168 -0.1901
10822TIP3    H253958   0.476   1.827   2.146  0.5827 -3.7611  1.5936
10823TIP3   OH253959   6.320   5.927  12.739 -0.0926  0.3218 -0.4868
10823TIP3    H153960   6.354   6.001  12.689  2.0219 -0.3187 -0.0748
10823TIP3    H253961   6.326   5.853  12.678 -0.4260  0.1240 -0.2832
10824TIP3   OH253962   0.588   6.237   3.453 -0.1612 -0.0107  0.5197
10824TIP3    H153963   0.589   6.142   3.450  0.7310 -0.0188  0.8518
10824TIP3    H253964   0.669   6.261   3.497  1.3470  1.0158 -2.5223
10825TIP3   OH253965   6.194   4.993   1.313 -0.3944 -0.5307  0.0990
10825TIP3    H153966   6.265   5.050   1.285 -0.2274 -0.4642  0.6369
10825TIP3    H253967   6.230   4.904   1.307 -0.5467 -0.5565 -0.4303
10826TIP3   OH253968   4.083   6.016   4.437 -0.8376 -0.1645  0.3195
10826TIP3    H153969   4.074   6.099   4.390 -2.9019 -0.1231  0.6843
10826TIP3    H253970   4.015   6.019   4.505 -0.7529 -2.0146  0.5491
10827TIP3   OH253971   2.387   6.062  14.709 -0.1977 -0.0724 -0.0310
10827TIP3    H153972   2.295   6.052  14.683 -0.2521 -0.8877  0.4090
10827TIP3    H253973   2.385   6.120  14.785 -0.3448  0.0105 -0.0991
10828TIP3   OH253974   0.092   1.324  16.913  0.3963  0.0553  0.3808
10828TIP3    H153975   0.040   1.245  16.931  0.1353  0.1378  0.0090
10828TIP3    H253976   0.084   1.376  16.993 -1.8474  1.0183 -0.3978
10829TIP3   OH253977   3.065   5.660   5.532  0.0332  0.0537  0.0687
10829TIP3    H153978   3.074   5.686   5.441 -1.0707 -1.2440 -0.4498
10829TIP3    H253979   3.015   5.578   5.529 -0.0623 -0.0006  1.8394
10830TIP3   OH253980   6.109   0.981  12.046  0.4709 -0.3531 -0.1246
10830TIP3    H153981   6.187   1.000  12.099  0.6160 -1.0136 -0.0993
10830TIP3    H253982   6.091   1.064  12.001  0.5300  0.1231  0.7044
10831TIP3   OH253983   1.596   0.544  12.935 -0.5246 -0.1943 -0.2517
10831TIP3    H153984   1.544   0.566  12.858 -1.8425 -2.6528 -0.1858
10831TIP3    H253985   1.534   0.548  13.008  0.1952  0.0364  0.3583
10832TIP3   OH253986   3.812   1.999  13.297  0.3939 -0.3060  0.3959
10832TIP3    H153987   3.811   2.006  13.201  0.7028  1.6124  0.4914
10832TIP3    H253988   3.887   1.944  13.317  0.3086 -0.7502 -0.4586
10833TIP3   OH253989   2.249   6.101  16.722 -0.0400 -0.3151 -0.1837
10833TIP3    H153990   2.336   6.064  16.725 -0.0206 -0.2324  0.6915
10833TIP3    H253991   2.251   6.163  16.649  1.3845  1.4580  1.2490
10834TIP3   OH253992   0.192   5.976  13.813 -0.6024  0.2346 -0.4216
10834TIP3    H153993   0.239   6.059  13.818  2.0001 -1.1204 -0.8213
10834TIP3    H253994   0.151   5.967  13.900 -1.0845  1.9418 -0.4202
10835TIP3   OH253995   0.426   0.533   5.232  0.0937  0.6377 -0.3793
10835TIP3    H153996   0.486   0.565   5.165 -1.0576 -0.4775 -2.0335
10835TIP3    H253997   0.412   0.441   5.209  0.2793 -0.0165  1.8916
10836TIP3   OH253998   5.947   4.420   2.427 -0.2380 -0.2524 -0.0953
10836TIP3    H153999   6.032   4.391   2.394 -0.9748 -0.0523 -2.3094
10836TIP3    H254000   5.886   4.403   2.356 -1.9601  0.2520  1.1840
10837TIP3   OH254001   0.316   4.132   1.350 -0.9879 -0.1744 -0.1667
10837TIP3    H154002   0.232   4.097   1.377 -1.3621  0.7927 -0.0255
10837TIP3    H254003   0.373   4.056   1.343 -2.0202 -0.9038 -0.8275
10838TIP3   OH254004   1.131   5.342   5.238 -0.1023  0.1072  0.0039
10838TIP3    H154005   1.158   5.434   5.245  1.4920 -0.2989 -0.4391
10838TIP3    H254006   1.050   5.337   5.288 -0.4458  1.8466 -0.3024
10839TIP3   OH254007   2.420   1.996   5.498 -0.0878  0.0729  0.1401
10839TIP3    H154008   2.402   1.971   5.408 -1.1739 -3.1071  1.1111
10839TIP3    H254009   2.501   2.047   5.494  0.4331 -0.8508 -2.4944
10840TIP3   OH254010   5.660   5.993  17.106  0.0779 -0.0810  0.4915
10840TIP3    H154011   5.638   6.029  17.019 -0.2165 -1.7054 -0.1380
10840TIP3    H254012   5.686   5.903  17.089  0.2583 -0.3589  2.0879
10841TIP3   OH254013   2.136   3.246   5.488  0.4900 -0.2305  0.2330
10841TIP3    H154014   2.180   3.330   5.496  0.0752  0.1441 -1.1280
10841TIP3    H254015   2.135   3.211   5.577 -2.9413  3.0140  1.7330
10842TIP3   OH254016   6.096   0.306   2.583 -0.1842 -0.0931 -0.2777
10842TIP3    H154017   6.039   0.375   2.618 -1.1888  0.0863 -2.1852
10842TIP3    H254018   6.100   0.241   2.653  0.3436  1.6020  1.3575
10843TIP3   OH254019   0.948   5.672  10.936 -0.0829 -0.6316 -0.7204
10843TIP3    H154020   0.880   5.611  10.910  0.8258 -1.0268 -2.2940
10843TIP3    H254021   0.998   5.688  10.856  1.4623 -0.0942  0.3067
10844TIP3   OH254022   3.840   2.527   1.838  0.3922 -0.0064  0.3182
10844TIP3    H154023   3.872   2.599   1.892  1.6856  0.0424 -0.4792
10844TIP3    H254024   3.810   2.569   1.757 -2.2453  0.0104  1.2017
10845TIP3   OH254025   0.011   6.626  11.952 -0.0076 -0.2455 -0.0033
10845TIP3    H154026   0.074   6.688  11.990  1.2831 -1.3058 -0.3039
10845TIP3    H254027  -0.052   6.609  12.022  0.9367 -0.3198  0.8522
10846TIP3   OH254028   3.298   4.999  13.667 -0.1436 -0.0658  0.0820
10846TIP3    H154029   3.304   4.906  13.686 -0.4778 -0.3169 -1.0061
10846TIP3    H254030   3.379   5.020  13.620 -0.7615 -0.1590 -1.0536
10847TIP3   OH254031   1.165   5.871   3.938  0.0038 -0.1693  0.1023
10847TIP3    H154032   1.222   5.873   3.862  1.1856 -2.7183  0.7851
10847TIP3    H254033   1.079   5.848   3.903  0.6492 -1.8531 -0.4748
10848TIP3   OH254034   1.968   5.691  14.441 -0.3104 -0.0591  0.5740
10848TIP3    H154035   2.043   5.750  14.435  0.0589 -0.3819  1.7542
10848TIP3    H254036   2.005   5.604  14.425 -0.9567  0.0204 -1.8352
10849TIP3   OH254037   1.269   5.288  16.691 -0.2620  0.6510 -0.2144
10849TIP3    H154038   1.203   5.279  16.759  1.8767 -2.7272  1.7500
10849TIP3    H254039   1.247   5.220  16.627  1.6588 -1.2243  0.9791
10850TIP3   OH254040   1.559   5.737   4.912  0.8658 -0.2121 -0.1727
10850TIP3    H154041   1.470   5.772   4.903  0.5625 -0.8167  0.4232
10850TIP3    H254042   1.615   5.807   4.878  0.1682  0.1854 -0.5346
10851TIP3   OH254043   4.365   0.381  12.595  0.3774 -0.5405  0.0364
10851TIP3    H154044   4.380   0.294  12.632 -0.1917 -0.8449 -0.4310
10851TIP3    H254045   4.412   0.380  12.511  0.3661 -0.3921  0.0274
10852TIP3   OH254046   3.168   0.788  12.431  0.4915  0.2508 -0.2157
10852TIP3    H154047   3.113   0.742  12.369 -0.5845  2.2582 -0.8625
10852TIP3    H254048   3.170   0.732  12.508 -1.1953 -0.6193 -0.7530
10853TIP3   OH254049   3.928   2.760   1.966 -0.6021 -0.2826 -0.1960
10853TIP3    H154050   3.917   2.773   2.061 -1.6431 -0.0019 -0.3410
10853TIP3    H254051   3.973   2.838   1.936 -1.2581  0.1391 -0.0952
10854TIP3   OH254052   6.634   2.915   3.616 -0.2095 -0.3074  0.1842
10854TIP3    H154053   6.630   2.907   3.711  1.0010  0.5858  0.3387
10854TIP3    H254054   6.634   2.824   3.584 -0.5487 -0.6141  1.0302
10855TIP3   OH254055   0.012   6.049   3.072 -0.0954 -0.2811 -0.3318
10855TIP3    H154056   0.002   6.077   2.981 -0.3509  0.5738 -0.0481
10855TIP3    H254057   0.060   6.120   3.114  0.0979 -0.7108  0.1929
10856TIP3   OH254058   4.544   5.493  11.971 -0.2758 -0.1687 -0.2107
10856TIP3    H154059   4.597   5.442  12.032  1.7929 -0.2084 -1.9015
10856TIP3    H254060   4.559   5.584  11.998  2.0598 -0.0537 -1.5632
10857TIP3   OH254061   1.820   5.304  15.656 -0.4583 -0.0938  0.2545
10857TIP3    H154062   1.756   5.234  15.638 -1.1880  0.5993  0.1002
10857TIP3    H254063   1.905   5.260  15.649 -0.8694 -0.7942 -0.6618
10858TIP3   OH254064   4.586   0.860   5.933  0.1337 -0.3069  0.6353
10858TIP3    H154065   4.605   0.937   5.986 -0.9107 -0.6024  1.4807
10858TIP3    H254066   4.564   0.792   5.997 -1.3175 -0.6354 -0.1574
10859TIP3   OH254067   2.589   1.762   5.760  0.7107 -0.0316 -0.8782
10859TIP3    H154068   2.563   1.841   5.806 -0.6182 -0.6319 -0.5582
10859TIP3    H254069   2.624   1.793   5.676  2.2286  0.9998  0.0887
10860TIP3   OH254070   4.383   1.197   4.047  0.3291  0.7935  0.0527
10860TIP3    H154071   4.339   1.279   4.069 -1.4407 -0.4638  1.5190
10860TIP3    H254072   4.438   1.178   4.123 -0.1293  0.0928  0.2206
10861TIP3   OH254073   6.740   2.084  12.269  0.3663  0.3525 -0.5054
10861TIP3    H154074   6.713   2.010  12.324 -2.4736  1.6262  0.0244
10861TIP3    H254075   6.668   2.094  12.207  1.3607  1.7860 -1.4721
10862TIP3   OH254076   4.253   2.575   0.077 -0.7189  0.3259 -0.6630
10862TIP3    H154077   4.268   2.514   0.005  1.3986 -0.4645  0.3624
10862TIP3    H254078   4.213   2.522   0.146  0.1759  0.3256 -0.1350
10863TIP3   OH254079   5.112   3.273  13.327 -0.3614  0.2251 -0.5239
10863TIP3    H154080   5.040   3.216  13.354 -1.0833  0.9516 -0.8504
10863TIP3    H254081   5.086   3.360  13.357 -0.1864  0.6923 -1.6691
10864TIP3   OH254082   4.769   5.632  15.916  0.6109  0.1653 -0.1362
10864TIP3    H154083   4.727   5.672  15.839  0.5814  0.0191 -0.1964
10864TIP3    H254084   4.828   5.700  15.948  0.5866  0.2465 -0.2590
10865TIP3   OH254085   6.249   2.794   3.191 -0.5976 -0.4121 -0.5973
10865TIP3    H154086   6.309   2.734   3.147  0.3502 -1.6879  2.1944
10865TIP3    H254087   6.290   2.880   3.182  1.0474 -1.0694  0.1137
10866TIP3   OH254088   3.141   3.323  16.034  0.3998  0.2810 -0.1359
10866TIP3    H154089   3.148   3.402  16.088  1.6200  0.0405  0.0822
10866TIP3    H254090   3.056   3.285  16.058  0.1133  1.1478  0.2714
10867TIP3   OH254091   6.540   6.702   1.782  0.2094 -0.3031 -0.2403
10867TIP3    H154092   6.598   6.744   1.846  1.0021 -0.3268 -0.9168
10867TIP3    H254093   6.468   6.765   1.770 -0.1461 -0.4699  0.9384
10868TIP3   OH254094   4.303   2.162   0.208 -0.9343  0.5119 -0.3455
10868TIP3    H154095   4.282   2.069   0.213 -0.5041  0.4216 -0.1921
10868TIP3    H254096   4.391   2.169   0.245  0.5294  0.4711 -3.5037
10869TIP3   OH254097   4.014   4.274   6.265  0.1061  0.7060 -0.3996
10869TIP3    H154098   3.976   4.319   6.340 -1.2609 -0.7769 -0.1466
10869TIP3    H254099   4.106   4.260   6.289  0.0198  1.4173  0.3985
10870TIP3   OH254100   2.788   5.665  13.525  0.2693 -0.4031  0.1071
10870TIP3    H154101   2.732   5.703  13.593  0.4418  1.5792 -0.8196
10870TIP3    H254102   2.727   5.618  13.468 -0.1907  0.0364  0.2308
10871TIP3   OH254103   6.300   2.326   1.234 -0.5263  0.2245  0.2742
10871TIP3    H154104   6.356   2.330   1.312 -0.9556 -0.4717  0.6316
10871TIP3    H254105   6.276   2.234   1.227  1.9359 -0.3604 -2.4249
10872TIP3   OH254106   6.368   5.886   4.995  0.6171  0.4989  0.3878
10872TIP3    H154107   6.430   5.884   4.922 -0.0794  0.1187 -0.2090
10872TIP3    H254108   6.421   5.865   5.072  0.8633 -2.0073 -0.3926
10873TIP3   OH254109   2.644   4.410  14.288  0.0907 -0.2450  0.1997
10873TIP3    H154110   2.558   4.424  14.249  0.1936  0.5494  0.2384
10873TIP3    H254111   2.666   4.493  14.329 -0.0487 -1.0852  2.0723
10874TIP3   OH254112   2.502   3.495   4.578  0.2015 -0.7276  0.4826
10874TIP3    H154113   2.441   3.441   4.526  0.7721 -1.4802  0.5750
10874TIP3    H254114   2.563   3.531   4.514  0.1556 -0.6419  0.4868
10875TIP3   OH254115   0.102   0.867   4.498  0.3459  0.0004  0.1558
10875TIP3    H154116   0.106   0.864   4.594  1.5667  0.0583  0.1198
10875TIP3    H254117   0.179   0.917   4.472  0.7071 -1.0722 -0.9102
10876TIP3   OH254118   3.189   0.149   1.183 -0.9575  0.5351  0.2790
10876TIP3    H154119   3.138   0.081   1.226 -0.7196 -0.2073 -0.5780
10876TIP3    H254120   3.224   0.202   1.255  0.4891 -1.4207  1.1140
10877TIP3   OH254121   5.590   3.829  14.925  0.3685 -0.0461  0.4483
10877TIP3    H154122   5.553   3.907  14.967 -1.4957  1.2207 -3.1334
10877TIP3    H254123   5.524   3.762  14.935  0.1405  0.1080 -0.0025
10878TIP3   OH254124   2.899   6.211  14.384  0.8590 -0.1446  0.2187
10878TIP3    H154125   2.906   6.170  14.298 -1.5439 -1.2854  0.4767
10878TIP3    H254126   2.805   6.215  14.401  1.2646 -0.3695  2.9548
10879TIP3   OH254127   5.669   6.402   4.433  0.7896 -0.3753 -0.2363
10879TIP3    H154128   5.611   6.350   4.377  0.0162  0.3394 -0.1141
10879TIP3    H254129   5.740   6.428   4.376 -0.7474  1.6258 -1.3536
10880TIP3   OH254130   2.240   3.359   4.452  0.6424 -0.5636  0.2495
10880TIP3    H154131   2.222   3.288   4.515  1.1473 -0.4989  0.4718
10880TIP3    H254132   2.177   3.345   4.382 -1.4547  0.6324  1.7701
10881TIP3   OH254133   4.833   1.469   6.046 -0.1038 -0.2874  0.0891
10881TIP3    H154134   4.870   1.555   6.066 -0.5585 -0.0670  0.0050
10881TIP3    H254135   4.742   1.474   6.076  0.2468 -1.2340  1.4271
10882TIP3   OH254136   5.393   1.884   1.225 -0.3828  0.0622  0.3421
10882TIP3    H154137   5.397   1.875   1.321 -1.4191  1.9646  0.6155
10882TIP3    H254138   5.320   1.827   1.200  0.5828 -1.2998  0.5177
10883TIP3   OH254139   5.840   2.611   3.774 -0.2790 -0.1664  0.0151
10883TIP3    H154140   5.839   2.686   3.832 -0.9880  0.0385 -0.2559
10883TIP3    H254141   5.879   2.541   3.826  3.6996  1.1854 -0.7667
10884TIP3   OH254142   3.413   4.428   6.581  0.4758  0.6040  0.0442
10884TIP3    H154143   3.390   4.336   6.572  0.6065  0.4187  1.3423
10884TIP3    H254144   3.388   4.468   6.498  0.7644 -0.6634 -0.6706
10885TIP3   OH254145   3.293   2.531   3.252  0.2614  0.5417  0.2547
10885TIP3    H154146   3.303   2.465   3.183  0.9328  2.1316 -1.2382
10885TIP3    H254147   3.199   2.536   3.267  0.0563  0.5481 -0.9516
10886TIP3   OH254148   5.646   4.570  16.371  0.2558  0.1989  0.1494
10886TIP3    H154149   5.612   4.649  16.328  0.8897  0.8403  0.8049
10886TIP3    H254150   5.724   4.548  16.320 -0.8236 -1.0115 -1.0749
10887TIP3   OH254151   0.084   4.952   4.549  0.7233 -0.0746  0.1386
10887TIP3    H154152   0.165   4.902   4.557  1.1160  0.8426  3.5909
10887TIP3    H254153   0.030   4.922   4.622 -0.0986  2.5363  0.7180
10888TIP3   OH254154   3.322   0.390   4.215 -0.4298  0.4769  0.5014
10888TIP3    H154155   3.378   0.313   4.220 -2.1213 -0.7649  1.7741
10888TIP3    H254156   3.259   0.369   4.145  0.0768  1.4166 -0.2477
10889TIP3   OH254157   1.445   1.401  13.101  0.0059 -0.0465  0.1057
10889TIP3    H154158   1.453   1.340  13.027 -0.7895 -1.1711  0.9150
10889TIP3    H254159   1.535   1.414  13.130  0.2616 -0.1825 -0.5977
10890TIP3   OH254160   4.513   3.919   4.686  0.4824  0.0954  0.1949
10890TIP3    H154161   4.544   3.990   4.743  4.5780 -1.5521  0.3302
10890TIP3    H254162   4.566   3.927   4.607 -0.8194 -1.3068 -0.8734
10891TIP3   OH254163   4.708   1.715   4.945 -0.4058  0.8928  0.0855
10891TIP3    H154164   4.633   1.700   5.004  1.0418  0.4687  1.9355
10891TIP3    H254165   4.694   1.802   4.910 -0.4623  1.9484  2.5198
10892TIP3   OH254166   3.101   4.552   0.413  0.0068  0.0499  0.1421
10892TIP3    H154167   3.116   4.641   0.381  2.1456 -0.2838  0.0743
10892TIP3    H254168   3.027   4.560   0.473  0.5618  2.0034  0.6317
10893TIP3   OH254169   0.061   1.415  16.056 -0.2909 -0.1322  0.3214
10893TIP3    H154170   0.029   1.369  15.979 -0.2292 -1.1935  0.9021
10893TIP3    H254171   0.138   1.463  16.026  0.3166 -1.3097 -0.0974
10894TIP3   OH254172   2.590   6.032  11.658 -0.1760  0.2507 -0.7083
10894TIP3    H154173   2.621   5.990  11.739  1.8985  0.4647 -1.3230
10894TIP3    H254174   2.666   6.082  11.627 -1.1070  0.6198 -2.5066
10895TIP3   OH254175   4.909   1.256  11.725 -0.3265 -0.6742  0.1837
10895TIP3    H154176   4.826   1.303  11.717  0.2419  0.3402  0.0189
10895TIP3    H254177   4.920   1.213  11.640  0.3721  1.0294 -0.6371
10896TIP3   OH254178   2.217   0.212   4.441  0.0996 -0.2851 -0.1203
10896TIP3    H154179   2.185   0.150   4.377  1.9738 -0.0779 -1.3562
10896TIP3    H254180   2.312   0.212   4.429  0.1723  3.2966 -0.7043
10897TIP3   OH254181   5.805   4.189   2.878 -0.1997 -0.5001  0.1479
10897TIP3    H154182   5.888   4.236   2.873 -0.5384  0.1003  0.0273
10897TIP3    H254183   5.773   4.188   2.787  0.4425 -2.1673 -0.1017
10898TIP3   OH254184   5.981   2.339   6.384  0.2222 -0.3936  0.5129
10898TIP3    H154185   5.994   2.308   6.295 -0.7049 -2.1832  0.9417
10898TIP3    H254186   6.046   2.408   6.396 -0.3881  0.6834 -1.9022
10899TIP3   OH254187   3.575   1.928  16.928 -0.6509 -0.2249  0.3985
10899TIP3    H154188   3.486   1.901  16.948 -0.0351 -1.7506  1.2914
10899TIP3    H254189   3.572   2.024  16.927 -2.5117 -0.2509 -0.7351
10900TIP3   OH254190   5.783   4.757  12.773  0.0699  0.2569  0.0250
10900TIP3    H154191   5.833   4.683  12.807  1.0046  0.8469 -0.0190
10900TIP3    H254192   5.788   4.823  12.842  0.3315  0.7420 -0.4484
10901TIP3   OH254193   6.843   2.013   4.549  0.3982  0.2432 -0.1646
10901TIP3    H154194   6.893   2.069   4.609  1.5795 -0.0945 -0.8180
10901TIP3    H254195   6.833   2.065   4.470 -0.2554  0.2798 -0.0709
10902TIP3   OH254196   5.478   1.873  14.610  0.2598  0.3555 -0.0948
10902TIP3    H154197   5.414   1.812  14.646  2.5517 -1.7061  0.7453
10902TIP3    H254198   5.467   1.952  14.663 -1.3146 -0.0405  0.2390
10903TIP3   OH254199   5.782   1.304  11.660 -0.2925 -0.0069 -0.1601
10903TIP3    H154200   5.741   1.280  11.577  0.5337 -0.3092 -0.4907
10903TIP3    H254201   5.875   1.304  11.642 -0.1560  1.0185  0.4957
10904TIP3   OH254202   5.262   6.381  13.102  0.0567  0.6522  0.2496
10904TIP3    H154203   5.206   6.373  13.180  1.0228 -1.5353  0.7918
10904TIP3    H254204   5.326   6.311  13.112  2.1543  2.3041 -0.9666
10905TIP3   OH254205   6.541   4.886  11.958  0.2088  0.4738  0.0703
10905TIP3    H154206   6.536   4.826  12.032  0.2747 -0.4909 -0.6967
10905TIP3    H254207   6.451   4.918  11.947 -0.1898 -0.8275 -0.6002
10906TIP3   OH254208   6.481   5.786   1.106 -0.1594 -0.1110  0.3283
10906TIP3    H154209   6.504   5.797   1.013 -0.5496  0.7918  0.3224
10906TIP3    H254210   6.388   5.808   1.110 -0.4500 -1.3593  0.7445
10907TIP3   OH254211   3.713   5.757   2.845 -0.4058 -0.0325  0.7422
10907TIP3    H154212   3.788   5.746   2.786 -0.5931  1.0835  0.2815
10907TIP3    H254213   3.641   5.711   2.801  0.2619 -2.2755  1.8089
10908TIP3   OH254214   3.687   3.794  12.535  0.7413 -0.0304 -0.3464
10908TIP3    H154215   3.729   3.771  12.618 -1.9069  0.3166  1.1827
10908TIP3    H254216   3.593   3.787  12.552  0.0424  2.0684 -2.7231
10909TIP3   OH254217   1.146   3.465  10.117  0.1077  0.0923 -0.2450
10909TIP3    H154218   1.225   3.412  10.105  0.9445  1.3807 -0.5969
10909TIP3    H254219   1.172   3.534  10.178 -0.9629  0.1340  0.1939
10910TIP3   OH254220   6.707   2.271  16.827  0.1430  0.4570 -0.0577
10910TIP3    H154221   6.715   2.307  16.915 -2.2426  0.3143  0.2844
10910TIP3    H254222   6.631   2.213  16.831 -1.9613  2.7011 -2.8318
10911TIP3   OH254223   4.000   0.567  13.178 -0.4735 -0.0693  0.1246
10911TIP3    H154224   3.974   0.639  13.235  1.2348  1.5871 -1.0815
10911TIP3    H254225   3.977   0.597  13.090 -2.7728 -2.4350 -0.2331
10912TIP3   OH254226   5.787   5.875   2.080  0.4352  0.1841  0.2112
10912TIP3    H154227   5.712   5.900   2.135 -0.3810  1.0098 -1.2181
10912TIP3    H254228   5.772   5.782   2.062 -1.1145  0.6723 -1.2771
10913TIP3   OH254229   5.052   3.287  12.115 -0.3364  0.3558 -0.1575
10913TIP3    H154230   5.075   3.348  12.185 -1.0480 -0.5159  0.8605
10913TIP3    H254231   4.958   3.272  12.127 -0.2591 -0.5777 -0.6939
10914TIP3   OH254232   4.146   1.982   5.361 -0.5942 -0.3275  0.2163
10914TIP3    H154233   4.203   2.009   5.289 -0.5812  0.7129  0.6030
10914TIP3    H254234   4.095   1.909   5.325 -0.5420  0.1336 -0.8164
10915TIP3   OH254235   1.538   3.872  11.592 -0.3468 -0.3777  0.2377
10915TIP3    H154236   1.531   3.803  11.658  1.5990  0.0028  0.9127
10915TIP3    H254237   1.579   3.946  11.638  0.4316  0.1367 -1.2030
10916TIP3   OH254238   0.535   5.293  16.975  0.0459 -0.1688  0.4734
10916TIP3    H154239   0.465   5.300  16.910  0.2286  2.1945  0.4707
10916TIP3    H254240   0.490   5.295  17.059 -0.0062 -0.6538  0.4618
10917TIP3   OH254241   1.287   6.287   0.817  0.5024 -1.1818 -0.3471
10917TIP3    H154242   1.314   6.351   0.883  1.3745 -1.1936 -0.6713
10917TIP3    H254243   1.193   6.297   0.810  0.6169 -0.0310 -0.2969
10918TIP3   OH254244   1.610   3.080   0.341 -0.1253 -0.1062  0.3078
10918TIP3    H154245   1.700   3.107   0.323 -0.3217  0.3994  0.0494
10918TIP3    H254246   1.614   2.985   0.348  0.4848 -0.0598  0.6450
10919TIP3   OH254247   2.248   4.185  16.479  0.2009  0.1921 -0.1129
10919TIP3    H154248   2.179   4.193  16.413  0.0447  0.2986  0.0638
10919TIP3    H254249   2.205   4.142  16.553  0.2686  0.4594  0.0811
10920TIP3   OH254250   2.287   5.377  13.156  0.2574  0.1726 -0.3652
10920TIP3    H154251   2.322   5.463  13.179 -0.2471  0.5310 -0.9095
10920TIP3    H254252   2.335   5.316  13.212  1.4690  0.6837 -0.8166
10921TIP3   OH254253   6.455   0.300   4.061 -0.2698 -0.0673  0.4774
10921TIP3    H154254   6.434   0.271   4.150 -0.4481 -1.0055  0.1393
10921TIP3    H254255   6.470   0.219   4.013 -0.8737  0.4009 -0.5234
10922TIP3   OH254256   1.314   0.530   2.330  0.0565 -0.1364 -0.4676
10922TIP3    H154257   1.392   0.484   2.359  0.1378 -0.4670 -1.1895
10922TIP3    H254258   1.327   0.621   2.358  1.2460  0.0698 -1.6072
10923TIP3   OH254259   5.902   5.510  16.631  0.5647 -0.7516 -0.2237
10923TIP3    H154260   5.913   5.564  16.710  0.2931 -0.4587 -0.3855
10923TIP3    H254261   5.828   5.453  16.651 -0.2609  0.1227 -0.6973
10924TIP3   OH254262   6.206   1.917  11.188 -0.3366  0.2670 -0.0017
10924TIP3    H154263   6.236   1.990  11.134  1.7338 -0.4896  0.0669
10924TIP3    H254264   6.219   1.839  11.133 -0.1652 -0.2990  0.8277
10925TIP3   OH254265   0.301   5.038  10.306 -0.4798  0.2370  0.2949
10925TIP3    H154266   0.383   5.080  10.281 -1.3984  1.1838 -1.2874
10925TIP3    H254267   0.258   5.101  10.364  0.5211 -0.9049  2.4315
10926TIP3   OH254268   2.634   4.582  12.244 -0.2527  0.5185 -0.0183
10926TIP3    H154269   2.695   4.579  12.170 -0.2720  0.7623 -0.0426
10926TIP3    H254270   2.584   4.662  12.232  1.6392  2.0847  1.7513
10927TIP3   OH254271   1.332   3.142   4.654 -0.6486  0.0271 -0.4729
10927TIP3    H154272   1.250   3.095   4.643 -0.8435  0.1732  0.3314
10927TIP3    H254273   1.337   3.201   4.578 -0.4208 -1.2389 -1.4666
10928TIP3   OH254274   0.124   4.178   5.809  0.2911 -0.3658  0.6808
10928TIP3    H154275   0.212   4.195   5.842  0.0855  1.2098  0.5008
10928TIP3    H254276   0.066   4.219   5.873 -0.3955 -2.2657  1.3431
10929TIP3   OH254277   4.012   4.141   1.745  0.0237 -0.5087 -0.5612
10929TIP3    H154278   3.957   4.186   1.809  0.2228 -0.9701 -0.0505
10929TIP3    H254279   4.010   4.197   1.667 -1.1788 -0.5358 -0.5589
10930TIP3   OH254280   1.131   1.465  11.373  0.1044 -0.1390 -0.4272
10930TIP3    H154281   1.166   1.552  11.355  0.5930 -0.0075  1.0389
10930TIP3    H254282   1.043   1.466  11.333  0.4918  0.6450 -1.3121
10931TIP3   OH254283   4.408   4.928  14.363 -0.2556  0.0151  0.0505
10931TIP3    H154284   4.337   4.903  14.422  1.1365 -1.3875  1.2400
10931TIP3    H254285   4.467   4.981  14.416  1.2517 -1.6484  0.1312
10932TIP3   OH254286   6.003   0.672  13.469 -0.5482 -0.1751 -0.2837
10932TIP3    H154287   5.909   0.673  13.453 -0.4953 -1.1775 -0.7323
10932TIP3    H254288   6.036   0.751  13.426 -1.0280 -0.4577 -1.2001
10933TIP3   OH254289   6.074   5.093  15.004 -0.3960 -0.5452  0.1201
10933TIP3    H154290   6.106   5.036  15.074  2.4650  1.2666  0.4682
10933TIP3    H254291   6.149   5.105  14.946 -1.3466  1.5202 -0.8138
10934TIP3   OH254292   3.841   6.527   5.885 -0.4997  0.0065  0.1595
10934TIP3    H154293   3.819   6.611   5.845 -1.1736  0.3807  1.2747
10934TIP3    H254294   3.865   6.471   5.811 -2.1864  0.5143 -0.8206
10935TIP3   OH254295   1.161   6.419   1.630  0.3993  0.0597  0.3967
10935TIP3    H154296   1.126   6.501   1.594 -0.2816  0.6347  2.2359
10935TIP3    H254297   1.095   6.392   1.694 -0.6718 -3.3292 -1.9111
10936TIP3   OH254298   3.392   3.676   0.583  0.0447  0.1567 -0.1581
10936TIP3    H154299   3.462   3.664   0.518 -0.8764 -0.3758 -1.0966
10936TIP3    H254300   3.319   3.712   0.533 -0.8775 -0.7795  0.4558
10937TIP3   OH254301   4.410   4.691   5.861 -0.0558 -0.6386  0.4213
10937TIP3    H154302   4.409   4.651   5.774 -0.1542  0.5163 -0.1392
10937TIP3    H254303   4.501   4.686   5.889  0.2332  0.0937 -0.3167
10938TIP3   OH254304   6.837   4.920  16.450 -0.2851  0.1755 -0.7081
10938TIP3    H154305   6.810   4.980  16.519 -0.7101 -1.0176  0.2000
10938TIP3    H254306   6.777   4.846  16.458  0.7935 -0.7760 -1.2039
10939TIP3   OH254307   2.904   0.126   3.066  0.7002  0.2727 -0.5333
10939TIP3    H154308   2.989   0.171   3.070  0.3016  1.0392 -0.5084
10939TIP3    H254309   2.890   0.095   3.155 -0.0153  2.0074  0.0045
10940TIP3   OH254310   2.091   2.957   1.767  0.1337  0.6911 -0.4689
10940TIP3    H154311   2.031   2.959   1.841  0.0404 -0.1623 -0.5135
10940TIP3    H254312   2.175   2.986   1.804  0.2078 -0.1863  0.0998
10941TIP3   OH254313   6.555   5.098  15.532 -0.3755  0.2456 -0.2615
10941TIP3    H154314   6.635   5.055  15.562 -0.0241  1.0420 -0.0277
10941TIP3    H254315   6.485   5.039  15.558  0.0421  0.1305  0.6415
10942TIP3   OH254316   6.803   5.765  13.455  0.3338 -0.0178 -0.2746
10942TIP3    H154317   6.882   5.803  13.492  0.4078  0.4316 -0.8898
10942TIP3    H254318   6.833   5.688  13.407  0.6135  1.0308 -1.8341
10943TIP3   OH254319   1.229   6.434   3.225  0.0377  0.4689  0.1563
10943TIP3    H154320   1.178   6.413   3.147  0.8731  2.4920 -1.0069
10943TIP3    H254321   1.309   6.382   3.216 -0.6086 -0.6378  0.5998
10944TIP3   OH254322   6.639   3.888   5.395  0.2409  0.0782  0.2671
10944TIP3    H154323   6.729   3.857   5.387  0.1695  0.1123 -0.8279
10944TIP3    H254324   6.589   3.827   5.341 -0.4941 -0.3221  1.3627
10945TIP3   OH254325   6.721   2.044   2.223 -0.1677  0.3777  0.3304
10945TIP3    H154326   6.733   1.961   2.176 -0.3253  0.5860 -0.0855
10945TIP3    H254327   6.657   2.025   2.291 -2.1990  0.7515 -1.3710
10946TIP3   OH254328   5.495   3.206  15.698  0.0829  0.0338  0.2566
10946TIP3    H154329   5.500   3.281  15.639 -1.3522  0.8314  1.0926
10946TIP3    H254330   5.579   3.207  15.745 -0.0859  1.3974  0.5733
10947TIP3   OH254331   3.295   6.554  16.661 -0.2947  0.0011 -0.1278
10947TIP3    H154332   3.371   6.496  16.662 -1.9269 -2.3225  0.8857
10947TIP3    H254333   3.259   6.544  16.573 -0.3707 -0.2790 -0.0678
10948TIP3   OH254334   6.116   4.904   3.600 -0.3295  0.2966 -0.3570
10948TIP3    H154335   6.197   4.955   3.592  0.3961 -1.0582 -2.3438
10948TIP3    H254336   6.143   4.822   3.642 -0.2651 -0.8726 -2.5453
10949TIP3   OH254337   3.011   2.102  16.241  0.1537  0.1551 -0.2012
10949TIP3    H154338   2.975   2.052  16.168  0.8526 -1.8956  0.7783
10949TIP3    H254339   3.002   2.044  16.317 -1.7646  2.6839  1.6958
10950TIP3   OH254340   0.998   3.202   5.491  0.2100  0.3846  0.3564
10950TIP3    H154341   1.089   3.206   5.519  0.2446 -0.3694  0.3559
10950TIP3    H254342   0.998   3.146   5.414 -0.1064  1.2559 -0.3008
10951TIP3   OH254343   3.700   6.684   1.955  0.4727 -0.2534 -0.0316
10951TIP3    H154344   3.683   6.702   2.048  2.0740 -0.6436  0.3742
10951TIP3    H254345   3.614   6.668   1.917 -0.1125 -1.4751  1.6858
10952TIP3   OH254346   4.716   6.611   1.023 -0.3168  0.7255 -0.1300
10952TIP3    H154347   4.661   6.585   0.949 -1.3179 -1.3791  1.2668
10952TIP3    H254348   4.654   6.629   1.094  0.7212 -0.1150  1.0236
10953TIP3   OH254349   2.325   6.061  11.728 -0.0202 -0.0954 -0.0180
10953TIP3    H154350   2.411   6.041  11.691  0.1922 -0.8611  0.8410
10953TIP3    H254351   2.294   5.977  11.763 -0.6890  0.3748  0.5448
10954TIP3   OH254352   3.262   1.752   4.528  0.4941  0.0144 -0.2835
10954TIP3    H154353   3.280   1.821   4.464  0.4939  0.1951 -0.0922
10954TIP3    H254354   3.227   1.799   4.604  2.8644  0.1283  0.8318
10955TIP3   OH254355   0.128   1.148  12.356 -0.4450  0.6221 -0.2037
10955TIP3    H154356   0.105   1.232  12.396  0.1357  0.7763 -0.1913
10955TIP3    H254357   0.128   1.086  12.428 -2.3107  0.2973 -0.4169
10956TIP3   OH254358   6.555   5.885  15.095  0.1411  0.6285  0.0293
10956TIP3    H154359   6.591   5.943  15.162  1.1234 -0.1665  0.2099
10956TIP3    H254360   6.586   5.797  15.119  1.3834  0.4408 -1.9962
10957TIP3   OH254361   3.844   5.405  11.943  0.6012  0.7470 -0.0606
10957TIP3    H154362   3.757   5.411  11.904 -0.2360 -1.7832  1.1778
10957TIP3    H254363   3.899   5.462  11.888 -1.2960  0.4988 -2.3961
10958TIP3   OH254364   0.014   4.251  12.691 -0.2100  0.7477 -0.0982
10958TIP3    H154365   0.018   4.262  12.596 -0.6416 -0.2685 -0.2479
10958TIP3    H254366   0.047   4.333  12.727  0.2584  1.0144 -1.1295
10959TIP3   OH254367   5.474   1.193   3.473 -0.0990  0.0784 -0.0624
10959TIP3    H154368   5.409   1.227   3.535 -3.5316 -0.8326 -2.8119
10959TIP3    H254369   5.442   1.106   3.451  0.4088  0.6406 -3.6154
10960TIP3   OH254370   1.676   1.859   2.261 -0.1141 -0.8831  0.1235
10960TIP3    H154371   1.682   1.778   2.312  0.0050 -0.6590  0.4668
10960TIP3    H254372   1.631   1.921   2.319  0.0841 -0.6065 -0.0177
10961TIP3   OH254373   1.552   0.199  17.097  0.3968  0.2064 -0.6143
10961TIP3    H154374   1.462   0.219  17.123  0.0728 -0.4821 -1.1614
10961TIP3    H254375   1.606   0.251  17.156 -0.3478  0.1792  0.1160
10962TIP3   OH254376   0.383   1.477  13.093 -0.3892 -0.1721 -0.0831
10962TIP3    H154377   0.356   1.542  13.158 -2.5096 -1.6169  0.6130
10962TIP3    H254378   0.318   1.407  13.101  1.0197 -1.7828 -1.7098
10963TIP3   OH254379   1.960   6.616   4.351  0.0788 -0.5550  0.1870
10963TIP3    H154380   1.932   6.647   4.265  0.6063  2.1509  0.8748
10963TIP3    H254381   2.039   6.564   4.333  0.3639  0.2302 -0.9633
10964TIP3   OH254382   4.121   2.558   4.525 -0.2358  0.0184 -0.4129
10964TIP3    H154383   4.057   2.516   4.468 -0.1777  0.0548 -0.5045
10964TIP3    H254384   4.110   2.652   4.509 -1.0632  0.0956  0.5304
10965TIP3   OH254385   3.198   3.858   3.880 -0.1720  0.2583 -0.6233
10965TIP3    H154386   3.225   3.921   3.947  0.8420 -0.1872 -0.5925
10965TIP3    H254387   3.115   3.891   3.848 -0.0964  1.1176  0.0356
10966TIP3   OH254388   1.566   4.050   5.120  0.3060 -0.2448 -0.7075
10966TIP3    H154389   1.606   3.995   5.188  0.1429  1.1783  0.6020
10966TIP3    H254390   1.577   4.140   5.152 -0.9049  0.4042 -1.9740
10967TIP3   OH254391   1.834   1.551  14.127  0.5275  0.3749 -0.2162
10967TIP3    H154392   1.785   1.522  14.050 -2.1862 -1.2818  1.9504
10967TIP3    H254393   1.816   1.644  14.134 -2.4374 -0.1614  0.4572
10968TIP3   OH254394   4.418   5.714  12.161 -0.4775  0.6848 -0.5496
10968TIP3    H154395   4.394   5.622  12.152  0.0929  0.5455 -0.7212
10968TIP3    H254396   4.514   5.714  12.156 -0.4710  1.2804 -0.4936
10969TIP3   OH254397   2.215   0.191   5.236 -0.4590  0.9019 -0.0408
10969TIP3    H154398   2.277   0.164   5.304 -0.8693  0.3994  0.1462
10969TIP3    H254399   2.226   0.126   5.166 -2.2135 -0.4594  0.8661
10970TIP3   OH254400   3.894   5.596  14.306 -0.2651  0.1648 -0.4136
10970TIP3    H154401   3.928   5.655  14.240 -2.1507 -0.1503 -1.7560
10970TIP3    H254402   3.866   5.653  14.377  1.3087  0.5474 -0.0564
10971TIP3   OH254403   4.591   4.129  16.142 -0.1967 -0.6905  0.5389
10971TIP3    H154404   4.593   4.064  16.212 -2.2870 -0.3464  0.9989
10971TIP3    H254405   4.509   4.110  16.095 -0.8996  1.6059  0.7256
10972TIP3   OH254406   4.502   5.910   2.802 -0.1844  0.4155  0.5574
10972TIP3    H154407   4.475   5.927   2.893  3.4847  1.7232  1.5560
10972TIP3    H254408   4.427   5.939   2.750 -1.7892  1.1745  3.0633
10973TIP3   OH254409   2.763   1.959   1.241 -0.0242  0.5996  0.1451
10973TIP3    H154410   2.698   1.903   1.283 -0.8571 -0.4210 -2.3302
10973TIP3    H254411   2.760   2.041   1.292 -2.7462  0.3542  0.5546
10974TIP3   OH254412   4.654   0.209  12.309  0.1194 -0.2134  0.3184
10974TIP3    H154413   4.749   0.221  12.313  0.4364 -2.3758  0.4801
10974TIP3    H254414   4.630   0.237  12.221  1.1688 -1.0921 -0.2702
10975TIP3   OH254415   2.087   3.388  13.616 -0.0443  0.1507  0.3012
10975TIP3    H154416   1.992   3.375  13.618  0.1291 -1.1679  0.7169
10975TIP3    H254417   2.101   3.472  13.661 -1.0888  0.9694 -0.8202
10976TIP3   OH254418   3.381   5.593  13.759  0.0509 -0.0733  0.6397
10976TIP3    H154419   3.336   5.543  13.691 -0.4267 -0.0725  0.9527
10976TIP3    H254420   3.312   5.645  13.801  0.6576  1.5773 -0.2961
10977TIP3   OH254421   3.738   1.789  12.606 -0.1818 -0.0189 -0.1278
10977TIP3    H154422   3.715   1.849  12.535 -1.1643  0.3143  0.4538
10977TIP3    H254423   3.720   1.702  12.570  0.6790  0.0537 -0.7672
10978TIP3   OH254424   4.915   4.767  15.833 -0.1504 -0.0925  0.2628
10978TIP3    H154425   4.870   4.726  15.907 -0.8419  0.3776  0.1194
10978TIP3    H254426   4.976   4.701  15.802  2.3085  0.6246  3.0361
10979TIP3   OH254427   0.275   3.394  15.549  0.3044  0.1117 -0.0480
10979TIP3    H154428   0.341   3.356  15.491  1.3027  2.0623 -0.2622
10979TIP3    H254429   0.324   3.416  15.629 -0.3177  0.5998  0.2076
10980TIP3   OH254430   0.608   1.117   0.696 -0.4917  0.4745  0.6047
10980TIP3    H154431   0.624   1.064   0.774 -3.1057 -0.5029  0.5764
10980TIP3    H254432   0.553   1.189   0.727 -2.0919 -0.2651 -0.3555
10981TIP3   OH254433   2.600   2.748   5.608 -0.1045 -0.4808 -0.2538
10981TIP3    H154434   2.636   2.726   5.522  1.8363  0.5852  0.2317
10981TIP3    H254435   2.579   2.663   5.648  2.3304 -1.2218 -0.4133
10982TIP3   OH254436   6.025   5.876  15.091  0.0460 -0.0508  1.0233
10982TIP3    H154437   5.930   5.882  15.101  0.1424  0.8461  1.5047
10982TIP3    H254438   6.039   5.857  14.998 -0.5982  0.0525  0.9046
10983TIP3   OH254439   3.474   3.132  10.798 -0.0294  0.0927  0.2045
10983TIP3    H154440   3.414   3.203  10.778 -0.2039  0.1208  0.8254
10983TIP3    H254441   3.428   3.053  10.769  0.2212  0.2302 -0.6121
10984TIP3   OH254442   0.708   5.620   4.303  0.8503  0.9870  0.0668
10984TIP3    H154443   0.796   5.593   4.278  0.4104  0.9692 -1.5900
10984TIP3    H254444   0.669   5.543   4.344  1.2775  0.6742 -0.1116
10985TIP3   OH254445   5.465   3.573  16.192 -0.6587  0.1925 -0.5534
10985TIP3    H154446   5.428   3.572  16.104  2.0520 -0.3502 -1.7672
10985TIP3    H254447   5.520   3.494  16.196 -0.0492  0.6561  1.3309
10986TIP3   OH254448   2.595   3.299   0.685  0.1131  0.5066 -0.0965
10986TIP3    H154449   2.667   3.238   0.699  0.4721  1.1984  1.2754
10986TIP3    H254450   2.638   3.385   0.678 -0.4197  0.6892 -1.4848
10987TIP3   OH254451   5.857   4.715   3.294  0.3781  0.1989  0.0142
10987TIP3    H154452   5.764   4.722   3.271  0.0482 -0.2093  1.1412
10987TIP3    H254453   5.880   4.624   3.277  0.4863  0.2281  0.0039
10988TIP3   OH254454   4.304   6.350  12.052 -0.5407 -0.0312 -0.7259
10988TIP3    H154455   4.327   6.260  12.074  1.1076  0.1919 -1.3738
10988TIP3    H254456   4.336   6.361  11.962  0.7653  1.6654 -0.1125
10989TIP3   OH254457   1.293   5.428  12.055  0.6523 -0.1283  0.1495
10989TIP3    H154458   1.262   5.510  12.093  1.4729  1.1082 -1.6866
10989TIP3    H254459   1.328   5.379  12.129  0.5801  1.3863  1.2345
10990TIP3   OH254460   1.397   5.059   2.939  0.7066 -0.0080 -0.0013
10990TIP3    H154461   1.436   4.996   2.999 -0.7199 -1.1722 -0.2472
10990TIP3    H254462   1.329   5.010   2.893  0.5122  1.3448 -1.2404
10991TIP3   OH254463   2.522   0.178  15.709  0.3243 -0.4395  0.2313
10991TIP3    H154464   2.536   0.146  15.620  0.2446 -0.2074  0.1361
10991TIP3    H254465   2.527   0.273  15.702 -3.1813 -0.1669 -0.1802
10992TIP3   OH254466   6.770   1.176   6.022  0.3377 -0.6479  0.5642
10992TIP3    H154467   6.727   1.178   6.108  1.1247  0.0314  0.9570
10992TIP3    H254468   6.698   1.190   5.960 -0.4765 -2.6219  0.9863
10993TIP3   OH254469   0.870   1.309   1.230 -0.7686 -0.2544 -0.0902
10993TIP3    H154470   0.883   1.318   1.324  0.1104  0.5858 -0.2765
10993TIP3    H254471   0.812   1.382   1.207 -0.1944  0.1257 -0.3451
10994TIP3   OH254472   1.781   1.149   1.631 -0.3190 -0.3465 -0.0438
10994TIP3    H154473   1.704   1.162   1.576 -0.8689 -0.8968  0.5805
10994TIP3    H254474   1.747   1.143   1.720  0.7377  2.6217  0.6684
10995TIP3   OH254475   3.397   0.990   4.903 -0.6881 -0.1586  0.1234
10995TIP3    H154476   3.353   0.938   4.970 -1.2395  0.1608  0.0159
10995TIP3    H254477   3.334   0.993   4.831  0.0882 -0.9117 -0.6123
10996TIP3   OH254478   1.761   3.838  11.399  0.0764 -0.2542 -0.1424
10996TIP3    H154479   1.714   3.766  11.356 -1.8941  0.1773  1.1372
10996TIP3    H254480   1.700   3.869  11.466  2.3766  0.1726  1.8544
10997TIP3   OH254481   5.003   0.519  14.336 -0.1737 -0.1182  0.2869
10997TIP3    H154482   5.063   0.472  14.278 -0.0904  1.7739 -1.2732
10997TIP3    H254483   5.047   0.602  14.353 -1.8596  0.8932 -0.0486
10998TIP3   OH254484   1.158   6.623   5.760  0.2039 -0.2040  0.0306
10998TIP3    H154485   1.073   6.584   5.777  0.6212 -0.2853  2.2175
10998TIP3    H254486   1.146   6.716   5.779 -0.0561  0.3322 -2.3950
10999TIP3   OH254487   3.633   3.100  13.275 -0.1249  0.2578 -0.3797
10999TIP3    H154488   3.672   3.133  13.194 -1.8339 -0.6315 -1.6152
10999TIP3    H254489   3.612   3.178  13.325 -1.5187  0.9688 -2.0094
11000TIP3   OH254490   3.128   0.954   2.179 -0.4968 -0.0375  0.2971
11000TIP3    H154491   3.112   1.017   2.249 -1.9137 -0.2174  0.1609
11000TIP3    H254492   3.148   1.007   2.102 -2.0143  0.2897  0.0986
11001TIP3   OH254493   0.870   0.527  14.849  0.0179 -0.7555 -0.3296
11001TIP3    H154494   0.786   0.563  14.821 -0.0846 -1.1512 -0.5368
11001TIP3    H254495   0.862   0.517  14.944 -0.0340 -0.4456 -0.3019
11002TIP3   OH254496   1.629   0.400   4.809  0.5358  0.2457 -0.3749
11002TIP3    H154497   1.565   0.384   4.739  0.3331  1.7443 -0.5542
11002TIP3    H254498   1.699   0.336   4.792 -0.4306 -0.7440 -0.7597
11003TIP3   OH254499   3.411   5.290  12.946 -0.5597  0.7033 -0.3618
11003TIP3    H154500   3.477   5.334  12.892  1.1087  0.4863  1.3907
11003TIP3    H254501   3.456   5.212  12.979 -1.1809  1.3124  2.0824
11004TIP3   OH254502   3.668   0.840   0.167  0.6013  0.3101 -0.1002
11004TIP3    H154503   3.689   0.790   0.089  0.7606 -0.1781  0.2499
11004TIP3    H254504   3.591   0.891   0.143  0.8473  0.4098 -0.6742
11005TIP3   OH254505   3.529   4.928   1.191 -0.0789 -0.0020 -0.2019
11005TIP3    H154506   3.495   4.840   1.207 -1.6644  0.7154  0.6893
11005TIP3    H254507   3.453   4.977   1.159  0.7585  1.0595 -0.6078
11006TIP3   OH254508   0.905   1.956  16.339  0.0966 -0.2122  0.2943
11006TIP3    H154509   0.888   2.020  16.270 -1.9821 -1.3845 -0.3793
11006TIP3    H254510   0.934   1.878  16.291 -1.1809 -0.9791  0.7330
11007TIP3   OH254511   3.847   5.303  11.228 -0.4084 -0.0917  0.1101
11007TIP3    H154512   3.885   5.225  11.267 -0.1021 -0.6671 -1.2792
11007TIP3    H254513   3.859   5.291  11.134  2.5999  3.0333 -0.1343
11008TIP3   OH254514   5.083   6.346   5.542  0.3010  0.4920  0.3693
11008TIP3    H154515   5.100   6.255   5.518  2.0189  0.6503  0.9109
11008TIP3    H254516   5.069   6.390   5.458 -3.4288 -0.7131  0.1627
11009TIP3   OH254517   6.119   0.691  16.571 -0.5794 -0.5521 -0.5191
11009TIP3    H154518   6.075   0.771  16.602  2.4594  1.5431 -1.1104
11009TIP3    H254519   6.100   0.689  16.477  0.6030  0.4520 -0.8089
11010TIP3   OH254520   5.370   0.891   0.541 -0.1008  0.7410 -0.3281
11010TIP3    H154521   5.394   0.801   0.522 -1.1101  0.2983  0.4175
11010TIP3    H254522   5.321   0.886   0.623 -1.3078  1.7987 -0.9522
11011TIP3   OH254523   2.721   3.835  13.681 -0.5774  0.0280  0.6396
11011TIP3    H154524   2.713   3.805  13.590  1.9789  0.4427  0.2137
11011TIP3    H254525   2.757   3.760  13.728  0.1288  0.4872  0.8394
11012TIP3   OH254526   2.784   3.321  11.911 -0.2293 -0.4917  0.9143
11012TIP3    H154527   2.700   3.368  11.913  0.1774  0.3757 -0.5263
11012TIP3    H254528   2.760   3.229  11.914 -1.3517 -0.3030 -0.7429
11013TIP3   OH254529   3.849   1.661   3.698  0.4197 -0.3432 -0.6027
11013TIP3    H154530   3.931   1.615   3.684  1.7559  2.0552 -1.1887
11013TIP3    H254531   3.793   1.633   3.626  1.0784 -1.2175 -0.7950
11014TIP3   OH254532   3.770   6.483  13.601 -0.2404  0.4336  0.1658
11014TIP3    H154533   3.688   6.521  13.570  0.5458  2.0652 -0.0284
11014TIP3    H254534   3.824   6.559  13.625  0.9491 -0.6262  0.9574
11015TIP3   OH254535   2.087   1.159   3.353 -0.1746  0.5785 -0.1821
11015TIP3    H154536   2.000   1.123   3.339  0.2824  0.0750 -2.0314
11015TIP3    H254537   2.074   1.232   3.414 -1.7726  0.1223  0.0559
11016TIP3   OH254538   1.761   3.234  12.970 -0.0719  0.3331  0.1832
11016TIP3    H154539   1.816   3.178  12.916 -1.2828  0.0638 -0.8091
11016TIP3    H254540   1.793   3.323  12.952  1.3864  0.0667  1.2260
11017TIP3   OH254541   4.679   3.847   2.982 -0.0749 -0.4898  0.3649
11017TIP3    H154542   4.721   3.909   3.042 -1.7551  0.4252  0.6731
11017TIP3    H254543   4.745   3.829   2.916  0.6200  1.3497  0.4860
11018TIP3   OH254544   1.022   2.000  15.791  0.1756 -0.0927 -0.2034
11018TIP3    H154545   0.953   2.057  15.825  1.0280  0.1515  1.2275
11018TIP3    H254546   0.995   1.912  15.817  0.9728  0.1190  1.5192
11019TIP3   OH254547   4.861   5.657  12.335 -0.4010  0.5347  0.2095
11019TIP3    H154548   4.900   5.728  12.385 -1.4525  1.2882 -0.0004
11019TIP3    H254549   4.830   5.699  12.254  2.1438 -0.8159 -1.6189
11020TIP3   OH254550   6.385   3.007  11.892  0.1088  0.8757  0.1876
11020TIP3    H154551   6.348   3.065  11.826  0.5690  2.5830  1.3653
11020TIP3    H254552   6.478   3.000  11.868  0.3679  1.8414  0.8635
11021TIP3   OH254553   4.112   5.203  13.634  0.7150  0.1018 -0.7902
11021TIP3    H154554   4.191   5.172  13.679  0.8186 -1.0781 -1.7385
11021TIP3    H254555   4.119   5.167  13.546 -1.1404 -0.4381 -0.7566
11022TIP3   OH254556   5.997   3.892   3.499  0.5096 -0.3386 -0.1986
11022TIP3    H154557   5.916   3.930   3.464  1.7595  3.3823  0.4862
11022TIP3    H254558   6.044   3.863   3.421 -0.5132 -0.4220 -0.8098
11023TIP3   OH254559   5.309   5.699   0.465  0.0844  0.3576  0.1059
11023TIP3    H154560   5.349   5.726   0.383  0.7349 -0.5450  0.1152
11023TIP3    H254561   5.226   5.659   0.439  1.1462 -1.6945 -0.3240
11024TIP3   OH254562   3.928   2.027   6.671 -0.7773  0.1075  0.0484
11024TIP3    H154563   3.906   2.010   6.580 -2.7243  2.3512  0.0013
11024TIP3    H254564   3.959   2.118   6.672 -1.5601  0.3992  1.7125
11025TIP3   OH254565   2.475   3.176  12.306  0.3038 -0.1321 -0.1515
11025TIP3    H154566   2.487   3.257  12.355 -0.3181 -0.6175  0.8377
11025TIP3    H254567   2.551   3.172  12.247  0.6143  0.8957  0.1574
11026TIP3   OH254568   0.891   6.552  14.011 -0.4570 -0.5158 -0.2720
11026TIP3    H154569   0.890   6.617  13.940 -0.2105  0.0345  0.2240
11026TIP3    H254570   0.799   6.540  14.033 -0.5334 -0.6519 -0.6443
11027TIP3   OH254571   4.187   0.862   1.665 -0.2475  0.1834 -0.1055
11027TIP3    H154572   4.159   0.847   1.575  0.1397 -0.2703 -0.1537
11027TIP3    H254573   4.213   0.776   1.697  2.6831  0.7833 -0.6126
11028TIP3   OH254574   3.530   3.999  14.648  0.3256 -0.0411  0.0195
11028TIP3    H154575   3.503   4.032  14.562 -0.9051 -2.1468 -0.4545
11028TIP3    H254576   3.587   4.068  14.682  1.0699  0.7566 -2.5755
11029TIP3   OH254577   2.906   4.743  12.472  0.1479 -0.5270  0.2559
11029TIP3    H154578   2.858   4.660  12.475  1.4319 -1.2758  0.8119
11029TIP3    H254579   2.880   4.789  12.552 -0.0280 -0.6982  0.2989
11030TIP3   OH254580   3.806   5.740  11.453  0.4799 -0.0014  0.1683
11030TIP3    H154581   3.731   5.776  11.406 -0.2160 -2.0707 -0.3932
11030TIP3    H254582   3.810   5.791  11.535 -0.0243  1.7309 -0.8358
11031TIP3   OH254583   2.659   0.854  15.032  0.5482  0.3413  0.1057
11031TIP3    H154584   2.604   0.899  14.968 -1.4276 -1.6499  0.2845
11031TIP3    H254585   2.621   0.877  15.117  1.1222  0.3432  0.3715
11032TIP3   OH254586   0.670   3.237  13.252 -0.1050 -1.1957 -0.0371
11032TIP3    H154587   0.740   3.259  13.313  0.5375 -1.4580 -0.6686
11032TIP3    H254588   0.623   3.320  13.239 -0.1333 -1.0976  0.6571
11033TIP3   OH254589   6.763   6.619   1.137  0.2148 -0.6974  0.0895
11033TIP3    H154590   6.791   6.567   1.213  1.9135  1.1312  0.7910
11033TIP3    H254591   6.815   6.699   1.142 -1.9075  0.8775 -1.2541
11034TIP3   OH254592   4.323   0.251   0.679 -0.6888  0.1470  0.0079
11034TIP3    H154593   4.235   0.249   0.718 -0.8781 -0.1624 -0.4260
11034TIP3    H254594   4.312   0.301   0.598 -0.3147  0.7141  0.2977
11035TIP3   OH254595   1.976   5.028  15.864  0.4340  0.1369  0.7220
11035TIP3    H154596   2.034   5.029  15.941  0.3999 -0.2739  0.7527
11035TIP3    H254597   1.947   4.937  15.857  0.0947  0.2645  0.4767
11036TIP3   OH254598   5.231   1.330  15.481 -0.2161  0.6989  0.3433
11036TIP3    H154599   5.273   1.404  15.525 -0.9274  1.5438 -0.3569
11036TIP3    H254600   5.265   1.335  15.391 -0.2499  0.1522  0.2996
11037TIP3   OH254601   1.427   6.106   5.951  0.2899 -0.3020  1.0036
11037TIP3    H154602   1.393   6.068   6.031  1.9922 -1.1530  1.3621
11037TIP3    H254603   1.522   6.093   5.956  0.3762 -1.4063 -1.6401
11038TIP3   OH254604   3.401   5.587  11.912 -0.4951  0.0545  0.2510
11038TIP3    H154605   3.384   5.657  11.849 -1.2185 -0.2651  0.0802
11038TIP3    H254606   3.341   5.605  11.984 -0.1036  0.0657  0.5822
11039TIP3   OH254607   0.362   0.288  13.037 -0.4932  0.1607 -0.0132
11039TIP3    H154608   0.375   0.196  13.014 -0.2644  0.0319  0.6092
11039TIP3    H254609   0.368   0.290  13.132 -1.6318  0.6468  0.0702
11040TIP3   OH254610   3.905   3.268  16.413  0.2299 -0.2116 -0.3165
11040TIP3    H154611   3.818   3.301  16.390 -0.3195  1.6025  3.5627
11040TIP3    H254612   3.964   3.340  16.394  0.4641 -0.4197 -0.3882
11041TIP3   OH254613   0.959   4.425   5.584 -0.0335  0.5899 -0.3732
11041TIP3    H154614   0.910   4.381   5.654 -1.4112  1.3182 -0.8459
11041TIP3    H254615   1.033   4.467   5.629 -0.4105  0.3271  0.5069
11042TIP3   OH254616   4.757   4.411   5.078 -0.3781 -0.0718 -0.1487
11042TIP3    H154617   4.782   4.486   5.131 -0.6987  0.6734 -1.0148
11042TIP3    H254618   4.813   4.416   5.001  1.7076 -2.4432  1.0639
11043TIP3   OH254619   6.138   3.159   1.724 -0.3927  0.1503 -0.6580
11043TIP3    H154620   6.179   3.221   1.664  0.3339 -1.2478 -1.6748
11043TIP3    H254621   6.048   3.189   1.733 -0.4855  0.4568 -2.3898
11044TIP3   OH254622   4.858   4.298  16.985 -0.1079 -0.2821  0.3031
11044TIP3    H154623   4.934   4.353  17.006 -1.1562  0.4908  2.4689
11044TIP3    H254624   4.812   4.289  17.069 -2.7627 -0.1347 -1.0336
11045TIP3   OH254625   3.356   0.852  12.061 -0.5778 -0.1281  0.1135
11045TIP3    H154626   3.308   0.847  11.978 -0.7857  1.4238  0.1093
11045TIP3    H254627   3.299   0.902  12.119  0.7700  1.2748  0.2781
11046TIP3   OH254628   3.063   2.759  15.276  0.5309  0.1723  0.4289
11046TIP3    H154629   3.157   2.743  15.266  0.0713 -3.0685  0.3057
11046TIP3    H254630   3.049   2.765  15.371  0.6745 -0.9483  0.5300
11047TIP3   OH254631   3.055   2.955   1.982  0.5081 -0.6243  0.0737
11047TIP3    H154632   2.970   2.911   1.977  0.7330 -1.1965  1.0264
11047TIP3    H254633   3.034   3.048   1.985 -0.0084 -0.6777 -1.2111
11048TIP3   OH254634   5.181   1.472  13.059  0.0521  0.3094  0.7625
11048TIP3    H154635   5.143   1.473  12.971 -0.1173 -1.7893  0.7518
11048TIP3    H254636   5.206   1.562  13.076 -2.9455  1.4163 -0.1258
11049TIP3   OH254637   0.151   2.946   2.423  0.1912  0.2444  0.1496
11049TIP3    H154638   0.141   2.853   2.402  2.6726 -0.6558  2.4777
11049TIP3    H254639   0.061   2.981   2.418 -1.2443 -2.8454  1.6709
11050TIP3   OH254640   2.901   1.410   4.996 -0.3705 -0.0786 -0.3107
11050TIP3    H154641   2.895   1.381   4.905 -0.2381  1.2824 -0.7807
11050TIP3    H254642   2.994   1.425   5.011 -0.0314 -2.9107  0.9550
11051TIP3   OH254643   1.799   6.121   3.029 -0.2688  0.0169  0.2939
11051TIP3    H154644   1.886   6.132   3.066  0.3486  0.0694 -1.1342
11051TIP3    H254645   1.797   6.179   2.953 -1.1318 -0.8553 -0.3765
11052TIP3   OH254646   4.335   1.556  15.551  0.6295  0.2349  0.1310
11052TIP3    H154647   4.343   1.651  15.542 -1.5746  0.4153 -0.4397
11052TIP3    H254648   4.415   1.530  15.597  0.9275  2.4668  1.0122
11053TIP3   OH254649   2.314   5.185   3.412 -0.3693 -0.0646  0.5701
11053TIP3    H154650   2.274   5.100   3.429 -0.6600  0.0540  0.4875
11053TIP3    H254651   2.296   5.237   3.491 -2.5559  0.8015 -0.3859
11054TIP3   OH254652   5.100   0.081   3.432 -1.2596  0.2438 -0.8065
11054TIP3    H154653   5.043   0.059   3.358  0.1632 -2.3097 -1.2879
11054TIP3    H254654   5.051   0.052   3.509 -2.7641  2.9505 -0.6313
11055TIP3   OH254655   5.209   3.410   0.558 -0.1915  0.1757 -0.2432
11055TIP3    H154656   5.276   3.344   0.576  0.0472  0.5102  0.0937
11055TIP3    H254657   5.246   3.492   0.590  0.5248  0.9350 -2.7566
11056TIP3   OH254658   0.838   6.099  14.957  0.0169 -0.0338 -0.4222
11056TIP3    H154659   0.849   6.114  14.863  0.0999 -0.5482 -0.4980
11056TIP3    H254660   0.920   6.127  14.996 -0.9217  2.6188 -0.1956
11057TIP3   OH254661   2.138   3.013  14.262  0.0726 -0.3078  0.3034
11057TIP3    H154662   2.085   3.078  14.216 -0.4870  1.1360  2.8147
11057TIP3    H254663   2.228   3.034  14.238 -0.2349 -0.1398 -0.7474
11058TIP3   OH254664   5.567   3.185   2.965 -0.1141  0.6161 -0.5072
11058TIP3    H154665   5.476   3.195   2.938 -0.2661  0.7826  0.0613
11058TIP3    H254666   5.593   3.272   2.995 -0.2092  0.2537  0.6749
11059TIP3   OH254667   6.608   0.840  12.641 -0.7968  0.8741 -0.0658
11059TIP3    H154668   6.695   0.847  12.680 -1.0417 -0.4267  0.7891
11059TIP3    H254669   6.608   0.755  12.597 -1.5505  0.9873 -0.3095
11060TIP3   OH254670   4.628   5.189  12.714 -0.2042  0.2117 -0.1076
11060TIP3    H154671   4.645   5.189  12.808  0.4614  3.4539 -0.1068
11060TIP3    H254672   4.714   5.204  12.674 -0.2752 -2.2477 -1.4048
11061TIP3   OH254673   3.531   2.524  16.737  0.6148  0.0080 -0.2084
11061TIP3    H154674   3.498   2.529  16.648 -0.7710  1.6213  0.3309
11061TIP3    H254675   3.460   2.484  16.787  0.9256  0.1682  0.3765
11062TIP3   OH254676   3.157   0.704   3.353  0.4631 -0.3833  0.4588
11062TIP3    H154677   3.108   0.645   3.296  0.0876  0.2156  0.1452
11062TIP3    H254678   3.104   0.709   3.433  0.1187  0.0890  0.2060
11063TIP3   OH254679   6.842   1.610   1.403  0.2170 -0.1450  0.3404
11063TIP3    H154680   6.827   1.521   1.435  1.4967 -0.8131 -0.8399
11063TIP3    H254681   6.848   1.601   1.308  1.7145  0.9808  0.2961
11064TIP3   OH254682   1.539   0.741  15.010  0.0658  0.1790 -0.1444
11064TIP3    H154683   1.447   0.729  14.991  0.6136 -2.5199 -1.5156
11064TIP3    H254684   1.546   0.733  15.105 -0.8369 -2.3919 -0.2333
11065TIP3   OH254685   6.669   3.992   3.608 -0.0394 -0.2425 -0.2364
11065TIP3    H154686   6.592   3.965   3.557  0.7186 -0.7946 -1.1272
11065TIP3    H254687   6.656   3.952   3.694 -0.7379 -0.3491 -0.3850
11066TIP3   OH254688   2.582   4.668   5.890  1.2272 -0.5427 -0.3182
11066TIP3    H154689   2.528   4.606   5.840 -0.5444  1.6885 -1.3295
11066TIP3    H254690   2.519   4.725   5.934  2.7975  0.3288  0.9015
11067TIP3   OH254691   6.288   3.891  14.621  0.3191  0.7756 -0.0218
11067TIP3    H154692   6.282   3.805  14.580  1.1707  1.6141 -2.0601
11067TIP3    H254693   6.260   3.952  14.552  1.1455  2.2290  0.8743
11068TIP3   OH254694   4.344   1.509   2.826  0.0630  0.3616 -0.4216
11068TIP3    H154695   4.291   1.463   2.890  0.6078  0.3689  0.0458
11068TIP3    H254696   4.291   1.585   2.800 -1.3114 -1.0694 -2.0083
11069TIP3   OH254697   1.373   1.937  12.806  0.3724  0.2041  0.0677
11069TIP3    H154698   1.403   1.928  12.716  1.0260 -2.4850  0.4558
11069TIP3    H254699   1.369   1.847  12.839  0.9221  1.1149  2.9522
11070TIP3   OH254700   4.868   2.657  15.276 -0.0590  0.1233  0.1171
11070TIP3    H154701   4.838   2.573  15.240  1.2994 -0.3986  0.1521
11070TIP3    H254702   4.944   2.680  15.223 -0.0952  1.0757  0.4638
11071TIP3   OH254703   0.278   4.743   3.839 -0.0826 -0.4105 -0.1499
11071TIP3    H154704   0.206   4.679   3.835  0.0664 -0.5239 -1.5593
11071TIP3    H254705   0.253   4.802   3.910 -0.4765 -1.7180  0.8626
11072TIP3   OH254706   3.039   3.431  13.856  0.4867  0.2475 -0.8742
11072TIP3    H154707   3.026   3.342  13.823  0.4885  0.0532 -0.3647
11072TIP3    H254708   3.107   3.421  13.923 -0.1522  0.4878 -0.1883
11073TIP3   OH254709   2.399   6.669   2.412  0.5658  0.5440  0.5453
11073TIP3    H154710   2.437   6.715   2.337  1.2679  0.1692  0.6686
11073TIP3    H254711   2.370   6.585   2.378  0.2349  0.6511  0.5497
11074TIP3   OH254712   1.419   0.429  15.213 -0.6085  0.4612  0.3114
11074TIP3    H154713   1.505   0.460  15.241 -0.4866 -0.8142  1.4330
11074TIP3    H254714   1.401   0.353  15.268 -1.2431 -0.9684 -1.7309
11075TIP3   OH254715   3.538   4.735  15.772  0.2560 -0.9894  0.2093
11075TIP3    H154716   3.629   4.714  15.793  0.7015 -1.5938 -2.1258
11075TIP3    H254717   3.512   4.797  15.841  2.7466 -0.0209  0.3965
11076TIP3   OH254718   1.950   0.497   2.158 -0.8250  0.2272 -0.1719
11076TIP3    H154719   2.024   0.441   2.133 -1.8235 -0.7871 -0.9948
11076TIP3    H254720   1.939   0.481   2.252 -0.6954 -0.4797 -0.2713
11077TIP3   OH254721   5.006   2.206  14.252  0.4330  0.0764  0.7063
11077TIP3    H154722   4.937   2.176  14.311  0.3708 -1.4835 -0.1000
11077TIP3    H254723   4.960   2.253  14.182  0.3748  0.7100  1.1707
11078TIP3   OH254724   5.240   0.552   5.085  0.3728  0.3165 -1.0449
11078TIP3    H154725   5.306   0.609   5.124 -0.3746  1.1139 -0.9205
11078TIP3    H254726   5.196   0.606   5.019 -1.1279  0.2940 -0.1251
11079TIP3   OH254727   1.913   6.428  11.160  0.1053  0.1295 -0.1854
11079TIP3    H154728   1.932   6.388  11.245 -0.2223 -0.4037 -0.3566
11079TIP3    H254729   1.979   6.496  11.150 -0.9478  1.4472  1.3071
11080TIP3   OH254730   1.179   2.955  15.678 -0.2512  0.0349 -0.5593
11080TIP3    H154731   1.085   2.960  15.661 -0.1887 -0.0224 -0.9294
11080TIP3    H254732   1.219   2.981  15.595  0.0560  2.4882  0.2723
11081TIP3   OH254733   1.349   2.508   0.661  0.2043  0.4036  0.1832
11081TIP3    H154734   1.350   2.416   0.635  1.7723  0.8464 -1.5259
11081TIP3    H254735   1.267   2.542   0.625  0.3255  0.0167 -0.4682
11082TIP3   OH254736   2.257   1.664   0.326  0.3106 -0.3001  0.1205
11082TIP3    H154737   2.346   1.640   0.301  0.5708  1.0285 -0.3262
11082TIP3    H254738   2.267   1.743   0.379 -0.6721  0.9323 -1.4157
11083TIP3   OH254739   0.258   1.970  11.243  1.0437  0.3116 -0.0173
11083TIP3    H154740   0.317   1.937  11.175 -0.8387  1.7885 -2.5433
11083TIP3    H254741   0.219   1.892  11.282  1.1101 -0.5635 -1.6428
11084TIP3   OH254742   5.776   1.453   0.677 -0.2796  0.2569 -0.1612
11084TIP3    H154743   5.759   1.481   0.767  0.0515  0.4292 -0.1492
11084TIP3    H254744   5.827   1.373   0.686 -0.9732 -0.1951 -0.1964
11085TIP3   OH254745   3.127   3.682   2.071  0.9666  0.1665 -0.1388
11085TIP3    H154746   3.035   3.661   2.060  1.1096 -2.7973  2.7106
11085TIP3    H254747   3.161   3.689   1.982 -1.5180 -1.2154 -1.3054
11086TIP3   OH254748   0.280   0.447   4.276 -0.1184 -0.2569 -0.0605
11086TIP3    H154749   0.314   0.432   4.364 -0.0261  1.6370  0.2669
11086TIP3    H254750   0.344   0.404   4.218  0.1067 -1.0450  0.7479
11087TIP3   OH254751   0.408   4.821  13.064 -0.1976  1.1738  0.1509
11087TIP3    H154752   0.502   4.805  13.069 -0.4021  0.0508  0.6837
11087TIP3    H254753   0.397   4.877  12.987  0.7081 -0.2195 -1.0343
11088TIP3   OH254754   0.048   3.014  15.041  0.2052  0.3176 -0.1536
11088TIP3    H154755   0.025   3.035  14.950  2.5683  0.5991 -0.7513
11088TIP3    H254756   0.112   3.080  15.065  2.0636 -1.6495  0.5842
11089TIP3   OH254757   2.572   6.823  13.861  0.1568  0.2021 -0.1090
11089TIP3    H154758   2.661   6.822  13.895  0.7109 -0.3862 -1.4910
11089TIP3    H254759   2.575   6.882  13.786 -0.5858  0.0721 -0.2486
11090TIP3   OH254760   0.617   0.867  15.294  0.2210 -0.1259 -0.1262
11090TIP3    H154761   0.575   0.901  15.373  0.5537  0.6286 -0.2762
11090TIP3    H254762   0.557   0.799  15.264 -0.1170 -0.1336  0.5393
11091TIP3   OH254763   0.588   2.357  15.548  0.1827  0.3051 -0.1155
11091TIP3    H154764   0.672   2.338  15.507  0.7080 -2.5187  2.0075
11091TIP3    H254765   0.542   2.274  15.549 -0.9344  0.8686  2.3815
11092TIP3   OH254766   1.194   4.883   2.825 -0.3813 -0.4281 -0.3041
11092TIP3    H154767   1.119   4.832   2.855 -2.0266  1.6556 -0.6478
11092TIP3    H254768   1.172   4.909   2.736  0.9183 -0.0816 -0.5474
11093TIP3   OH254769   2.403   1.865  12.535  0.4419 -0.2270 -0.2877
11093TIP3    H154770   2.320   1.859  12.582 -1.1171 -0.1476 -2.8581
11093TIP3    H254771   2.399   1.949  12.489  2.3964  0.2116  0.2609
11094TIP3   OH254772   2.772   0.712   5.460  0.2508 -0.5290 -0.0953
11094TIP3    H154773   2.743   0.683   5.373  0.8933 -0.7307 -0.2473
11094TIP3    H254774   2.775   0.807   5.454  0.4167 -0.5489 -0.3337
11095TIP3   OH254775   4.242   6.245  16.412 -0.3526 -0.2260  0.9470
11095TIP3    H154776   4.152   6.278  16.419  0.1374  1.0260  1.5522
11095TIP3    H254777   4.296   6.323  16.404  0.7290 -0.9440  1.0566
11096TIP3   OH254778   2.435   4.284   1.661 -0.1389  0.0565 -0.3551
11096TIP3    H154779   2.348   4.249   1.646 -0.4405  0.7218 -0.1877
11096TIP3    H254780   2.461   4.321   1.576  0.0361 -0.2504 -0.4382
11097TIP3   OH254781   0.711   4.511  16.984 -0.3935 -0.4948 -0.5830
11097TIP3    H154782   0.623   4.524  17.020 -0.8694 -2.2906 -1.0006
11097TIP3    H254783   0.751   4.446  17.042  0.7415  0.4000 -0.3197
11098TIP3   OH254784   3.588   5.233   2.923  0.2284  0.1694 -0.5281
11098TIP3    H154785   3.674   5.200   2.896  0.2270  1.0973 -1.7726
11098TIP3    H254786   3.607   5.317   2.966 -0.0395  0.3424 -0.7420
11099TIP3   OH254787   1.912   2.350  10.677  0.0492  0.4057  0.4541
11099TIP3    H154788   1.848   2.352  10.747  1.2711 -1.1057  1.6831
11099TIP3    H254789   1.896   2.268  10.631 -0.2528  1.0269 -0.5938
11100TIP3   OH254790   3.944   3.804   3.605 -0.0931 -0.0091 -0.3576
11100TIP3    H154791   3.989   3.769   3.682 -1.9610 -2.8219 -0.4193
11100TIP3    H254792   3.946   3.733   3.541 -1.0349  1.2695 -1.8913
11101TIP3   OH254793   2.016   3.890  14.264 -0.5295  0.2088  0.1796
11101TIP3    H154794   2.028   3.881  14.170  1.0366  1.1788  0.2586
11101TIP3    H254795   1.991   3.802  14.293 -2.6631  0.2372 -1.3182
11102TIP3   OH254796   5.584   5.469   5.143 -0.5379 -0.0731 -0.0763
11102TIP3    H154797   5.490   5.458   5.128 -0.7493  0.3881  0.8043
11102TIP3    H254798   5.597   5.564   5.139 -0.0698 -0.1511 -0.4063
11103TIP3   OH254799   6.168   6.163  16.373 -0.3489  0.0489  0.1457
11103TIP3    H154800   6.148   6.244  16.420 -0.0011 -0.3485  1.0035
11103TIP3    H254801   6.105   6.161  16.301 -0.3843  1.0595  0.1346
11104TIP3   OH254802   4.535   3.836  12.103  0.5581  0.8151 -0.1642
11104TIP3    H154803   4.584   3.836  12.185 -1.7300 -0.0049  1.3208
11104TIP3    H254804   4.497   3.924  12.098  0.2333  0.6854 -0.0276
11105TIP3   OH254805   0.265   2.612   0.481 -0.1626  0.6958 -0.6783
11105TIP3    H154806   0.192   2.668   0.456 -0.8573  0.1553  0.0998
11105TIP3    H254807   0.264   2.542   0.416  0.0953  1.0447 -1.0672
11106TIP3   OH254808   1.809   2.531   1.710 -0.4719 -0.5625  0.3404
11106TIP3    H154809   1.849   2.594   1.651 -0.1934 -1.5328 -0.5418
11106TIP3    H254810   1.724   2.569   1.732 -0.1036  0.3470  0.2384
11107TIP3   OH254811   1.336   2.222  13.643  0.2308 -0.0629 -0.1311
11107TIP3    H154812   1.400   2.163  13.603  3.0926  1.7043  1.4777
11107TIP3    H254813   1.285   2.256  13.569  1.2459 -1.4190 -1.5277
11108TIP3   OH254814   3.109   3.716   3.433 -0.8900 -0.4468 -0.0075
11108TIP3    H154815   3.121   3.637   3.485  0.6066 -0.8534 -0.9014
11108TIP3    H254816   3.062   3.687   3.355  0.0820 -0.5858 -0.5638
11109TIP3   OH254817   3.070   0.772   1.666  0.3039  0.0163 -0.2385
11109TIP3    H154818   3.105   0.836   1.604 -0.3892 -1.0502 -1.7751
11109TIP3    H254819   3.130   0.697   1.661 -0.3619 -0.5112 -0.4385
11110TIP3   OH254820   5.276   5.832   3.214 -0.2322  0.4329 -0.5832
11110TIP3    H154821   5.245   5.819   3.125  2.3796  1.2322 -1.7212
11110TIP3    H254822   5.301   5.924   3.218 -0.1192  0.3648  0.9163
11111TIP3   OH254823   4.393   3.103   0.528 -0.5796  0.2834  0.1462
11111TIP3    H154824   4.348   3.185   0.546  1.1025  0.6776  3.2571
11111TIP3    H254825   4.470   3.105   0.584  1.0211 -2.2456 -1.7246
11112TIP3   OH254826   4.993   1.112   3.551  0.2547 -0.5769  0.9022
11112TIP3    H154827   4.979   1.180   3.485  3.4890 -1.0455 -0.5162
11112TIP3    H254828   4.926   1.047   3.533  0.7704 -0.4957 -1.8042
11113TIP3   OH254829   6.741   5.452  12.191 -0.0376 -0.2966 -0.0813
11113TIP3    H154830   6.800   5.526  12.182  1.3839 -1.6051 -2.4214
11113TIP3    H254831   6.761   5.415  12.277  0.5616  0.9049  0.3065
11114TIP3   OH254832   6.463   3.174  13.850 -0.2156 -0.3183 -0.5270
11114TIP3    H154833   6.551   3.200  13.823 -0.3412 -0.1688 -0.7991
11114TIP3    H254834   6.419   3.152  13.768 -0.3187 -0.7486 -0.3576
11115TIP3   OH254835   6.848   4.280   4.020 -0.4458 -0.1535  0.3081
11115TIP3    H154836   6.929   4.249   4.060 -0.1091  0.5596  0.1883
11115TIP3    H254837   6.784   4.212   4.042 -0.0078 -0.3384  1.0763
11116TIP3   OH254838   5.626   5.456   1.719 -0.5644 -0.1899 -0.5013
11116TIP3    H154839   5.627   5.392   1.789 -0.9126  0.5600  0.2091
11116TIP3    H254840   5.533   5.475   1.704 -0.4465  0.9083  0.0379
11117TIP3   OH254841   4.413   2.157  13.699  0.2947  0.3222 -0.0265
11117TIP3    H154842   4.449   2.068  13.700  0.1913  0.2799 -0.0127
11117TIP3    H254843   4.376   2.167  13.612 -0.5636 -0.0031  0.2874
11118TIP3   OH254844   1.116   5.383  15.061 -0.0507 -0.0186 -0.6964
11118TIP3    H154845   1.127   5.299  15.016 -0.6197 -0.0428 -0.7974
11118TIP3    H254846   1.156   5.447  15.002 -1.3637  0.0366 -1.5706
11119TIP3   OH254847   1.687   0.741  12.510 -0.2284  0.0115 -0.3336
11119TIP3    H154848   1.592   0.740  12.520 -0.4492  0.3139 -2.0674
11119TIP3    H254849   1.703   0.699  12.426  1.2135 -0.4096  0.1220
11120TIP3   OH254850   1.165   3.327  10.430  0.1293  0.1828  0.6666
11120TIP3    H154851   1.221   3.381  10.374 -0.0534 -0.9984 -0.7100
11120TIP3    H254852   1.226   3.278  10.485  0.4747 -0.7511 -0.5036
11121TIP3   OH254853   3.196   6.543  11.115 -0.5293  0.5750 -0.0530
11121TIP3    H154854   3.136   6.602  11.161  0.3165 -0.1430  2.1048
11121TIP3    H254855   3.282   6.585  11.125 -0.0710 -0.5019  0.6335
11122TIP3   OH254856   0.777   4.725  11.466  0.2326 -0.2690 -0.2186
11122TIP3    H154857   0.777   4.649  11.523 -0.6909 -1.2983 -1.5187
11122TIP3    H254858   0.820   4.794  11.517 -0.1730 -1.2449  1.5247
11123TIP3   OH254859   0.584   1.708   2.461  0.1836 -0.3228 -0.1191
11123TIP3    H154860   0.552   1.797   2.475 -0.3909 -0.5490  0.0234
11123TIP3    H254861   0.559   1.661   2.540 -0.7825 -0.9585 -0.7895
11124TIP3   OH254862   4.255   4.950   3.984 -0.5465 -0.3128  0.4898
11124TIP3    H154863   4.338   4.901   3.977  0.1241  0.8489 -0.0720
11124TIP3    H254864   4.215   4.941   3.897  0.2777  1.2688 -0.1013
11125TIP3   OH254865   2.420   2.203   5.286  0.0055  0.4841 -0.4352
11125TIP3    H154866   2.337   2.171   5.320  1.1607 -0.7023  1.3812
11125TIP3    H254867   2.426   2.293   5.318  0.2957 -0.0720  1.1481
11126TIP3   OH254868   4.004   3.318   3.153 -1.2391  0.3733  0.2575
11126TIP3    H154869   3.987   3.402   3.197 -1.7228  1.7980 -2.4610
11126TIP3    H254870   3.933   3.261   3.182 -0.3487  0.4518  2.9568
11127TIP3   OH254871   6.625   3.385   1.899  0.2210 -0.4701 -0.0572
11127TIP3    H154872   6.531   3.392   1.917  0.2283  2.0274 -0.5465
11127TIP3    H254873   6.663   3.358   1.983 -0.9755 -2.6668 -0.1382
11128TIP3   OH254874   6.291   0.630  12.477  0.2333  0.3266  0.0594
11128TIP3    H154875   6.257   0.601  12.392  0.5542 -0.8474  0.3134
11128TIP3    H254876   6.375   0.671  12.456 -0.4936  1.6614 -0.3712
11129TIP3   OH254877   2.001   5.399  11.137 -0.1166 -0.1072  0.0204
11129TIP3    H154878   2.085   5.355  11.153  0.2487  0.7405  0.4837
11129TIP3    H254879   1.944   5.330  11.102  0.6259 -0.8025  0.1573
11130TIP3   OH254880   0.976   0.529  12.460 -0.3465 -0.3057  0.5166
11130TIP3    H154881   0.944   0.540  12.549 -1.8157  1.3009 -0.1351
11130TIP3    H254882   0.954   0.439  12.437 -5.6094  0.8311 -0.1704
11131TIP3   OH254883   4.919   3.181   5.688  0.0839 -0.5046 -0.6816
11131TIP3    H154884   4.933   3.091   5.659 -1.0906 -1.0357  0.3124
11131TIP3    H254885   4.919   3.176   5.783  3.3416  1.1243 -0.4698
11132TIP3   OH254886   3.718   2.456   2.625  0.0431 -0.9140  0.2661
11132TIP3    H154887   3.656   2.480   2.693  0.3574  3.4761 -0.7206
11132TIP3    H254888   3.665   2.451   2.545  0.4985  0.2144 -0.1311
11133TIP3   OH254889   4.242   0.012   5.995  0.5245  0.2842 -0.0977
11133TIP3    H154890   4.253  -0.006   6.088 -1.2898  0.6269  0.2221
11133TIP3    H254891   4.281   0.098   5.982 -1.2440  1.3125  0.8983
11134TIP3   OH254892   3.997   0.928   3.794  0.3347  0.2981  0.1592
11134TIP3    H154893   3.954   0.937   3.879 -0.1879 -1.0219  0.0457
11134TIP3    H254894   4.070   0.991   3.798 -1.6323  2.6973  0.2886
11135TIP3   OH254895   3.712   2.973  11.993 -0.1367 -0.0497 -0.1799
11135TIP3    H154896   3.742   3.041  11.933  0.9823 -0.2066  0.1698
11135TIP3    H254897   3.760   2.895  11.965 -0.5292 -0.4151  0.1539
11136TIP3   OH254898   6.691   2.832  12.996 -0.2867  0.0592  0.5839
11136TIP3    H154899   6.753   2.763  12.975  0.0356  0.3744  0.4761
11136TIP3    H254900   6.745   2.903  13.032 -0.4400  0.7358 -0.4548
11137TIP3   OH254901   0.852   1.768  15.842 -0.7993  0.1497 -0.0227
11137TIP3    H154902   0.853   1.695  15.904  2.3286  0.8826  0.9634
11137TIP3    H254903   0.895   1.733  15.764 -1.7657  0.1912 -0.5898
11138TIP3   OH254904   0.956   2.177   4.795 -0.1621 -0.0891 -0.0388
11138TIP3    H154905   0.922   2.238   4.861 -2.2296  1.0562 -1.9938
11138TIP3    H254906   0.877   2.139   4.756  1.0201 -1.4148 -1.2237
11139TIP3   OH254907   6.185   1.392  10.647  0.3032 -0.6545 -0.1801
11139TIP3    H154908   6.092   1.408  10.634 -0.2211 -1.7683  1.8200
11139TIP3    H254909   6.220   1.380  10.559 -1.0100  1.8265 -1.1306
11140TIP3   OH254910   5.346   3.708   5.519 -0.9275 -0.3784 -0.0788
11140TIP3    H154911   5.323   3.742   5.432  0.5566  0.7731 -0.0722
11140TIP3    H254912   5.305   3.769   5.580  0.6973  0.7531 -0.0509
11141TIP3   OH254913   2.519   6.846  16.463  0.0169 -0.1492  0.0204
11141TIP3    H154914   2.469   6.777  16.507 -0.3864 -3.0344 -4.3392
11141TIP3    H254915   2.608   6.811  16.456  0.4597  0.9463 -0.0842
11142TIP3   OH254916   4.843   5.989   2.561 -0.5329 -0.2393 -0.3626
11142TIP3    H154917   4.868   6.078   2.537 -1.6263  0.2574  0.2757
11142TIP3    H254918   4.849   5.988   2.657  0.6075 -1.2115 -0.4230
11143TIP3   OH254919   1.226   1.197   2.142  0.6596  0.1785 -0.5737
11143TIP3    H154920   1.174   1.276   2.160  0.4573  0.1701 -1.1071
11143TIP3    H254921   1.289   1.225   2.076  0.4308 -0.1616 -0.9401
11144TIP3   OH254922   1.442   4.024   4.576 -0.2397  0.2674  0.1881
11144TIP3    H154923   1.531   4.007   4.544 -0.4109 -1.1729  0.4365
11144TIP3    H254924   1.454   4.084   4.649  0.7625 -1.5869  1.6235
11145TIP3   OH254925   5.635   5.196   4.578  0.1784 -0.6213  0.1494
11145TIP3    H154926   5.625   5.155   4.492 -0.2745  0.7402 -0.4693
11145TIP3    H254927   5.703   5.143   4.622  2.3052  0.1410 -2.0024
11146TIP3   OH254928   0.485   3.291  13.975 -0.3047  0.5813  0.1721
11146TIP3    H154929   0.525   3.373  14.002  0.3465 -0.0174  1.0784
11146TIP3    H254930   0.478   3.240  14.056  0.4147 -0.7265 -0.5612
11147TIP3   OH254931   0.527   5.486   2.439  0.4121 -0.2863  0.1575
11147TIP3    H154932   0.457   5.431   2.474  0.2771 -1.1814 -1.4176
11147TIP3    H254933   0.608   5.448   2.476  0.2120 -0.6007  0.2766
11148TIP3   OH254934   0.709   2.692  10.040 -0.2093  0.1967 -0.2872
11148TIP3    H154935   0.663   2.740   9.971 -2.7786 -0.7180  0.6818
11148TIP3    H254936   0.732   2.760  10.104 -3.1975  0.3633  0.7466
11149TIP3   OH254937   2.045   5.760  16.145 -0.1258 -0.7247  0.3242
11149TIP3    H154938   1.973   5.811  16.182 -1.2731 -2.6289  0.9080
11149TIP3    H254939   2.124   5.804  16.176 -1.0218  1.0616  0.2027
11150TIP3   OH254940   0.276   4.357   5.181  0.1113  0.2953 -0.1909
11150TIP3    H154941   0.278   4.265   5.207 -0.3449  0.2690 -0.2384
11150TIP3    H254942   0.259   4.354   5.086 -0.7950  0.4414 -0.0429
11151TIP3   OH254943   2.042   3.229   2.079  0.4127 -0.3093  0.1126
11151TIP3    H154944   2.113   3.293   2.071 -0.1708  0.3516  0.1621
11151TIP3    H254945   1.998   3.231   1.994 -2.8159  3.2077  1.5642
11152TIP3   OH254946   0.919   5.963  16.311  0.1347 -0.4533  0.1986
11152TIP3    H154947   1.002   5.918  16.292  0.0738 -0.5651  0.1994
11152TIP3    H254948   0.856   5.923  16.251  0.2387  0.1472 -0.3243
11153TIP3   OH254949   1.275   1.808   3.401  0.1880 -0.5262  0.6265
11153TIP3    H154950   1.214   1.805   3.475  2.1513 -0.8641  2.3131
11153TIP3    H254951   1.325   1.889   3.414  1.5967 -1.3622  0.5806
11154TIP3   OH254952   1.074   6.002   3.518  0.0375  0.2033 -0.4891
11154TIP3    H154953   1.094   5.928   3.461 -0.6831 -0.2411 -0.1835
11154TIP3    H254954   1.054   6.074   3.458  1.4647  0.3844 -0.7962
11155TIP3   OH254955   1.843   2.541   2.310  0.1175 -0.2404 -0.0898
11155TIP3    H154956   1.781   2.468   2.320 -3.0345  2.2015 -0.0913
11155TIP3    H254957   1.861   2.544   2.216 -1.0972 -0.0337 -0.3310
11156TIP3   OH254958   6.284   1.234  12.506  0.3386 -0.3948  0.5053
11156TIP3    H154959   6.344   1.298  12.545  0.8871 -1.2172  1.0276
11156TIP3    H254960   6.267   1.171  12.576  0.5737 -1.3622 -0.2933
11157TIP3   OH254961   2.278   5.170  12.220  0.0807 -0.4076  0.2903
11157TIP3    H154962   2.331   5.149  12.297  0.5124  0.2978  0.2049
11157TIP3    H254963   2.198   5.119  12.230 -0.3814  0.5482  1.8147
11158TIP3   OH254964   6.430   2.082  13.423  0.6305  0.3791 -0.1678
11158TIP3    H154965   6.354   2.031  13.395 -0.7219  2.7143 -1.0465
11158TIP3    H254966   6.490   2.079  13.348 -0.3486  1.6905 -1.0479
11159TIP3   OH254967   4.096   3.192   5.367  0.2380  0.3052  0.5458
11159TIP3    H154968   4.094   3.140   5.287  0.2380 -0.6007  1.1176
11159TIP3    H254969   4.015   3.169   5.412  0.2318  0.8154  0.7928
11160TIP3   OH254970   0.902   3.938  15.295  0.8087 -0.3603  0.6104
11160TIP3    H154971   0.931   3.970  15.380 -0.6088  1.9519  0.3071
11160TIP3    H254972   0.958   3.983  15.231 -0.3108  0.5040  0.2169
11161TIP3   OH254973   5.883   3.116  13.640 -0.5368  0.0962 -0.2971
11161TIP3    H154974   5.953   3.131  13.704 -0.5852  1.8736 -0.6052
11161TIP3    H254975   5.899   3.028  13.607  0.7193 -0.0600  0.6692
11162TIP3   OH254976   2.297   6.049   4.400  0.7714 -0.4212  0.3888
11162TIP3    H154977   2.248   6.035   4.481 -1.5640  0.8616 -0.6982
11162TIP3    H254978   2.359   6.119   4.422  0.0521  0.0263  1.0389
11163TIP3   OH254979   3.213   1.411  13.239 -0.4561  0.2019  0.4082
11163TIP3    H154980   3.233   1.418  13.146  1.1316  0.6317  0.7537
11163TIP3    H254981   3.164   1.328  13.247  0.6930 -0.6045 -0.6098
11164TIP3   OH254982   1.960   0.060  11.324 -0.0988  0.0936  0.5344
11164TIP3    H154983   1.893   0.058  11.392 -0.7600  0.9738 -0.0710
11164TIP3    H254984   2.035   0.102  11.366  0.4496 -1.7269  1.5029
11165TIP3   OH254985   6.314   3.437  16.842 -0.0059 -0.0918 -0.1314
11165TIP3    H154986   6.322   3.482  16.926 -1.1539  2.9336 -1.4906
11165TIP3    H254987   6.271   3.500  16.784  2.5885 -1.1625 -3.6205
11166TIP3   OH254988   0.412   2.275  14.148 -0.1056  0.9224  0.1834
11166TIP3    H154989   0.318   2.289  14.136 -0.1869  0.3205  0.0857
11166TIP3    H254990   0.428   2.298  14.240 -0.7838 -1.1197  0.8660
11167TIP3   OH254991   4.961   1.975  13.185  0.5506 -0.2514  0.0146
11167TIP3    H154992   4.885   2.018  13.225  1.7757  1.9242  0.2002
11167TIP3    H254993   4.932   1.886  13.168 -1.8577  0.3412  0.5633
11168TIP3   OH254994   3.239   4.000   1.161  0.0157  0.1264 -0.5866
11168TIP3    H154995   3.331   4.024   1.176 -0.5716  1.8044  0.7086
11168TIP3    H254996   3.203   4.074   1.113 -0.8213 -0.1822 -0.4517
11169TIP3   OH254997   1.253   2.873  13.043  0.4191 -0.9226  0.2351
11169TIP3    H154998   1.236   2.903  13.132  0.0520 -2.4588  0.7132
11169TIP3    H254999   1.168   2.878  12.999  1.0089  2.0319 -0.7929
11170TIP3   OH255000   2.547   2.456  12.626  0.2769  0.8737  0.0367
11170TIP3    H155001   2.579   2.485  12.541 -0.1381 -0.3862 -0.5746
11170TIP3    H255002   2.614   2.394  12.657 -0.3518  0.1017 -0.1217
11171TIP3   OH255003   0.622   2.049  13.166  0.0084 -0.0356  0.2957
11171TIP3    H155004   0.674   2.104  13.224 -0.3715  1.7731 -1.0025
11171TIP3    H255005   0.676   2.038  13.088 -0.3401 -0.6824  0.1356
11172TIP3   OH255006   5.728   0.814   1.169  0.5972  0.7856 -0.2331
11172TIP3    H155007   5.684   0.737   1.134 -0.6057  1.5407 -0.4524
11172TIP3    H255008   5.698   0.820   1.260 -0.8778  2.0402 -0.7464
11173TIP3   OH255009   3.995   0.420  11.005  0.2076 -0.0765 -0.1545
11173TIP3    H155010   3.927   0.409  11.072  1.8867  0.7078  1.7838
11173TIP3    H255011   4.004   0.333  10.966 -0.8165 -0.5611  0.6474
11174TIP3   OH255012   0.213   0.901  13.380  0.5640 -0.1010  0.2349
11174TIP3    H155013   0.232   0.817  13.338 -0.0272  0.0450 -0.3494
11174TIP3    H255014   0.146   0.941  13.324 -0.2458  0.0996  1.3254
11175TIP3   OH255015   4.269   4.973  15.797  0.0759 -0.1071 -0.2024
11175TIP3    H155016   4.258   5.006  15.886  1.2824  0.8608 -0.3918
11175TIP3    H255017   4.340   4.909  15.803  0.0184 -0.1958 -0.4361
11176TIP3   OH255018   1.680   2.932   0.082 -0.1570  0.4335  0.5840
11176TIP3    H155019   1.689   2.874   0.158 -0.6926  1.6956  1.6563
11176TIP3    H255020   1.765   2.929   0.039  0.0263 -0.6208  0.9994
11177TIP3   OH255021   5.225   2.261   6.383 -0.4499  0.0689  0.2734
11177TIP3    H155022   5.146   2.259   6.438 -0.8523  0.0660 -0.2978
11177TIP3    H255023   5.207   2.330   6.319  0.2817  0.5088  0.5319
11178TIP3   OH255024   2.868   2.424  11.352 -0.2531  0.3683 -0.8601
11178TIP3    H155025   2.862   2.360  11.280 -0.2808  0.1476 -0.6627
11178TIP3    H255026   2.864   2.509  11.308 -2.2639  0.2578 -0.9587
11179TIP3   OH255027   0.444   2.114  10.903  0.3530 -0.2090  0.7946
11179TIP3    H155028   0.532   2.097  10.937  1.1099  2.2334  0.2246
11179TIP3    H255029   0.458   2.146  10.814 -1.2133 -0.7090  0.3225
11180TIP3   OH255030   1.199   3.636   4.504  0.3660  0.3599  0.3196
11180TIP3    H155031   1.180   3.622   4.597  0.9765 -0.6936  0.3112
11180TIP3    H255032   1.279   3.585   4.489 -1.3916 -2.0818 -1.4808
11181TIP3   OH255033   2.091   5.598   1.522 -0.6187 -0.7262 -0.2732
11181TIP3    H155034   2.005   5.617   1.486 -1.1101 -1.8606  0.2517
11181TIP3    H255035   2.077   5.586   1.615  0.1622 -0.5984 -0.1284
11182TIP3   OH255036   6.465   6.345  13.192 -0.5355 -0.0466  0.2047
11182TIP3    H155037   6.501   6.293  13.120 -2.2398 -1.0762  0.0351
11182TIP3    H255038   6.512   6.315  13.269  0.3360  0.0665 -0.2703
11183TIP3   OH255039   0.307   1.390   6.095  0.2607  0.4423  1.0020
11183TIP3    H155040   0.220   1.409   6.062  0.2346 -0.7387  0.3241
11183TIP3    H255041   0.316   1.295   6.086  1.1640  0.3840  2.1786
11184TIP3   OH255042   2.621   3.473  14.738  0.4249 -0.1983 -0.1710
11184TIP3    H155043   2.667   3.547  14.778  0.0424 -0.4779  0.8139
11184TIP3    H255044   2.690   3.410  14.718  0.7298  0.3281 -0.8327
11185TIP3   OH255045   1.217   5.745  15.602 -0.6105  0.3565 -0.2003
11185TIP3    H155046   1.140   5.698  15.634 -0.8336  0.3575 -0.7256
11185TIP3    H255047   1.290   5.684  15.616 -0.7529  0.2318  0.0029
11186TIP3   OH255048   5.985   1.380   2.665  0.0575 -0.5495  0.3397
11186TIP3    H155049   5.943   1.297   2.647 -0.1653 -0.1526 -1.1075
11186TIP3    H255050   5.937   1.416   2.739  0.5184 -1.9315  1.3549
11187TIP3   OH255051   0.424   4.326  17.100  0.0509 -0.0405 -0.0558
11187TIP3    H155052   0.463   4.377  17.170 -0.1641 -1.0109  0.7994
11187TIP3    H255053   0.403   4.389  17.032 -2.3158  1.3856  1.8503
11188TIP3   OH255054   5.090   4.082   2.079  0.1322 -0.1091  0.0929
11188TIP3    H155055   5.117   4.100   2.169  1.1210 -2.0511  0.2315
11188TIP3    H255056   5.171   4.058   2.034 -0.3110  1.0260 -1.3959
11189TIP3   OH255057   4.417   0.658   3.030  0.0270 -0.0023  0.3633
11189TIP3    H155058   4.405   0.583   2.971  0.1808  1.2870 -1.3765
11189TIP3    H255059   4.500   0.641   3.074  1.1327  0.1241 -1.5817
11190TIP3   OH255060   0.887   3.278   2.100  0.6445 -0.4147  0.0530
11190TIP3    H155061   0.954   3.265   2.167  0.6851 -0.5305 -0.0107
11190TIP3    H255062   0.868   3.190   2.068 -0.5262 -0.5640  1.0397
11191TIP3   OH255063   0.472   1.832  14.626 -0.4291 -0.2227  0.1555
11191TIP3    H155064   0.529   1.803  14.697  0.2017  0.1264 -0.1954
11191TIP3    H255065   0.450   1.922  14.648  0.3675  0.1351 -0.4450
11192TIP3   OH255066   0.168   2.881  13.417  0.1014 -0.0156 -0.4827
11192TIP3    H155067   0.197   2.936  13.344 -0.1501 -0.0688 -0.6221
11192TIP3    H255068   0.249   2.841  13.450  0.0958 -0.9051 -1.4751
11193TIP3   OH255069   5.422   3.331   4.619  0.2048  1.0444 -0.3833
11193TIP3    H155070   5.497   3.321   4.678 -0.9487  0.6526  1.0771
11193TIP3    H255071   5.391   3.242   4.605 -0.3225  1.2482 -0.5227
11194TIP3   OH255072   4.290   0.902  11.567 -0.1819 -0.1084 -0.3156
11194TIP3    H155073   4.218   0.949  11.609  0.4689  1.9086 -1.3255
11194TIP3    H255074   4.285   0.928  11.475  1.4002 -0.5010 -0.5397
11195TIP3   OH255075   6.141   6.788  11.215  0.1337  0.5625 -0.0313
11195TIP3    H155076   6.151   6.698  11.246 -1.6651 -0.3281 -1.8141
11195TIP3    H255077   6.135   6.781  11.120 -2.6787  2.1956 -0.1109
11196TIP3   OH255078   6.086   3.932   0.003 -0.1869 -0.1948 -0.1237
11196TIP3    H155079   6.088   3.983   0.084 -1.0715  1.8375 -1.3271
11196TIP3    H255080   6.173   3.943  -0.035 -0.4750  0.7089 -0.5367
11197TIP3   OH255081   0.032   1.188  13.581  0.9322  0.4391 -0.4588
11197TIP3    H155082   0.106   1.155  13.632  0.3815  1.1631  0.8564
11197TIP3    H255083  -0.023   1.233  13.645 -0.2616  0.5807 -1.5467
11198TIP3   OH255084   4.637   0.033  14.999 -0.4200  0.0979 -0.5218
11198TIP3    H155085   4.684  -0.021  15.062 -1.5010  0.3365  0.5141
11198TIP3    H255086   4.706   0.079  14.950  0.5543 -2.2833 -1.5518
11199TIP3   OH255087   4.402   2.524  13.996  0.3875 -0.1211 -0.1940
11199TIP3    H155088   4.492   2.497  13.975 -0.1286 -2.0266 -0.1664
11199TIP3    H255089   4.364   2.547  13.911  0.8426  0.5297 -0.2258
11200TIP3   OH255090   3.353   6.766   2.086  0.0738 -0.1494 -0.1087
11200TIP3    H155091   3.321   6.856   2.098  0.9783  0.1811 -0.1212
11200TIP3    H255092   3.379   6.762   1.994  3.2773  0.6851  0.6371
11201TIP3   OH255093   1.739   3.371   4.828  0.5849  0.3784  0.6056
11201TIP3    H155094   1.692   3.304   4.878  0.9784 -1.0418 -0.8414
11201TIP3    H255095   1.821   3.382   4.875  0.0900  0.6027  1.4299
11202TIP3   OH255096   0.473   6.055   3.100 -0.0414 -0.5127  0.4573
11202TIP3    H155097   0.396   6.083   3.150  0.4225 -0.1943  1.0094
11202TIP3    H255098   0.520   6.136   3.080 -1.0070 -0.4469 -1.8962
11203TIP3   OH255099   5.593   2.576  12.567  0.0571 -0.6564 -0.0923
11203TIP3    H155100   5.568   2.486  12.543 -0.7081 -0.4372 -0.1425
11203TIP3    H255101   5.543   2.594  12.646  0.3504 -0.3302  0.0187
11204TIP3   OH255102   1.593   3.702   4.297 -0.4382 -1.0135 -0.3091
11204TIP3    H155103   1.521   3.764   4.306 -0.1590 -0.6775 -0.3752
11204TIP3    H255104   1.621   3.712   4.206  1.3429  0.6958  0.3672
11205TIP3   OH255105   1.177   5.973  13.763  0.4630  0.1377 -0.1620
11205TIP3    H155106   1.154   5.895  13.813  0.5024 -0.0000 -0.3581
11205TIP3    H255107   1.105   6.033  13.778  1.1551  0.6643  1.2575
11206TIP3   OH255108   1.191   6.379  13.122 -0.3258  0.1926  0.0355
11206TIP3    H155109   1.250   6.375  13.047 -0.3729 -2.1001  0.0503
11206TIP3    H255110   1.219   6.306  13.178 -2.2714 -0.0749  0.7153
11207TIP3   OH255111   3.589   1.840  13.305 -0.0201 -0.4902  0.2820
11207TIP3    H155112   3.653   1.910  13.308  0.3406 -0.8017 -0.0450
11207TIP3    H255113   3.542   1.854  13.222  0.3292 -0.8727  0.0153
11208TIP3   OH255114   3.028   5.264  13.199 -0.0541  0.7996 -0.4211
11208TIP3    H155115   3.004   5.276  13.290  1.2041 -0.3390  0.1053
11208TIP3    H255116   2.971   5.193  13.168  0.4423  0.2494 -0.0997
11209TIP3   OH255117   0.329   0.517   3.267  0.0154 -0.2109  0.0421
11209TIP3    H155118   0.322   0.581   3.196  1.5765 -0.2810 -0.2139
11209TIP3    H255119   0.326   0.432   3.222  0.3357 -0.2646  0.1175
11210TIP3   OH255120   4.903   1.911  11.320  0.2298 -0.1889 -0.2131
11210TIP3    H155121   4.981   1.862  11.345 -0.0305  0.0879  1.2121
11210TIP3    H255122   4.917   1.933  11.228  1.3804 -0.9786 -0.2417
11211TIP3   OH255123   3.404   1.158  13.774 -0.0088  0.1983 -0.7596
11211TIP3    H155124   3.421   1.081  13.828 -0.4944  0.2125 -0.5829
11211TIP3    H255125   3.309   1.160  13.763 -0.1383  1.5071  0.3294
11212TIP3   OH255126   4.899   1.382   1.727 -0.0036  0.3327  0.2416
11212TIP3    H155127   4.909   1.312   1.662 -0.7441 -0.9037  1.3876
11212TIP3    H255128   4.834   1.441   1.689  1.0595  0.7458 -1.0012
11213TIP3   OH255129   6.356   3.990  17.049  0.7109 -0.7765 -0.0098
11213TIP3    H155130   6.420   3.929  17.086  1.4645  0.1717  0.2770
11213TIP3    H255131   6.377   3.994  16.956  0.9582 -0.6012  0.0536
11214TIP3   OH255132   0.815   3.376  16.357 -0.4778  0.1501 -0.2022
11214TIP3    H155133   0.885   3.422  16.403 -1.7596  1.6208  0.3535
11214TIP3    H255134   0.787   3.437  16.289 -0.3351 -0.9711 -1.3107
11215TIP3   OH255135   2.751   2.076   5.080 -0.0597 -0.2457 -0.2411
11215TIP3    H155136   2.696   2.006   5.046  0.4921 -0.4507 -0.7306
11215TIP3    H255137   2.823   2.031   5.123 -1.0713 -0.0025  1.8160
11216TIP3   OH255138   5.552   3.131  12.651 -0.6328 -0.1053  0.4176
11216TIP3    H155139   5.542   3.090  12.565 -0.5372 -0.5102  0.5975
11216TIP3    H255140   5.469   3.113  12.696 -0.7155  0.1800  0.3788
11217TIP3   OH255141   1.500   6.265  16.149  0.0145 -0.1640  0.2571
11217TIP3    H155142   1.573   6.276  16.210  0.4803 -1.2736 -0.0651
11217TIP3    H255143   1.519   6.324  16.076  0.7750 -0.6967  0.0196
11218TIP3   OH255144   4.702   0.806  16.206  0.8662 -0.3691  0.1489
11218TIP3    H155145   4.751   0.799  16.125  1.8488 -0.5910  0.7403
11218TIP3    H255146   4.628   0.747  16.195  1.6917 -1.3898 -0.1163
11219TIP3   OH255147   5.305   2.265  13.323 -0.1836  0.0805  0.0056
11219TIP3    H155148   5.257   2.306  13.251 -1.1333 -0.5435  0.2510
11219TIP3    H255149   5.278   2.173  13.320  3.0747 -0.9870 -1.5388
11220TIP3   OH255150   5.912   2.671  13.802  0.3916  0.2957 -0.4787
11220TIP3    H155151   5.845   2.709  13.859  2.0845  0.0769  1.8210
11220TIP3    H255152   5.881   2.583  13.784  0.0974  0.1480  0.6757
11221TIP3   OH255153   4.838   5.457  13.006 -0.8178  0.3400  0.1711
11221TIP3    H155154   4.912   5.484  13.060  1.3394 -0.1842 -2.2893
11221TIP3    H255155   4.806   5.539  12.966  0.2757  0.2917 -0.8585
11222TIP3   OH255156   1.987   0.122   0.074 -0.1336  0.0090  0.2801
11222TIP3    H155157   2.025   0.034   0.071 -2.4338 -1.0415 -0.5519
11222TIP3    H255158   1.964   0.135   0.165  1.9800  0.6221  0.7807
11223TIP3   OH255159   1.298   6.793   4.620  0.3439 -0.0136 -0.3231
11223TIP3    H155160   1.372   6.833   4.575 -0.7217  0.7707 -1.4437
11223TIP3    H255161   1.298   6.702   4.590  0.5757  0.1071 -0.7035
11224TIP3   OH255162   6.696   0.683  13.502 -0.4658 -0.0201 -0.0651
11224TIP3    H155163   6.749   0.638  13.436  0.8897  1.8421 -0.3206
11224TIP3    H255164   6.632   0.733  13.451 -0.5546  0.0309  0.0975
11225TIP3   OH255165   2.860   0.205  14.565 -0.0888  0.2922  0.3943
11225TIP3    H155166   2.818   0.133  14.519  0.8149  1.0035 -1.6765
11225TIP3    H255167   2.836   0.193  14.656 -1.0081 -1.8806 -0.0775
11226TIP3   OH255168   6.591   2.111   1.511 -0.3653 -0.0956  0.7408
11226TIP3    H155169   6.687   2.110   1.511 -0.2567  0.4069 -2.1006
11226TIP3    H255170   6.566   2.061   1.588  2.1834 -0.6924  1.2768
11227TIP3   OH255171   5.218   5.895  12.531  0.6473  0.0782  0.0011
11227TIP3    H155172   5.137   5.915  12.578  0.3238 -1.0093 -0.0777
11227TIP3    H255173   5.191   5.881  12.440  0.1711 -4.4469  0.6174
11228TIP3   OH255174   3.635   6.534  11.020  0.1767 -0.6798  0.1070
11228TIP3    H155175   3.673   6.551  10.934 -0.3521 -0.6037 -0.1188
11228TIP3    H255176   3.541   6.552  11.008 -0.0516 -1.5824  0.4440
11229TIP3   OH255177   5.630   1.841  12.464  0.7098 -0.2096  0.0862
11229TIP3    H155178   5.567   1.769  12.469 -0.9037  1.1466  0.3969
11229TIP3    H255179   5.625   1.870  12.373  0.3973  0.2978  0.2606
11230TIP3   OH255180   2.119   1.273  14.335 -0.0004  0.4712  0.0093
11230TIP3    H155181   2.099   1.298  14.425 -1.0858  1.2448 -0.4167
11230TIP3    H255182   2.053   1.208  14.312  1.4446 -1.1876  0.3687
11231TIP3   OH255183   4.503   1.772   5.642  0.1460 -0.1001  0.1186
11231TIP3    H155184   4.491   1.767   5.737  1.4535 -0.0171  0.2975
11231TIP3    H255185   4.421   1.809   5.610 -1.3506 -2.4726  0.9284
11232TIP3   OH255186   4.074   4.419  11.166  0.1202 -0.1870 -0.1894
11232TIP3    H155187   4.164   4.430  11.198 -0.4922  0.9203  1.3006
11232TIP3    H255188   4.020   4.428  11.245 -1.4379  1.6673 -1.3805
11233TIP3   OH255189   4.217   4.025  13.054  0.2136  0.0417 -0.3755
11233TIP3    H155190   4.211   4.022  12.959 -0.0940 -0.2082 -0.3482
11233TIP3    H255191   4.299   4.073  13.071 -0.1716  0.8493 -0.7521
11234TIP3   OH255192   3.071   1.888   1.449  0.1844  0.2473  0.4225
11234TIP3    H155193   3.059   1.828   1.376 -0.9884  2.5432 -1.4079
11234TIP3    H255194   3.166   1.897   1.457  0.4797 -2.7402  1.6661
11235TIP3   OH255195   5.829   2.596   3.490 -0.3426 -0.6731 -0.1586
11235TIP3    H155196   5.786   2.513   3.470 -2.6866 -0.2212  2.3722
11235TIP3    H255197   5.843   2.594   3.584  0.0195  1.5730 -0.0975
11236TIP3   OH255198   1.958   1.864   5.444  0.0946  1.0357 -1.0142
11236TIP3    H155199   1.880   1.836   5.397  0.6454  1.8064 -2.4453
11236TIP3    H255200   1.924   1.908   5.522 -0.8378 -0.2031 -0.6935
11237TIP3   OH255201   2.147   1.079   2.792  0.2004 -0.0264  0.7660
11237TIP3    H155202   2.105   0.993   2.793  0.1899 -0.0941 -1.1219
11237TIP3    H255203   2.117   1.121   2.872 -2.2077 -0.6772  0.2979
11238TIP3   OH255204   2.918   5.857  13.356 -0.6886 -0.3085 -0.5472
11238TIP3    H155205   2.877   5.926  13.407  0.8827  0.0734  0.2440
11238TIP3    H255206   2.911   5.779  13.411 -0.2777 -0.2261 -0.3811
11239TIP3   OH255207   3.134   0.071   6.628  0.1638  0.4762 -0.2615
11239TIP3    H155208   3.146   0.156   6.586  2.5228 -0.4688 -1.7015
11239TIP3    H255209   3.210   0.062   6.686 -0.7904 -0.1002  0.9536
11240TIP3   OH255210   5.648   3.268   5.129  0.7133  0.0571 -0.8188
11240TIP3    H155211   5.586   3.209   5.172  0.6841  0.5232 -0.2127
11240TIP3    H255212   5.687   3.215   5.059  0.7827 -0.7154 -0.2055
11241TIP3   OH255213   0.148   4.112   5.024  0.6793  0.5178  0.0385
11241TIP3    H155214   0.154   4.083   5.115 -1.9229  0.3385  0.2418
11241TIP3    H255215   0.143   4.031   4.973 -1.6101  0.5009  0.1576
11242TIP3   OH255216   2.690   4.823   5.253 -0.4870  0.2218 -0.1246
11242TIP3    H155217   2.766   4.777   5.290  0.9346  1.5402 -1.2382
11242TIP3    H255218   2.614   4.779   5.291  0.8177 -1.4684  0.6736
11243TIP3   OH255219   3.329   1.289   4.908  0.6291 -0.6748  0.6544
11243TIP3    H155220   3.344   1.211   4.961  1.2201 -2.2539 -1.6981
11243TIP3    H255221   3.380   1.358   4.951 -1.1035 -1.0772  3.6669
11244TIP3   OH255222   6.438   5.139  13.838 -0.1240  0.3746 -0.4526
11244TIP3    H155223   6.347   5.158  13.812 -0.5311 -0.1435  0.5451
11244TIP3    H255224   6.464   5.215  13.891 -0.1449  0.3113 -0.3499
11245TIP3   OH255225   5.264   4.054   5.927 -0.0498  0.3527 -0.1069
11245TIP3    H155226   5.174   4.065   5.956 -0.0910 -1.5187  0.6424
11245TIP3    H255227   5.313   4.124   5.971 -0.7730 -0.0241  1.3505
11246TIP3   OH255228   5.331   1.088   1.453 -0.1613 -0.5335 -0.1049
11246TIP3    H155229   5.344   1.038   1.373 -2.9610 -1.7726  0.1110
11246TIP3    H255230   5.298   1.024   1.517 -0.5188  0.9187  1.2374
11247TIP3   OH255231   1.779   4.273  14.522  0.1244  0.3081  0.1477
11247TIP3    H155232   1.818   4.353  14.557 -1.3254  1.0103  0.2494
11247TIP3    H255233   1.827   4.202  14.563  0.1490  1.1274  1.5873
11248TIP3   OH255234   5.453   6.301  16.867 -0.8079  0.0038 -0.3404
11248TIP3    H155235   5.459   6.334  16.956 -0.2425 -1.4771  0.2025
11248TIP3    H255236   5.363   6.321  16.840 -0.7970  1.0045  0.3180
11249TIP3   OH255237   4.591   5.031   5.147  0.4435 -0.4037  0.2740
11249TIP3    H155238   4.509   4.990   5.176 -0.0581  1.3543  1.4956
11249TIP3    H255239   4.596   5.012   5.054 -1.1873 -0.8537  0.2548
11250TIP3   OH255240   2.321   1.534  17.069 -0.2972 -0.2838 -0.5211
11250TIP3    H155241   2.311   1.477  16.993  0.9363 -0.6313 -0.4365
11250TIP3    H255242   2.407   1.514  17.104  0.1945  1.6441 -0.5034
11251TIP3   OH255243   4.240   6.398  14.060  0.0829  0.3529  0.1853
11251TIP3    H155244   4.275   6.337  13.995 -1.5765 -0.3447 -0.0959
11251TIP3    H255245   4.272   6.364  14.144 -0.0407 -0.3446 -0.0460
11252TIP3   OH255246   3.783   5.432   3.332 -0.6899  0.1673  0.5084
11252TIP3    H155247   3.722   5.505   3.346  0.9196  1.5693  0.5628
11252TIP3    H255248   3.826   5.452   3.249 -2.1656 -2.2360 -0.9574
11253TIP3   OH255249   2.904   6.100  13.056 -0.2516  0.2049  0.0155
11253TIP3    H155250   2.890   6.006  13.063  0.8061  0.1475  1.8822
11253TIP3    H255251   2.822   6.140  13.084 -0.3058 -0.1535  0.3599
11254TIP3   OH255252   1.872   5.682   1.340  0.1734 -0.1952 -0.2963
11254TIP3    H155253   1.854   5.764   1.386 -2.1735 -0.3953 -0.7332
11254TIP3    H255254   1.812   5.683   1.266  0.4178 -2.1175 -0.5606
11255TIP3   OH255255   1.864   4.574   5.299  0.3267  0.0391 -0.1009
11255TIP3    H155256   1.897   4.631   5.229  0.4300  1.5314  1.1202
11255TIP3    H255257   1.941   4.550   5.349 -0.0889  1.7109  1.4346
11256TIP3   OH255258   4.405   0.633  16.868  0.2857  0.3531 -1.2336
11256TIP3    H155259   4.328   0.590  16.907 -0.6961  1.8718 -1.4220
11256TIP3    H255260   4.369   0.707  16.820  1.7666  0.2765 -2.5283
11257TIP3   OH255261   3.477   1.850   0.330  0.6617 -0.1912 -0.7282
11257TIP3    H155262   3.563   1.865   0.291  0.6306  2.1373 -0.0113
11257TIP3    H255263   3.415   1.882   0.264  0.5215  1.4597  0.1509
11258TIP3   OH255264   5.750   4.313  10.558  0.3212  0.1916  0.2120
11258TIP3    H155265   5.742   4.394  10.608  0.1567  0.8359 -0.8257
11258TIP3    H255266   5.724   4.337  10.469  1.3366 -0.7337 -0.3570
11259TIP3   OH255267   3.757   6.395  14.771 -0.1705 -0.3568 -0.3927
11259TIP3    H155268   3.774   6.352  14.855 -1.1333  0.7283  0.4014
11259TIP3    H255269   3.664   6.419  14.775 -1.0726 -2.8180 -2.9929
11260TIP3   OH255270   5.806   5.390  13.107  0.2925 -0.5458 -0.4801
11260TIP3    H155271   5.746   5.418  13.176 -0.5642 -1.6306 -0.7542
11260TIP3    H255272   5.749   5.375  13.031  1.0323 -0.7350 -1.0080
11261TIP3   OH255273   0.392   0.001  17.032 -0.5561  0.3454 -0.7711
11261TIP3    H155274   0.333   0.066  16.993  0.5312  0.8552 -1.6250
11261TIP3    H255275   0.458  -0.016  16.964  1.6720  1.6003  0.9138
11262TIP3   OH255276   1.858   0.415   1.108 -0.3001 -0.1063 -0.3602
11262TIP3    H155277   1.856   0.415   1.012  4.3896 -0.3174 -0.6867
11262TIP3    H255278   1.874   0.507   1.131 -0.6205 -0.1844  0.1897
11263TIP3   OH255279   2.629   6.079  15.999 -0.0592 -0.3472  0.2035
11263TIP3    H155280   2.725   6.077  15.992 -0.1527 -0.9120 -1.4468
11263TIP3    H255281   2.605   6.168  15.973  0.0682  0.2329  1.9706
11264TIP3   OH255282   5.089   0.974   5.503  0.4876 -0.3347  0.2315
11264TIP3    H155283   5.020   0.908   5.492  0.0779 -0.0092  0.8123
11264TIP3    H255284   5.138   0.971   5.421 -1.7502  1.2275 -1.2842
11265TIP3   OH255285   2.480   1.016  11.867  0.0803 -0.3730  0.2587
11265TIP3    H155286   2.441   1.061  11.942  0.5889 -3.0419  2.3164
11265TIP3    H255287   2.453   0.925  11.878  2.5041 -1.3589 -1.2161
11266TIP3   OH255288   6.212   3.957  15.121  0.2032  0.5679  0.0378
11266TIP3    H155289   6.235   4.041  15.082  0.9847  0.7324  0.8340
11266TIP3    H255290   6.150   3.979  15.190  2.2691  0.8098  1.9183
11267TIP3   OH255291   4.972   6.811   3.633  0.6034  0.0324 -0.7871
11267TIP3    H155292   4.928   6.726   3.626  1.1400 -0.2992 -0.2762
11267TIP3    H255293   4.902   6.872   3.656  0.5266 -0.6641  1.0906
11268TIP3   OH255294   3.050   0.687   3.608 -0.1533  0.3301 -0.3868
11268TIP3    H155295   2.966   0.726   3.633 -0.4905 -1.5714  1.7252
11268TIP3    H255296   3.094   0.668   3.691  0.9573 -1.6240 -1.3451
11269TIP3   OH255297   2.094   4.657  13.499  0.4084 -0.4438 -0.0117
11269TIP3    H155298   2.086   4.723  13.431 -3.2136 -0.5582  0.0811
11269TIP3    H255299   2.181   4.670  13.536  0.4877  3.1193 -1.1279
11270TIP3   OH255300   2.159   6.113   4.664  0.5308 -0.1108  0.2836
11270TIP3    H155301   2.138   6.202   4.695 -1.4684  0.0404 -1.3111
11270TIP3    H255302   2.145   6.058   4.741  0.3933  0.8002  0.9371
11271TIP3   OH255303   1.495   0.249   3.484  0.7631 -0.4776  0.3684
11271TIP3    H155304   1.412   0.248   3.436  1.0227 -0.7973 -0.0913
11271TIP3    H255305   1.470   0.245   3.576  0.2528  0.1359  0.2607
11272TIP3   OH255306   3.551   5.379   1.046  0.3147  0.2995 -0.5447
11272TIP3    H155307   3.478   5.365   1.106 -0.6580  0.2744 -1.6872
11272TIP3    H255308   3.627   5.344   1.092 -0.7307 -1.6195 -0.1467
11273TIP3   OH255309   6.812   1.352  15.098 -0.4751 -0.2099 -0.7005
11273TIP3    H155310   6.781   1.327  15.011 -1.5083 -1.6050  0.0378
11273TIP3    H255311   6.742   1.408  15.133  0.8377  2.0872 -1.4839
11274TIP3   OH255312   2.733   4.840   3.896  0.4322  0.5121 -0.0491
11274TIP3    H155313   2.648   4.833   3.939  0.1437  0.3924 -0.6384
11274TIP3    H255314   2.796   4.816   3.964 -0.0897 -0.8867 -0.0385
11275TIP3   OH255315   3.035   1.713   2.770  0.7600  0.2984 -0.3101
11275TIP3    H155316   3.053   1.623   2.742  2.1671  0.5951 -0.4042
11275TIP3    H255317   3.022   1.706   2.865 -3.1245 -0.5617 -0.7030
11276TIP3   OH255318   0.044   1.669  14.207  0.5132  0.3217  0.6642
11276TIP3    H155319   0.106   1.739  14.227  2.3772 -1.0967  0.1547
11276TIP3    H255320   0.087   1.618  14.138 -1.1298 -0.8701  0.4614
11277TIP3   OH255321   2.159   5.886  14.634  0.4118  0.4965 -0.2938
11277TIP3    H155322   2.224   5.819  14.617  1.7070  2.3716 -3.5697
11277TIP3    H255323   2.125   5.910  14.548 -3.1984  1.0436  1.1246
11278TIP3   OH255324   0.838   2.881  14.011 -0.0513  0.5716  0.1114
11278TIP3    H155325   0.799   2.874  13.924  0.6111  1.7763 -0.3060
11278TIP3    H255326   0.883   2.797  14.024 -0.6965  0.1341 -0.4263
11279TIP3   OH255327   1.851   0.433  16.012 -0.1343  0.8645  0.3795
11279TIP3    H155328   1.778   0.482  15.975 -1.1421 -0.9101 -0.0830
11279TIP3    H255329   1.882   0.377  15.940  0.2199 -0.0182  1.1877
11280TIP3   OH255330   3.109   5.307  12.210 -0.0379 -0.2733 -0.0898
11280TIP3    H155331   3.177   5.241  12.194  0.1207  0.4947 -3.0592
11280TIP3    H255332   3.150   5.370  12.269  2.1557  0.4963 -2.2912
11281TIP3   OH255333   3.820   0.688   4.908 -0.7590  0.6262  0.1539
11281TIP3    H155334   3.807   0.728   4.822  0.5398  1.6502  0.4010
11281TIP3    H255335   3.812   0.761   4.970 -0.8338  0.0571  0.8277
11282TIP3   OH255336   0.638   1.481   0.384 -0.9742 -0.1814 -0.5583
11282TIP3    H155337   0.687   1.401   0.401 -0.0308  0.2649 -1.0666
11282TIP3    H255338   0.618   1.516   0.470 -0.0387 -0.1776 -0.3254
11283TIP3   OH255339   4.048   3.954  13.274 -0.2914  0.6758 -0.3210
11283TIP3    H155340   3.995   4.032  13.258  0.9822  2.0134  1.5369
11283TIP3    H255341   4.115   3.956  13.206 -1.8514 -0.3864 -1.9680
11284TIP3   OH255342   6.667   2.209   3.025 -0.0691  0.4033  0.0920
11284TIP3    H155343   6.652   2.122   3.063 -0.4965 -0.2492 -1.4927
11284TIP3    H255344   6.580   2.237   2.996  0.3698  0.4391 -1.2627
11285TIP3   OH255345   0.041   6.476  14.310  0.2027  0.0806 -0.4502
11285TIP3    H155346   0.007   6.565  14.322 -1.2575 -0.5430  0.3825
11285TIP3    H255347   0.042   6.463  14.215 -0.7149  0.5933 -0.5422
11286TIP3   OH255348   6.202   6.163   5.445 -0.0077 -0.3635 -0.6439
11286TIP3    H155349   6.148   6.238   5.423 -0.3871 -0.7052 -0.8933
11286TIP3    H255350   6.267   6.159   5.375  0.3328  0.0369 -0.3530
11287TIP3   OH255351   5.731   6.510  10.743  0.3966  0.1152 -0.2334
11287TIP3    H155352   5.663   6.469  10.690 -0.0870 -1.0476  1.2398
11287TIP3    H255353   5.729   6.463  10.826  0.0442  2.9076  1.4561
11288TIP3   OH255354   0.024   5.391  16.539 -0.2831  0.2430 -0.0915
11288TIP3    H155355  -0.019   5.454  16.597  0.2027 -1.0119  1.7075
11288TIP3    H255356   0.086   5.344  16.595  1.0492 -0.2577 -1.8947
11289TIP3   OH255357   5.304   2.191  12.656  0.2943 -0.2423 -0.1110
11289TIP3    H155358   5.389   2.196  12.699 -0.6985  1.2048  1.8396
11289TIP3    H255359   5.264   2.277  12.670 -1.9052 -1.1904 -0.0742
11290TIP3   OH255360   0.807   1.756  12.066 -1.1571  0.0189  0.7634
11290TIP3    H155361   0.794   1.800  12.150 -1.1206  0.6258  0.4582
11290TIP3    H255362   0.883   1.701  12.079  0.4597  2.0400  0.4000
11291TIP3   OH255363   6.128   4.126   3.394  0.1973 -0.3619 -0.2672
11291TIP3    H155364   6.045   4.143   3.351  1.1678  0.8681 -1.7456
11291TIP3    H255365   6.150   4.036   3.370 -0.4143 -0.5047 -0.3149
11292TIP3   OH255366   3.899   4.828   0.306  0.2681 -0.6902  0.2220
11292TIP3    H155367   3.942   4.743   0.321  1.1462 -0.4524 -0.7921
11292TIP3    H255368   3.813   4.818   0.346  0.9149 -1.5209  1.4891
11293TIP3   OH255369   2.221   3.755   1.256  0.6938  0.1532 -0.2563
11293TIP3    H155370   2.205   3.788   1.167 -1.0261  0.7589  0.2527
11293TIP3    H255371   2.251   3.832   1.305  0.5895  0.0637 -0.0512
11294TIP3   OH255372   4.481   1.637   6.803  0.1059 -0.3750  0.0298
11294TIP3    H155373   4.438   1.572   6.748 -1.2430  1.0966 -0.7333
11294TIP3    H255374   4.431   1.718   6.789  1.0109  0.5632  1.8195
11295TIP3   OH255375   2.075   0.694  15.067  0.2686 -0.3664 -0.0171
11295TIP3    H155376   2.099   0.721  15.155 -1.3114  0.1344  0.2959
11295TIP3    H255377   2.006   0.628  15.080 -2.1245  1.7848 -0.8090
11296TIP3   OH255378   0.891   4.902   4.154 -0.8234 -0.3656  0.3891
11296TIP3    H155379   0.832   4.944   4.216  0.2272 -1.5306  2.2533
11296TIP3    H255380   0.972   4.889   4.202  0.6212  0.1496 -1.7486
11297TIP3   OH255381   3.314   0.101   6.344 -0.2707  0.6065  0.0997
11297TIP3    H155382   3.236   0.054   6.316  0.3113 -0.5319  0.3448
11297TIP3    H255383   3.319   0.176   6.284 -1.3284  0.4935 -0.1617
11298TIP3   OH255384   5.359   1.656   3.424 -0.0153 -0.0964 -0.3010
11298TIP3    H155385   5.415   1.703   3.485 -0.1097  2.5891 -2.0890
11298TIP3    H255386   5.282   1.633   3.475  1.2903 -0.9325  1.3804
11299TIP3   OH255387   5.914   4.191   2.214 -0.1046  0.0891 -0.2170
11299TIP3    H155388   5.985   4.158   2.269  0.9342  0.7956 -1.0849
11299TIP3    H255389   5.834   4.172   2.263  0.5053 -2.5616 -0.0908
11300TIP3   OH255390   4.042   5.164   3.064 -0.1406 -0.1550 -0.1981
11300TIP3    H155391   4.117   5.144   3.008 -1.2208 -1.0556 -1.3633
11300TIP3    H255392   4.048   5.101   3.136 -0.8792 -1.6265 -1.3654
11301TIP3   OH255393   4.887   1.249  12.871  0.7101 -0.0282  0.2074
11301TIP3    H155394   4.926   1.259  12.785  1.3781 -1.1437  0.3666
11301TIP3    H255395   4.841   1.165  12.868 -2.1522  1.4370 -0.1264
11302TIP3   OH255396   2.448   5.986  11.332 -0.0043  0.1930  0.1030
11302TIP3    H155397   2.455   5.927  11.257 -2.4862  0.2908 -0.2779
11302TIP3    H255398   2.429   5.928  11.406  1.7476  0.1662  0.5793
11303TIP3   OH255399   4.898   4.293   0.667  0.1088 -0.0160 -0.0822
11303TIP3    H155400   4.825   4.317   0.724  0.6478  1.9578 -0.1578
11303TIP3    H255401   4.975   4.295   0.724  0.2606 -0.9479 -0.2499
11304TIP3   OH255402   2.296   5.160  11.932 -0.3818  0.9032  0.1674
11304TIP3    H155403   2.376   5.131  11.886 -0.7059  1.7072 -0.9481
11304TIP3    H255404   2.322   5.165  12.024  0.2941 -0.7599  0.1122
11305TIP3   OH255405   1.470   4.305   0.228  0.0654 -0.0682  0.2307
11305TIP3    H155406   1.467   4.242   0.300 -0.1074 -0.7570 -0.3704
11305TIP3    H255407   1.562   4.302   0.198 -0.3502 -1.5145 -1.0605
11306TIP3   OH255408   3.225   0.672  13.124 -0.3598  0.0583  0.1239
11306TIP3    H155409   3.273   0.755  13.119  0.7779 -0.6499 -3.2614
11306TIP3    H255410   3.146   0.686  13.072  0.1492 -1.1234 -1.0070
11307TIP3   OH255411   0.157   3.260   5.972 -0.0517  0.1305  1.0090
11307TIP3    H155412   0.091   3.241   6.039 -2.1109  0.8053 -0.7195
11307TIP3    H255413   0.203   3.337   6.005 -1.1440  0.5587  1.6028
11308TIP3   OH255414   3.378   2.800   5.686 -0.0337 -0.2099  0.1885
11308TIP3    H155415   3.383   2.812   5.781 -0.7223  2.6510 -0.0381
11308TIP3    H255416   3.469   2.788   5.659  0.3708  0.6637  1.0780
11309TIP3   OH255417   0.721   3.661  16.408 -0.0613  0.3208  0.0751
11309TIP3    H155418   0.755   3.714  16.481 -1.2593  2.2048 -0.6515
11309TIP3    H255419   0.768   3.692  16.331 -0.9076  0.4833 -0.3963
11310TIP3   OH255420   3.228   4.712   5.267 -0.5957 -0.5226 -0.3646
11310TIP3    H155421   3.169   4.674   5.333  1.7922 -1.0562  1.6089
11310TIP3    H255422   3.286   4.641   5.244  1.9983  0.9796  1.0605
11311TIP3   OH255423   1.270   4.872   4.618  0.3711  0.0805  0.1084
11311TIP3    H155424   1.301   4.928   4.690  0.8910  0.5042 -0.4388
11311TIP3    H255425   1.299   4.917   4.539 -3.4122  1.6696 -0.5792
11312TIP3   OH255426   3.782   2.410  12.492 -0.3675  0.2838 -0.5882
11312TIP3    H155427   3.776   2.435  12.400 -3.3053  0.2968 -0.4761
11312TIP3    H255428   3.816   2.320  12.490  2.9917  1.4374 -1.3907
11313TIP3   OH255429   6.750   0.332  13.654 -0.0186  0.3686 -0.0274
11313TIP3    H155430   6.832   0.370  13.685  0.2771  0.2984 -0.7155
11313TIP3    H255431   6.703   0.406  13.615  0.6299  0.0318 -1.5219
11314TIP3   OH255432   1.723   3.650   1.186 -0.2188 -0.3996 -0.1621
11314TIP3    H155433   1.733   3.555   1.184 -0.1265 -0.4600  1.4277
11314TIP3    H255434   1.802   3.681   1.230 -0.9765  0.2425  0.7952
11315TIP3   OH255435   2.065   2.116  12.664 -0.3696  0.3314 -0.0062
11315TIP3    H155436   2.026   2.068  12.590 -0.8313  1.3880 -0.4667
11315TIP3    H255437   2.102   2.047  12.720 -1.7944 -0.6479 -0.1920
11316TIP3   OH255438   5.326   0.894   4.567 -0.3461 -0.8787  0.3448
11316TIP3    H155439   5.336   0.989   4.569  0.8168 -0.9937  0.4411
11316TIP3    H255440   5.231   0.881   4.557 -0.9534  0.2566  3.3962
11317TIP3   OH255441   5.633   1.632   2.101  0.1149 -0.6718  0.5268
11317TIP3    H155442   5.660   1.668   2.185 -0.2966 -0.3282  0.5168
11317TIP3    H255443   5.584   1.703   2.059 -0.8267 -1.2812  0.5601
11318TIP3   OH255444   2.994   5.363   6.060 -0.3424  0.0381  0.1481
11318TIP3    H155445   2.997   5.267   6.067 -1.3139  0.0990  2.3758
11318TIP3    H255446   2.966   5.392   6.147  1.6845  2.4717  0.0973
11319TIP3   OH255447   1.906   4.768  15.847 -0.3570 -0.0602  0.5021
11319TIP3    H155448   1.815   4.764  15.876  0.2493  0.1026  2.5920
11319TIP3    H255449   1.954   4.715  15.911  1.1613  0.7403  0.0784
11320TIP3   OH255450   0.697   4.352   1.987  0.1668 -0.5120 -0.7456
11320TIP3    H155451   0.641   4.350   1.910 -0.0423  1.2503 -0.6796
11320TIP3    H255452   0.786   4.358   1.953  0.0467  0.8135 -0.8966
11321TIP3   OH255453   5.720   2.561  16.413  0.0433 -0.1883 -0.1358
11321TIP3    H155454   5.687   2.620  16.345  1.0245  1.2980  0.6192
11321TIP3    H255455   5.795   2.517  16.372 -0.4964 -0.6841 -0.5992
11322TIP3   OH255456   3.849   4.541   0.846  0.0084 -0.2653 -0.2077
11322TIP3    H155457   3.769   4.537   0.898  0.5436 -0.9429  0.5840
11322TIP3    H255458   3.827   4.497   0.764 -1.5454  2.7576 -1.5848
11323TIP3   OH255459   0.246   0.644  12.983  0.0511 -0.0243 -0.0367
11323TIP3    H155460   0.212   0.710  12.922  0.9785  1.1146  0.6246
11323TIP3    H255461   0.322   0.686  13.023  1.2342 -1.8492 -0.2502
11324TIP3   OH255462   0.100   2.632   4.231 -0.1642 -0.7335  0.0221
11324TIP3    H155463   0.113   2.608   4.323 -1.3952  0.0967  0.4372
11324TIP3    H255464   0.014   2.674   4.229  0.6804  1.0806 -1.1480
11325TIP3   OH255465   0.863   5.867  16.966  0.3806 -0.4315  0.3502
11325TIP3    H155466   0.873   5.857  17.061  1.6076 -2.1212  0.0758
11325TIP3    H255467   0.950   5.849  16.930 -0.1932 -0.3621 -1.1433
11326TIP3   OH255468   6.615   2.864  16.147 -0.0949  0.0481  0.0412
11326TIP3    H155469   6.623   2.791  16.209  1.0438 -0.0114 -0.1490
11326TIP3    H255470   6.697   2.862  16.097  0.0918  1.6570  0.2409
11327TIP3   OH255471   5.966   5.869   2.518 -0.1198  0.3744 -0.0925
11327TIP3    H155472   5.970   5.775   2.501 -2.6359  0.0040  0.9162
11327TIP3    H255473   5.872   5.890   2.516 -0.0314  1.9854  3.9844
11328TIP3   OH255474   1.872   3.551  11.681 -0.0275 -0.8354  0.2912
11328TIP3    H155475   1.941   3.616  11.671  1.1624 -1.7263  2.2483
11328TIP3    H255476   1.867   3.508  11.596  1.1950 -0.1486 -0.1519
11329TIP3   OH255477   4.024   0.628   3.034 -0.1088 -0.3984 -0.5383
11329TIP3    H155478   3.930   0.625   3.050  0.1306 -0.8521  0.9170
11329TIP3    H255479   4.037   0.576   2.955 -1.1690  0.4705 -1.3122
11330TIP3   OH255480   3.795   3.074  10.549  0.4002  0.0180  0.6154
11330TIP3    H155481   3.808   3.160  10.509  0.9236  0.5554  1.8908
11330TIP3    H255482   3.879   3.054  10.590  0.4742 -1.3881 -0.1668
11331TIP3   OH255483   0.673   2.459  12.717  0.3490  0.1906  0.2233
11331TIP3    H155484   0.749   2.416  12.755  0.2917  0.7101  0.9458
11331TIP3    H255485   0.667   2.543  12.763  1.4976  1.8176 -2.2974
11332TIP3   OH255486   4.291   0.169   3.970 -0.0258 -0.2285  0.0767
11332TIP3    H155487   4.229   0.232   4.005 -0.8713 -1.8814  1.7123
11332TIP3    H255488   4.344   0.142   4.045  0.4044 -1.3526 -0.6026
11333TIP3   OH255489   5.875   6.735   3.752  0.3871  0.1499  0.0150
11333TIP3    H155490   5.907   6.664   3.808 -2.1772 -0.4251  0.9101
11333TIP3    H255491   5.948   6.796   3.747  1.1772 -0.3824  2.9951
11334TIP3   OH255492   0.616   5.356   0.465 -0.3477  0.4248  0.0851
11334TIP3    H155493   0.683   5.307   0.416  1.8475  1.2523  2.0809
11334TIP3    H255494   0.632   5.334   0.557 -2.0197  1.6473  0.7232
11335TIP3   OH255495   4.195   6.776   1.958 -0.8451  0.4660 -0.5382
11335TIP3    H155496   4.162   6.858   1.921 -0.7810  0.7971  0.1191
11335TIP3    H255497   4.117   6.729   1.987 -0.8459  0.5540 -0.3953
11336TIP3   OH255498   3.695   2.849   5.979 -0.3580 -0.4177  0.7377
11336TIP3    H155499   3.709   2.849   6.073  0.0832 -0.2122  0.6777
11336TIP3    H255500   3.602   2.832   5.968 -0.2961 -1.0923  1.1932
11337TIP3   OH255501   0.145   0.595  11.435 -0.0927 -0.5438  0.3846
11337TIP3    H155502   0.171   0.506  11.412  0.0869 -1.1315  2.6203
11337TIP3    H255503   0.052   0.588  11.459 -0.8736  0.4527 -2.0754
11338TIP3   OH255504   6.623   6.087   5.625  0.4346 -0.5245  0.1555
11338TIP3    H155505   6.556   6.050   5.683  0.1179  0.1844  0.2414
11338TIP3    H255506   6.576   6.146   5.567  0.9994  0.0851  0.3031
11339TIP3   OH255507   0.509   4.597  11.704  0.1541  0.5725 -0.0717
11339TIP3    H155508   0.503   4.542  11.782  1.6208  1.3703  0.6475
11339TIP3    H255509   0.581   4.559  11.653 -0.7961  0.0565 -1.0675
11340TIP3   OH255510   4.467   3.567   1.208 -0.0826 -0.3493 -0.5344
11340TIP3    H155511   4.447   3.473   1.205 -0.4723 -0.2896 -0.0111
11340TIP3    H255512   4.555   3.570   1.245  0.1539 -0.5309 -1.0732
11341TIP3   OH255513   5.913   4.587   4.896  0.6117 -0.7812 -0.0402
11341TIP3    H155514   5.925   4.658   4.833 -1.5304  0.3626  0.7394
11341TIP3    H255515   5.833   4.543   4.868  1.0021 -1.8451  0.4690
11342TIP3   OH255516   6.169   5.670   1.413  0.1960 -0.1995 -0.0056
11342TIP3    H155517   6.261   5.662   1.435  0.2598 -1.9797 -0.8143
11342TIP3    H255518   6.156   5.764   1.399  2.4627 -0.1189 -2.2248
11343TIP3   OH255519   4.258   5.310   4.768 -0.2727 -0.2748  0.0450
11343TIP3    H155520   4.206   5.384   4.799  1.2841  0.5465  0.7863
11343TIP3    H255521   4.310   5.345   4.696  0.0917 -0.7772  0.0513
11344TIP3   OH255522   2.224   0.667  16.773  0.0515 -0.5532 -0.1578
11344TIP3    H155523   2.236   0.693  16.682 -2.9220 -0.4172 -0.6048
11344TIP3    H255524   2.312   0.646  16.804  1.2566  0.2827 -2.7674
11345TIP3   OH255525   1.431   5.873   1.283  0.3562  0.9862  0.0911
11345TIP3    H155526   1.416   5.816   1.358 -2.0747  3.0494  1.3122
11345TIP3    H255527   1.426   5.815   1.207 -2.3417 -0.4605  1.2395
11346TIP3   OH255528   1.737   6.797  17.044 -0.5199 -0.6121 -0.0828
11346TIP3    H155529   1.769   6.763  17.127 -1.5045 -2.3161 -0.3692
11346TIP3    H255530   1.697   6.881  17.067  1.2705  0.0701  0.7510
11347TIP3   OH255531   4.146   4.713  10.603 -0.3061  0.6705 -0.8397
11347TIP3    H155532   4.160   4.723  10.509  0.2387  0.9045 -0.7368
11347TIP3    H255533   4.055   4.685  10.611  0.1589 -1.1603 -1.5550
11348TIP3   OH255534   1.461   2.285  14.183 -0.2228  0.6244 -0.2064
11348TIP3    H155535   1.532   2.242  14.231 -1.1733  0.8566  1.4791
11348TIP3    H255536   1.459   2.240  14.098 -0.8980 -2.4548  1.3016
11349TIP3   OH255537   4.561   6.847   5.073  0.0601  0.0264  0.3177
11349TIP3    H155538   4.637   6.901   5.051 -0.8472  0.9639 -0.6364
11349TIP3    H255539   4.499   6.908   5.112 -0.3150 -0.6771  0.8394
11350TIP3   OH255540   0.990   5.574  12.417  0.0269 -0.7176 -0.6094
11350TIP3    H155541   1.035   5.634  12.476  0.1687 -1.8939  0.5217
11350TIP3    H255542   1.058   5.544  12.357 -0.0738  0.3265 -1.2727
11351TIP3   OH255543   2.746   1.677  12.220 -0.0826  0.3857 -0.3036
11351TIP3    H155544   2.724   1.734  12.294 -2.2841 -0.8608  0.0830
11351TIP3    H255545   2.735   1.732  12.143  0.1962  1.1405  0.1894
11352TIP3   OH255546   5.825   3.981   4.078  0.0227 -0.3282  0.0417
11352TIP3    H155547   5.894   3.934   4.031  1.2483  0.3818  1.0238
11352TIP3    H255548   5.827   3.944   4.167 -0.7287 -0.1634  0.1342
11353TIP3   OH255549   5.182   6.506  14.431 -0.4378 -0.2011  0.0877
11353TIP3    H155550   5.223   6.490  14.346 -0.9873 -0.9320 -0.0506
11353TIP3    H255551   5.253   6.534  14.487  0.0825 -0.5220 -0.4013
11354TIP3   OH255552   1.772   1.489  13.422  0.8633  0.6163  0.4997
11354TIP3    H155553   1.840   1.546  13.386  1.1262  1.2715  1.9787
11354TIP3    H255554   1.817   1.407  13.442  0.4205 -0.3061 -1.9281
11355TIP3   OH255555   4.073   4.458  13.263  0.4309  0.1292 -0.5206
11355TIP3    H155556   4.053   4.465  13.170 -0.6735  1.3222 -0.2242
11355TIP3    H255557   4.119   4.539  13.284 -2.1119  1.3947  0.5789
11356TIP3   OH255558   5.249   4.234   5.603  0.0892  0.6268 -0.2922
11356TIP3    H155559   5.191   4.170   5.561 -1.2162 -0.6253  3.0869
11356TIP3    H255560   5.331   4.187   5.616  0.3592  0.8842 -1.0108
11357TIP3   OH255561   5.702   5.582   0.348 -0.2778 -0.1808 -0.7888
11357TIP3    H155562   5.794   5.582   0.323 -0.3120  0.5289 -0.9239
11357TIP3    H255563   5.694   5.508   0.408  0.5048  0.0961 -0.3285
11358TIP3   OH255564   2.202   3.121  12.322 -0.2557 -0.7119  1.0576
11358TIP3    H155565   2.160   3.038  12.346 -0.3297 -1.2792 -0.8801
11358TIP3    H255566   2.295   3.100  12.316 -0.0387 -0.1980  2.2938
11359TIP3   OH255567   4.937   6.455   1.947  0.1616  0.3179  0.1860
11359TIP3    H155568   4.865   6.467   1.886  1.1151  0.1490 -0.9979
11359TIP3    H255569   4.895   6.460   2.034 -1.2433  0.3234 -0.4579
11360TIP3   OH255570   6.132   4.546  16.825 -0.2063 -0.0212  0.4236
11360TIP3    H155571   6.179   4.582  16.899  1.1108 -0.8161  0.0051
11360TIP3    H255572   6.042   4.577  16.836  0.2437  0.9239  1.6367
11361TIP3   OH255573   0.976   3.378   1.336  0.1508  0.5742 -0.1919
11361TIP3    H155574   0.923   3.436   1.281  0.7634  1.7152  0.3712
11361TIP3    H255575   0.952   3.402   1.425 -2.9745 -3.1905  0.2435
11362TIP3   OH255576   0.935   5.153  11.392  0.0666 -0.7496 -0.0938
11362TIP3    H155577   0.962   5.081  11.335 -2.1052 -1.0091 -0.8826
11362TIP3    H255578   0.869   5.200  11.342 -1.2619 -0.4463  1.8412
11363TIP3   OH255579   1.234   0.523  11.961 -0.6543 -0.8341  0.0779
11363TIP3    H155580   1.170   0.574  11.911 -0.9569 -2.1274 -0.8977
11363TIP3    H255581   1.231   0.561  12.049 -0.4061  1.2237 -0.7354
11364TIP3   OH255582   6.730   4.448  12.512  0.4274 -0.1860  0.4474
11364TIP3    H155583   6.679   4.461  12.432 -0.6756  1.0079  1.2925
11364TIP3    H255584   6.809   4.403  12.483  0.3892  0.8493 -1.4385
11365TIP3   OH255585   1.224   6.301   6.082 -0.0478 -0.3720 -0.3920
11365TIP3    H155586   1.208   6.323   6.174  1.6250  3.4890 -0.7990
11365TIP3    H255587   1.299   6.241   6.084 -0.0521 -0.3547  0.7598
11366TIP3   OH255588   0.181   1.484   4.051  0.0532 -0.5793  0.2484
11366TIP3    H155589   0.210   1.566   4.090 -0.0627 -1.0639  1.3786
11366TIP3    H255590   0.096   1.505   4.011 -0.0022 -0.1695  0.5790
11367TIP3   OH255591   2.196   0.202  16.671  0.0337  0.3680  0.4353
11367TIP3    H155592   2.237   0.159  16.596 -1.2848 -1.9736  0.9612
11367TIP3    H255593   2.108   0.164  16.676 -1.2976  3.2343  0.9517
11368TIP3   OH255594   6.772   1.869  13.706  0.4251 -0.4372  0.2854
11368TIP3    H155595   6.719   1.845  13.630  1.3657 -3.2180  0.3821
11368TIP3    H255596   6.782   1.964  13.700 -0.4877 -0.4370 -2.4096
11369TIP3   OH255597   2.384   5.548   0.779  0.0482 -0.2226 -0.0396
11369TIP3    H155598   2.431   5.515   0.703 -0.0470 -0.2076 -0.1052
11369TIP3    H255599   2.402   5.483   0.848  1.1814  0.4307  0.2938
11370TIP3   OH255600   1.806   6.237  13.705 -0.2533 -0.2083  0.1001
11370TIP3    H155601   1.713   6.232  13.724 -0.4951 -0.7895 -1.1058
11370TIP3    H255602   1.832   6.146  13.690  0.9912 -0.3157  2.4218
11371TIP3   OH255603   1.960   5.453  12.200 -0.3338 -0.5981  0.6590
11371TIP3    H155604   1.893   5.520  12.218 -1.6162 -1.7061  0.1468
11371TIP3    H255605   1.967   5.405  12.283 -0.3235 -0.6081  0.6522
11372TIP3   OH255606   2.035   4.434  14.190  0.5304 -0.1617 -0.5992
11372TIP3    H155607   2.090   4.468  14.119  1.5374 -0.8375 -0.1654
11372TIP3    H255608   2.030   4.340  14.173 -3.3670  0.1817 -2.5881
11373TIP3   OH255609   6.808   6.370  14.786  0.0042 -0.5009 -0.4187
11373TIP3    H155610   6.862   6.447  14.804 -1.4953 -0.1086  3.1336
11373TIP3    H255611   6.765   6.391  14.703  2.3310  0.8000 -1.4170
11374TIP3   OH255612   4.025   5.014   3.285  0.5869 -0.6725 -0.2195
11374TIP3    H155613   4.110   4.986   3.320  0.7636  0.1167  0.0181
11374TIP3    H255614   3.991   4.937   3.241  1.0915 -1.2246  0.3242
11375TIP3   OH255615   3.203   2.220  12.885 -0.4639  0.4887 -0.2531
11375TIP3    H155616   3.206   2.313  12.908 -0.1593  0.1750  1.0687
11375TIP3    H255617   3.150   2.180  12.954  0.9296 -0.5857  0.2315
11376TIP3   OH255618   5.325   6.296   1.483 -0.0623 -0.6992  0.5313
11376TIP3    H155619   5.249   6.345   1.453 -0.8430 -1.2454  1.5273
11376TIP3    H255620   5.398   6.332   1.435 -0.8417  0.3846  0.1298
11377TIP3   OH255621   6.562   0.392  13.060 -0.6554  0.0275  0.0435
11377TIP3    H155622   6.617   0.468  13.079 -0.4813 -0.1116  0.1002
11377TIP3    H255623   6.550   0.395  12.965  1.5292 -1.3266 -0.3500
11378TIP3   OH255624   4.287   1.205  16.280 -0.4020 -0.3566  0.2125
11378TIP3    H155625   4.380   1.205  16.259 -0.6187  1.5290 -1.0462
11378TIP3    H255626   4.263   1.298  16.281 -2.2598 -0.8086  0.4970
11379TIP3   OH255627   2.472   2.748   3.841  0.0303 -0.2074  0.1545
11379TIP3    H155628   2.408   2.815   3.816  0.5264 -0.1448 -1.0049
11379TIP3    H255629   2.530   2.792   3.904 -0.1881  0.1689  0.0945
11380TIP3   OH255630   1.634   5.692   2.118  0.3057 -0.2084 -0.2038
11380TIP3    H155631   1.594   5.688   2.031  1.4821  0.1281 -0.7755
11380TIP3    H255632   1.580   5.634   2.171  0.3414 -1.4743 -1.4837
11381TIP3   OH255633   4.019   5.368   1.541 -0.5333 -0.3991  0.2285
11381TIP3    H155634   4.049   5.401   1.625  1.3721 -2.5133  0.4788
11381TIP3    H255635   4.033   5.440   1.480 -0.1741  0.5353  1.3834
11382TIP3   OH255636   3.354   0.383   0.626 -0.3080  0.3428  0.0175
11382TIP3    H155637   3.337   0.289   0.620 -0.1610  0.3460 -0.5595
11382TIP3    H255638   3.438   0.389   0.671  0.2281  0.1393 -0.9143
11383TIP3   OH255639   4.584   0.599   1.876  0.3152  1.1705  0.1266
11383TIP3    H155640   4.644   0.612   1.803 -0.5062  0.0976 -0.7788
11383TIP3    H255641   4.620   0.653   1.947  2.7731 -0.0187 -0.1152
11384TIP3   OH255642   0.593   6.207  13.020  0.1418  0.4937  0.0814
11384TIP3    H155643   0.518   6.185  12.964 -0.2549 -1.8091  1.3758
11384TIP3    H255644   0.593   6.302  13.024 -2.7628  0.5945  0.0457
11385TIP3   OH255645   6.290   5.070  15.900  0.7168 -0.1202 -0.0285
11385TIP3    H155646   6.290   5.038  15.809  0.3065 -2.1036  0.6245
11385TIP3    H255647   6.337   5.003  15.949  2.6601  1.8517  0.9814
11386TIP3   OH255648   5.735   3.826   2.489  0.0973 -0.3416 -0.4259
11386TIP3    H155649   5.649   3.784   2.485  0.1444 -0.4139 -0.7247
11386TIP3    H255650   5.793   3.760   2.527 -0.1007 -0.0839  0.3393
11387TIP3   OH255651   2.414   1.036  12.384  0.2829 -0.0650 -0.3758
11387TIP3    H155652   2.434   1.127  12.409 -0.2866 -0.2125  0.6343
11387TIP3    H255653   2.495   1.005  12.344  0.4807  0.8904 -0.7696
11388TIP3   OH255654   2.976   0.430   2.305  0.2764  0.4448 -0.3156
11388TIP3    H155655   2.934   0.501   2.354 -0.1802  1.3977 -1.9961
11388TIP3    H255656   2.925   0.424   2.224  1.1958 -0.8425 -0.8324
11389TIP3   OH255657   3.166   4.437  15.742  0.2864 -0.4120  0.3275
11389TIP3    H155658   3.209   4.404  15.821  0.1888  0.0928  0.5933
11389TIP3    H255659   3.214   4.516  15.720  0.9804 -1.1008 -0.7218
11390TIP3   OH255660   6.086   0.558  12.766  0.5543 -0.1141 -0.2735
11390TIP3    H155661   6.116   0.468  12.752  3.9546  1.0241 -1.2271
11390TIP3    H255662   6.048   0.584  12.683 -0.8108 -0.7155  0.1236
11391TIP3   OH255663   5.796   3.714  12.508 -0.0064 -0.3741 -0.6535
11391TIP3    H155664   5.879   3.736  12.550 -0.5309 -0.0250  0.2254
11391TIP3    H255665   5.818   3.646  12.445  1.5222  2.0083 -2.8720
11392TIP3   OH255666   1.138   4.496  13.701 -0.0851 -0.3051  0.4609
11392TIP3    H155667   1.207   4.481  13.636  0.3733  1.9024  0.3403
11392TIP3    H255668   1.059   4.513  13.650  0.2689  1.4012  0.4186
11393TIP3   OH255669   3.882   4.615   4.454  0.0390  0.1818 -0.2302
11393TIP3    H155670   3.820   4.541   4.454 -1.1041  1.1039 -0.8515
11393TIP3    H255671   3.856   4.668   4.529  0.2058  0.4596 -0.3678
11394TIP3   OH255672   3.981   4.167   3.453 -0.4103 -0.3878  0.4571
11394TIP3    H155673   3.889   4.156   3.476 -1.2693 -0.8252 -2.8075
11394TIP3    H255674   3.984   4.246   3.399  0.8724 -1.1304 -0.6357
11395TIP3   OH255675   6.612   6.081   0.535  0.3750  0.4118  0.8322
11395TIP3    H155676   6.694   6.034   0.521  0.0212  0.0962 -0.3238
11395TIP3    H255677   6.588   6.063   0.626  1.1431 -0.2001  0.9155
11396TIP3   OH255678   3.574   2.803   0.640 -0.1702 -0.0877  0.8571
11396TIP3    H155679   3.628   2.823   0.717  0.9048 -1.7074  0.5827
11396TIP3    H255680   3.613   2.854   0.570  0.8180 -0.9466  0.7489
11397TIP3   OH255681   5.601   6.785  13.698  0.4446 -0.4453  0.1620
11397TIP3    H155682   5.515   6.787  13.657  0.0403 -1.1216  0.9447
11397TIP3    H255683   5.663   6.786  13.625 -0.1961  0.6600 -0.4009
11398TIP3   OH255684   1.034   3.230  12.638  0.2945 -0.6405  0.5933
11398TIP3    H155685   1.108   3.279  12.602 -1.3938  1.1978 -0.5983
11398TIP3    H255686   1.069   3.187  12.716  2.5041  0.4698  0.2931
11399TIP3   OH255687   1.918   1.081  10.956 -0.4864  0.4750 -0.2043
11399TIP3    H155688   1.843   1.140  10.959 -1.3081 -0.4623 -1.3843
11399TIP3    H255689   1.883   1.000  10.919  0.9243 -0.2747  0.0539
11400TIP3   OH255690   6.578   1.143   2.883  0.2609  0.3513  0.5514
11400TIP3    H155691   6.508   1.116   2.824  0.2223 -0.6698  1.0375
11400TIP3    H255692   6.549   1.114   2.970  1.6594 -0.9124  0.6541
11401TIP3   OH255693   1.142   4.396  13.331 -0.6100 -0.1795 -0.2328
11401TIP3    H155694   1.126   4.319  13.386  0.3015 -1.4519 -1.6792
11401TIP3    H255695   1.226   4.430  13.362 -1.2282  0.5407  0.7120
11402TIP3   OH255696   5.164   1.108  14.556  0.0077 -0.3857  0.5155
11402TIP3    H155697   5.146   1.105  14.462  2.1679  0.5021  0.0287
11402TIP3    H255698   5.118   1.187  14.586  0.0194 -0.1890  0.0283
11403TIP3   OH255699   0.356   5.571  14.262  0.7156 -0.0342  0.2041
11403TIP3    H155700   0.344   5.604  14.173  4.0572  2.2909  0.4283
11403TIP3    H255701   0.382   5.480  14.250 -0.4540 -0.2443 -1.0431
11404TIP3   OH255702   1.776   5.765   3.872 -1.0389  0.3516  0.6356
11404TIP3    H155703   1.761   5.847   3.918 -0.6439  0.7813 -0.0012
11404TIP3    H255704   1.743   5.780   3.783 -0.9008 -0.1541  0.4936
11405TIP3   OH255705   4.409   0.451  14.452 -0.0906  0.7838 -0.8061
11405TIP3    H155706   4.410   0.513  14.379 -0.0054  1.4936 -0.2211
11405TIP3    H255707   4.354   0.493  14.518 -2.1564 -0.9271 -1.3485
11406TIP3   OH255708   0.610   5.673   3.256  0.5514 -0.2587 -0.0293
11406TIP3    H155709   0.690   5.719   3.232 -0.9139  1.8303 -1.2116
11406TIP3    H255710   0.599   5.690   3.349  1.0938  0.0430 -0.0175
11407TIP3   OH255711   5.884   4.764   4.261  0.0304 -0.1478 -0.0159
11407TIP3    H155712   5.932   4.692   4.302  0.5921 -0.4919 -1.2427
11407TIP3    H255713   5.939   4.840   4.275  0.6768 -0.4364 -0.9191
11408TIP3   OH255714   5.193   4.621   4.505 -0.3809  0.2048 -0.0142
11408TIP3    H155715   5.155   4.534   4.489  0.6426  0.0241 -1.7987
11408TIP3    H255716   5.224   4.617   4.595 -1.2611 -0.9233  0.2681
11409TIP3   OH255717   2.825   2.292  16.866 -0.5240 -0.2206 -0.6033
11409TIP3    H155718   2.778   2.219  16.825 -0.1213 -2.0051  1.8392
11409TIP3    H255719   2.906   2.252  16.899 -1.6446  0.4735  3.5274
11410TIP3   OH255720   0.366   4.112  13.041  0.3230 -0.9788 -0.6083
11410TIP3    H155721   0.299   4.180  13.041  0.5690 -0.7332 -0.0586
11410TIP3    H255722   0.350   4.062  13.121  0.5752 -1.1401 -0.6568
11411TIP3   OH255723   1.216   0.051  14.893 -0.3833 -0.4930  0.3781
11411TIP3    H155724   1.275   0.112  14.849 -0.0760 -1.3896 -0.4759
11411TIP3    H255725   1.133   0.098  14.898  0.0287  0.2607  0.3757
11412TIP3   OH255726   4.342   4.042  16.022 -0.4685  0.5200  0.4035
11412TIP3    H155727   4.287   4.074  16.093  1.0824  0.6266  1.6087
11412TIP3    H255728   4.311   4.090  15.945 -1.0176  1.7294  1.3363
11413TIP3   OH255729   0.809   2.527  14.896  0.1776  0.0647 -0.0468
11413TIP3    H155730   0.733   2.570  14.856  0.9077  1.2440 -0.2119
11413TIP3    H255731   0.793   2.433  14.882 -0.4072  0.3583 -1.6358
11414TIP3   OH255732   3.913   0.143   5.607 -0.4640  0.1582 -0.7103
11414TIP3    H155733   3.894   0.066   5.553 -2.2798  1.1924 -1.6513
11414TIP3    H255734   3.900   0.114   5.697 -0.9609 -0.6918 -1.0488
11415TIP3   OH255735   6.725   2.982   4.669  0.6278 -0.2115 -0.4117
11415TIP3    H155736   6.631   2.967   4.671  0.8056 -1.4233 -0.1789
11415TIP3    H255737   6.736   3.064   4.620 -0.5170 -0.2252 -0.7127
11416TIP3   OH255738   6.350   2.199  13.989 -0.4546 -0.4913  0.1026
11416TIP3    H155739   6.350   2.119  13.936 -1.5383 -0.2559 -0.2780
11416TIP3    H255740   6.383   2.267  13.930 -0.6061 -0.4377  0.0805
11417TIP3   OH255741   1.255   5.913  14.524  0.3421  0.2125  0.0595
11417TIP3    H155742   1.309   5.838  14.498 -0.2779  0.6474 -2.9071
11417TIP3    H255743   1.315   5.972  14.568  1.2754 -1.1779  0.7296
11418TIP3   OH255744   6.044   0.262   0.984  0.1835  0.0205 -0.5606
11418TIP3    H155745   6.028   0.169   1.001  1.5986 -0.2674 -0.7093
11418TIP3    H255746   5.994   0.308   1.051  0.2303 -0.8742  0.0989
11419TIP3   OH255747   4.126   6.059   3.159 -0.1838 -0.0742 -0.0838
11419TIP3    H155748   4.090   6.060   3.070  2.5116 -1.0396 -1.2740
11419TIP3    H255749   4.066   6.003   3.208 -2.0066  0.8800 -1.1197
11420TIP3   OH255750   3.589   6.154   4.914  0.0102  0.2897 -0.4022
11420TIP3    H155751   3.512   6.156   4.857  0.2188  2.0942 -0.6814
11420TIP3    H255752   3.658   6.196   4.863  0.5790  0.6841  0.6598
11421TIP3   OH255753   4.870   0.507  15.988  0.2984  0.1676  0.2174
11421TIP3    H155754   4.786   0.468  15.964 -0.6610  1.6964  0.8908
11421TIP3    H255755   4.856   0.602  15.977  2.2421  0.4053 -0.5539
11422TIP3   OH255756   3.497   4.440  14.911  0.1945 -0.5993  0.0104
11422TIP3    H155757   3.538   4.354  14.896  1.1469 -0.1660  0.0403
11422TIP3    H255758   3.554   4.483  14.974 -1.4228 -0.7360  1.6535
11423TIP3   OH255759   6.542   6.583   0.999  0.0879  0.5327  0.3820
11423TIP3    H155760   6.614   6.577   1.061 -1.1182  0.3853  1.8150
11423TIP3    H255761   6.475   6.524   1.034 -1.6920  2.4866  0.4334
11424TIP3   OH255762   2.168   5.381  12.617  0.1919  0.4095  0.4077
11424TIP3    H155763   2.142   5.303  12.666  0.4335  0.5862  0.8279
11424TIP3    H255764   2.229   5.426  12.676  1.0126  0.2830 -0.3319
11425TIP3   OH255765   6.154   4.468  11.665  0.3041  0.2048 -0.3765
11425TIP3    H155766   6.247   4.485  11.655  0.6600 -1.6426 -0.5309
11425TIP3    H255767   6.134   4.404  11.597 -0.9095 -0.0436  0.1891
11426TIP3   OH255768   5.153   1.012   2.699 -0.3770 -0.6485  0.1061
11426TIP3    H155769   5.177   0.924   2.672 -2.0251 -0.9533 -0.4889
11426TIP3    H255770   5.087   1.040   2.635 -1.0811  0.3652  1.2247
11427TIP3   OH255771   5.026   4.267  16.076  0.4944 -0.6734 -0.0454
11427TIP3    H155772   5.105   4.230  16.114  0.3552 -2.6087 -1.4644
11427TIP3    H255773   5.049   4.284  15.985 -0.8832 -2.0459 -0.7139
11428TIP3   OH255774   5.004   2.881   4.878  0.2825  0.6476 -0.4330
11428TIP3    H155775   4.984   2.975   4.880  2.3014  1.1322  1.6738
11428TIP3    H255776   5.067   2.872   4.806  1.6245  1.3211  0.6232
11429TIP3   OH255777   1.348   3.762  11.848 -0.1672  0.3268  0.2522
11429TIP3    H155778   1.312   3.718  11.771  1.4172  0.6241 -0.7094
11429TIP3    H255779   1.284   3.747  11.917 -0.4791 -2.0617 -0.4770
11430TIP3   OH255780   2.775   3.784   0.495 -0.1850 -0.3042 -0.2591
11430TIP3    H155781   2.719   3.806   0.569  1.9998  1.5277  0.9745
11430TIP3    H255782   2.848   3.736   0.534  0.7362  0.1998 -1.3130
11431TIP3   OH255783   4.528   4.816  15.942  0.3783  0.2075 -0.1420
11431TIP3    H155784   4.555   4.871  15.868  0.4152  0.1363 -0.1809
11431TIP3    H255785   4.578   4.850  16.017  1.2003 -0.4641 -0.3794
11432TIP3   OH255786   4.948   0.694  15.597 -0.0887 -0.0045 -0.3916
11432TIP3    H155787   5.030   0.652  15.624  0.0439 -0.2562 -1.1553
11432TIP3    H255788   4.955   0.784  15.630  0.3698 -0.1018 -0.2158
11433TIP3   OH255789   2.898   4.752  16.286 -0.4202  0.1068 -0.5507
11433TIP3    H155790   2.979   4.701  16.284 -0.3548  0.2341 -1.8387
11433TIP3    H255791   2.904   4.803  16.367 -0.3545 -1.6740  0.6500
11434TIP3   OH255792   6.189   4.967  14.434 -0.9318  0.1744  0.5625
11434TIP3    H155793   6.114   5.012  14.396 -1.4190 -1.0650 -0.0093
11434TIP3    H255794   6.234   5.034  14.486 -0.4074  1.8932 -1.9080
11435TIP3   OH255795   4.478   4.231   0.128 -0.0693  0.1507 -0.3386
11435TIP3    H155796   4.462   4.311   0.080 -1.9884 -0.3162 -0.5593
11435TIP3    H255797   4.463   4.161   0.065 -0.4904 -0.4211  0.3727
11436TIP3   OH255798   0.404   1.895   1.333 -0.5005 -0.5489 -0.0877
11436TIP3    H155799   0.491   1.907   1.369 -0.7687 -0.2459  0.4732
11436TIP3    H255800   0.418   1.849   1.250  0.4862  2.2266 -1.5884
11437TIP3   OH255801   6.493   0.498   5.285  0.5610  0.3280  0.5128
11437TIP3    H155802   6.530   0.517   5.199  1.2623  0.0171  0.7356
11437TIP3    H255803   6.459   0.409   5.277  3.3044 -0.9079  1.3750
11438TIP3   OH255804   1.696   2.871   5.925  0.3333 -0.5145  0.0831
11438TIP3    H155805   1.648   2.798   5.963 -1.5535 -0.5630 -2.1596
11438TIP3    H255806   1.628   2.933   5.897  1.8111  1.4736  0.6198
11439TIP3   OH255807   4.950   3.258  10.430  0.0705  0.5879  0.1256
11439TIP3    H155808   4.916   3.346  10.415 -2.1057 -0.2701 -0.4004
11439TIP3    H255809   4.892   3.221  10.497  0.5210 -0.6708 -0.1504
11440TIP3   OH255810   0.870   3.492  15.440  0.4810 -0.5684 -0.1133
11440TIP3    H155811   0.915   3.505  15.357  1.4000  2.0682  0.6803
11440TIP3    H255812   0.808   3.565  15.446  0.0073 -1.0414  1.2635
11441TIP3   OH255813   5.125   4.277  16.515 -0.0574  0.5314 -0.7292
11441TIP3    H155814   5.208   4.315  16.486  0.9357 -1.9468 -1.3886
11441TIP3    H255815   5.145   4.238  16.600  0.1366 -1.9045 -1.7951
11442TIP3   OH255816   0.209   3.519   6.535  0.0688  0.4001 -0.5850
11442TIP3    H155817   0.191   3.597   6.482 -2.2415  0.6397  0.4639
11442TIP3    H255818   0.181   3.543   6.623  1.0266 -1.0250  0.1389
11443TIP3   OH255819   2.077   6.658  13.868 -0.1462  0.0453 -0.4080
11443TIP3    H155820   2.005   6.602  13.840 -0.1937  0.9922 -2.3169
11443TIP3    H255821   2.093   6.717  13.794  2.1133  0.3540  0.2289
11444TIP3   OH255822   0.003   3.816   3.185 -0.2440  0.4042  0.3481
11444TIP3    H155823  -0.005   3.740   3.244 -1.3462 -0.7371 -1.2139
11444TIP3    H255824  -0.058   3.799   3.114  2.5819  0.6001 -2.3604
11445TIP3   OH255825   2.441   6.134  12.038 -0.0998  0.2016  0.3382
11445TIP3    H155826   2.428   6.046  12.073 -0.8067  0.5971  1.1156
11445TIP3    H255827   2.412   6.128  11.947  0.3693 -0.4909  0.2270
11446TIP3   OH255828   0.016   6.792  16.768  0.0110 -0.4822 -0.6942
11446TIP3    H155829  -0.057   6.757  16.819  0.5840  0.0571  0.5256
11446TIP3    H255830  -0.025   6.831  16.691 -0.7353 -3.0529 -1.7223
11447TIP3   OH255831   5.044   0.691  14.822  0.1984  0.9878  0.3337
11447TIP3    H155832   4.981   0.732  14.763  1.5685  0.1876 -1.8031
11447TIP3    H255833   5.123   0.743  14.813  0.9241 -0.1052  0.2123
11448TIP3   OH255834   6.795   5.900   1.862  0.0043 -0.2131  0.0085
11448TIP3    H155835   6.704   5.922   1.842 -0.1598  0.3835  1.3362
11448TIP3    H255836   6.805   5.920   1.955  2.0246  1.6018 -0.5235
11449TIP3   OH255837   0.466   0.977  17.095 -0.1027  0.4788  0.2695
11449TIP3    H155838   0.519   0.906  17.131 -1.7515 -0.4955  0.8834
11449TIP3    H255839   0.415   0.935  17.025 -1.2232  0.9893  0.7555
11450TIP3   OH255840   6.727   6.198  14.132  1.1629 -0.3575 -0.3527
11450TIP3    H155841   6.819   6.182  14.111  1.1909 -0.1163 -0.4212
11450TIP3    H255842   6.702   6.272  14.077  0.7720 -0.7653 -0.7324
11451TIP3   OH255843   6.009   6.371  15.903  0.0456 -0.0034  0.0791
11451TIP3    H155844   5.930   6.319  15.907 -0.3918  0.5142 -1.2059
11451TIP3    H255845   6.076   6.310  15.872 -0.1039 -0.1733  0.0889
11452TIP3   OH255846   2.628   4.390  14.589 -0.0117  0.0395 -0.4483
11452TIP3    H155847   2.680   4.468  14.608  0.9785 -0.4610 -1.0479
11452TIP3    H255848   2.543   4.424  14.559 -0.7642  0.8714  2.2845
11453TIP3   OH255849   1.288   5.008   6.172  0.0093  0.4557 -0.3357
11453TIP3    H155850   1.263   5.099   6.186  0.5554  0.2954  2.2321
11453TIP3    H255851   1.251   4.961   6.247  1.3959 -1.0951 -0.5565
11454TIP3   OH255852   0.256   4.768  15.047 -0.2128 -0.1793  0.2893
11454TIP3    H155853   0.341   4.808  15.069 -0.0288 -0.0261 -0.6580
11454TIP3    H255854   0.260   4.752  14.953 -0.6087 -1.6996  0.4988
11455TIP3   OH255855   6.564   4.736   1.031  0.0874  0.0539 -0.3533
11455TIP3    H155856   6.550   4.698   0.944 -0.6214 -0.1352 -0.1686
11455TIP3    H255857   6.653   4.771   1.028  0.5403 -1.0784 -0.7352
11456TIP3   OH255858   5.083   6.319  14.063 -0.1522  0.1955  0.0494
11456TIP3    H155859   5.166   6.362  14.085 -0.4362  0.5819  0.4000
11456TIP3    H255860   5.026   6.391  14.036 -0.7748  0.1009  1.0785
11457TIP3   OH255861   5.065   5.819  10.670  0.4603 -0.3922 -0.0916
11457TIP3    H155862   5.081   5.906  10.633 -1.5273  0.7850  1.5916
11457TIP3    H255863   5.004   5.778  10.609 -1.2763  0.7870  0.7563
11458TIP3   OH255864   6.311   6.461   5.461 -0.0065 -0.2228 -0.1006
11458TIP3    H155865   6.293   6.482   5.553  0.1812  0.1939 -0.1575
11458TIP3    H255866   6.245   6.511   5.412 -0.0846 -0.4173 -0.1927
11459TIP3   OH255867   2.637   2.313   2.387  0.4980 -0.4913  0.8986
11459TIP3    H155868   2.603   2.326   2.475  0.2648 -0.9910  0.8858
11459TIP3    H255869   2.565   2.274   2.339  0.8867 -0.9907  0.7094
11460TIP3   OH255870   4.521   1.755   5.949 -0.4372 -0.0460  0.0330
11460TIP3    H155871   4.511   1.850   5.946  0.5644  0.1325  1.3347
11460TIP3    H255872   4.477   1.729   6.030 -0.7072 -0.7083 -0.3177
11461TIP3   OH255873   0.145   2.333   9.949 -0.1513 -0.3169  0.1750
11461TIP3    H155874   0.176   2.245   9.970 -0.1929  0.1643  2.4816
11461TIP3    H255875   0.223   2.379   9.919  0.1374 -0.7874  0.1865
11462TIP3   OH255876   0.030   2.613   2.605  0.4645 -0.4872 -0.2417
11462TIP3    H155877   0.118   2.645   2.625  0.3092 -0.8229  1.0114
11462TIP3    H255878  -0.001   2.574   2.686 -1.2094  0.4522 -0.3844
11463TIP3   OH255879   6.651   1.211   5.706  0.1757  0.2903 -0.2266
11463TIP3    H155880   6.646   1.262   5.625  0.9100  0.8201  0.0569
11463TIP3    H255881   6.713   1.141   5.686 -1.3818 -0.9804 -0.8586
11464TIP3   OH255882   1.776   0.917   0.059 -0.2646 -0.2171  0.2902
11464TIP3    H155883   1.795   1.008   0.079  1.8202 -0.4870 -0.2412
11464TIP3    H255884   1.707   0.920  -0.008  0.4695  1.0086 -0.4364
11465TIP3   OH255885   0.429   0.184   0.187  0.4601  0.0627  0.2390
11465TIP3    H155886   0.433   0.136   0.104  0.8857  0.4812  0.0115
11465TIP3    H255887   0.517   0.175   0.224  0.2356 -0.2278  0.7110
11466TIP3   OH255888   1.598   4.907   4.539 -0.6412 -0.0525 -0.4464
11466TIP3    H155889   1.586   4.835   4.477 -0.2688  0.5098 -1.1956
11466TIP3    H255890   1.637   4.977   4.486  2.7338 -0.5899  1.0564
11467TIP3   OH255891   4.483   5.130   4.856 -0.2437  0.0044  0.2729
11467TIP3    H155892   4.442   5.216   4.845 -0.7311 -0.2425  0.1168
11467TIP3    H255893   4.431   5.071   4.801 -0.8273 -0.6695  1.5030
11468TIP3   OH255894   1.720   5.337  11.069  0.6541 -0.2635  0.1115
11468TIP3    H155895   1.646   5.344  11.130  0.0278  1.3927 -0.7679
11468TIP3    H255896   1.723   5.244  11.045  0.5398 -0.8475  2.1630
11469TIP3   OH255897   5.660   3.445   6.926 -0.3636 -0.1501 -0.3424
11469TIP3    H155898   5.595   3.490   6.872  1.1730  1.8913 -0.5926
11469TIP3    H255899   5.613   3.368   6.959 -2.5590  0.6405 -1.3627
11470TIP3   OH255900   3.705   3.627  15.727 -0.2336  0.2176 -0.6070
11470TIP3    H155901   3.640   3.666  15.668 -0.3668  0.7938 -0.0874
11470TIP3    H255902   3.781   3.613  15.671 -0.7220 -0.2714 -1.1759
11471TIP3   OH255903   4.256   1.064   1.076 -0.3317 -0.1355 -0.3235
11471TIP3    H155904   4.221   1.149   1.100  1.2193  0.6864 -0.8638
11471TIP3    H255905   4.240   1.008   1.152 -0.8154  0.8005  0.2672
11472TIP3   OH255906   5.845   2.577   0.851  0.0420  0.0928  0.2285
11472TIP3    H155907   5.904   2.551   0.921  2.1223 -0.6166 -1.6552
11472TIP3    H255908   5.774   2.623   0.895  2.2684  1.5404  2.6209
11473TIP3   OH255909   5.637   1.877   5.807  0.4342 -0.1762 -0.1422
11473TIP3    H155910   5.629   1.966   5.840  3.8067 -0.3634  1.6059
11473TIP3    H255911   5.598   1.822   5.875  1.6905 -0.1912  0.5953
11474TIP3   OH255912   5.107   0.569   5.563 -0.3448  0.5067 -0.2638
11474TIP3    H155913   5.095   0.559   5.469 -0.1649  2.8105 -0.5818
11474TIP3    H255914   5.020   0.550   5.600 -0.7196  0.7297 -1.0103
11475TIP3   OH255915   0.306   4.366  10.797  0.1616  0.0225 -0.5239
11475TIP3    H155916   0.355   4.346  10.877 -0.5065  1.9905  0.4557
11475TIP3    H255917   0.214   4.357  10.823 -0.0725  1.1617 -0.9193
11476TIP3   OH255918   5.290   1.367   2.996  0.0339 -0.3709  0.2784
11476TIP3    H155919   5.301   1.455   3.032  0.4575  0.8149 -2.4816
11476TIP3    H255920   5.353   1.362   2.925 -0.9601 -2.3955 -0.5438
11477TIP3   OH255921   3.036   2.798   0.425 -0.1845 -0.2638 -0.4184
11477TIP3    H155922   2.957   2.830   0.381 -0.3387  0.7883  0.5726
11477TIP3    H255923   3.004   2.749   0.501  0.0930 -1.0770 -0.8218
11478TIP3   OH255924   6.713   6.072   2.531  0.3615 -0.3748  0.2938
11478TIP3    H155925   6.801   6.047   2.557 -0.1611 -1.7549  0.8933
11478TIP3    H255926   6.710   6.055   2.437  1.7700  3.0876 -0.5056
11479TIP3   OH255927   1.459   6.069   0.925 -0.0548  0.2771  0.2250
11479TIP3    H155928   1.418   6.132   0.867 -1.0624 -0.2354  0.3604
11479TIP3    H255929   1.399   6.062   0.999  0.6442  0.0630  0.7881
11480TIP3   OH255930   5.504   0.443  12.062 -0.0667  0.1514 -0.0801
11480TIP3    H155931   5.534   0.399  11.982  0.5054  0.2742  0.0609
11480TIP3    H255932   5.583   0.485  12.097 -0.4902  0.8273  0.0859
11481TIP3   OH255933   4.259   5.617  11.440 -0.8717  0.1901 -0.1396
11481TIP3    H155934   4.232   5.535  11.482 -1.8462  0.8636  0.6048
11481TIP3    H255935   4.355   5.612  11.438 -0.9237 -1.0637 -0.3248
11482TIP3   OH255936   4.909   3.594   1.998  0.2395 -0.1158 -0.1046
11482TIP3    H155937   5.005   3.591   1.990  0.2447 -0.5800  0.0687
11482TIP3    H255938   4.889   3.683   2.025  0.3869  0.9734 -3.1996
11483TIP3   OH255939   3.089   4.009  13.348  0.1288  0.6062 -0.3258
11483TIP3    H155940   3.153   3.948  13.309  1.0645  1.1436  0.3158
11483TIP3    H255941   3.051   3.961  13.421 -1.8960 -0.5413 -2.0238
11484TIP3   OH255942   1.324   2.551  17.032  0.1728 -0.2988 -0.1803
11484TIP3    H155943   1.334   2.639  17.069 -0.5902  0.0494 -0.7747
11484TIP3    H255944   1.332   2.492  17.107  0.2653  0.3014  0.2849
11485TIP3   OH255945   2.031   2.948  12.485  0.1441 -0.3226 -0.0300
11485TIP3    H155946   2.083   2.936  12.564 -0.3869 -0.4949  0.2982
11485TIP3    H255947   1.995   3.036  12.493 -1.0856 -0.8572  0.6406
11486TIP3   OH255948   4.170   6.194  11.147 -0.4731  0.2316 -0.1275
11486TIP3    H155949   4.085   6.160  11.174 -1.0323  1.0861 -0.7440
11486TIP3    H255950   4.205   6.127  11.088 -1.1844  0.3207 -0.6707
11487TIP3   OH255951   3.916   6.584  16.138 -0.1426  0.4647  0.2030
11487TIP3    H155952   3.852   6.545  16.078  0.0181  0.5254 -0.0067
11487TIP3    H255953   3.973   6.511  16.163 -0.0414  0.4981  0.0676
11488TIP3   OH255954   0.192   6.227   4.197 -0.3695  0.0170 -0.4041
11488TIP3    H155955   0.212   6.136   4.177  0.1374  0.2422 -0.9372
11488TIP3    H255956   0.147   6.260   4.119  0.4579  0.5308 -0.6846
11489TIP3   OH255957   1.047   1.111  13.285 -0.4229 -0.9725 -0.0335
11489TIP3    H155958   1.011   1.117  13.197 -3.0498 -0.1141  0.9922
11489TIP3    H255959   0.979   1.148  13.341  1.7514 -0.1360  2.2370
11490TIP3   OH255960   3.177   1.484  17.005  0.0159  0.5830 -0.1129
11490TIP3    H155961   3.271   1.498  17.007 -0.1740  1.9976  0.6151
11490TIP3    H255962   3.142   1.561  16.960 -0.6962 -0.7443 -1.9507
11491TIP3   OH255963   0.449   2.772  14.267  0.2322 -0.3037 -0.4759
11491TIP3    H155964   0.428   2.704  14.203  0.8471  0.0493 -1.0632
11491TIP3    H255965   0.426   2.854  14.224  1.6457  0.0130 -0.6756
11492TIP3   OH255966   3.457   4.208  14.103  1.0157 -0.7894  0.0262
11492TIP3    H155967   3.519   4.241  14.038  0.3192 -1.9286 -1.2819
11492TIP3    H255968   3.499   4.131  14.140  0.2453 -1.8683 -1.2302
11493TIP3   OH255969   0.777   6.604  13.305 -0.1595 -0.2134  0.1563
11493TIP3    H155970   0.734   6.649  13.232 -0.2349  0.4507  0.5977
11493TIP3    H255971   0.721   6.621  13.380  1.2130  1.3429  0.9139
11494TIP3   OH255972   4.452   2.988   4.737  0.2125 -0.3815 -0.6383
11494TIP3    H155973   4.496   3.073   4.739  0.7321 -0.6450 -0.7171
11494TIP3    H255974   4.518   2.926   4.767  0.3823 -0.9971 -2.1707
11495TIP3   OH255975   0.969   4.854  13.485 -0.0934 -0.3420  0.1009
11495TIP3    H155976   0.975   4.760  13.468 -1.1157 -0.3463 -0.2933
11495TIP3    H255977   0.888   4.882  13.441 -0.0456  0.6366  0.6005
11496TIP3   OH255978   1.086   4.532   4.183  0.2076 -0.6472 -0.1651
11496TIP3    H155979   1.176   4.507   4.200  0.4003 -0.2217 -0.5391
11496TIP3    H255980   1.079   4.533   4.088 -0.2518 -0.8818 -0.1376
11497TIP3   OH255981   5.143   4.492   0.582  0.1956  0.4109 -0.0726
11497TIP3    H155982   5.168   4.425   0.646 -1.0289  1.4935  1.6197
11497TIP3    H255983   5.054   4.468   0.556 -0.1434  1.2030  0.3314
11498TIP3   OH255984   1.904   5.490  16.593  0.1176 -0.0713 -0.3005
11498TIP3    H155985   1.813   5.480  16.567 -0.4710 -0.6453  1.7910
11498TIP3    H255986   1.954   5.457  16.518 -1.2871  1.9076 -2.2207
11499TIP3   OH255987   5.554   4.306  12.961  0.4066  0.1845 -0.0029
11499TIP3    H155988   5.533   4.215  12.940  0.8263 -0.0964  0.7757
11499TIP3    H255989   5.588   4.341  12.879 -0.8717 -0.0113 -0.6409
11500TIP3   OH255990   4.953   1.353   5.289 -0.0869  1.0699  0.1060
11500TIP3    H155991   5.028   1.307   5.328 -0.2536  0.9502  0.2880
11500TIP3    H255992   4.903   1.386   5.363 -1.4079 -0.7430  0.0921
11501TIP3   OH255993   4.220   3.334   0.611  0.3342 -0.5089 -0.2019
11501TIP3    H155994   4.173   3.252   0.629  1.5660 -1.0403  0.8200
11501TIP3    H255995   4.270   3.350   0.691  1.1850  0.5015 -0.9089
11502TIP3   OH255996   3.791   0.600   1.115  0.0433  0.4474 -0.3561
11502TIP3    H155997   3.701   0.599   1.081  0.1507 -0.3498 -0.6407
11502TIP3    H255998   3.802   0.687   1.153 -1.2206  0.1877  0.6701
11503TIP3   OH255999   0.125   2.537  14.779  0.0627  0.2744 -0.3382
11503TIP3    H156000   0.114   2.631  14.790  1.8305  0.6908 -1.6246
11503TIP3    H256001   0.040   2.499  14.802  0.0939  1.9007  2.9201
11504TIP3   OH256002   0.479   0.307  12.342  0.1389  0.4352 -0.6350
11504TIP3    H156003   0.487   0.211  12.341  0.0409  0.4286 -0.8660
11504TIP3    H256004   0.390   0.323  12.309 -1.7626  0.3864  3.7151
11505TIP3   OH256005   2.381   2.103   3.573 -0.2709 -0.5809 -0.1456
11505TIP3    H156006   2.360   2.027   3.628  0.7704 -0.5978  0.2398
11505TIP3    H256007   2.344   2.177   3.620 -1.1439 -0.8159 -0.4383
11506TIP3   OH256008   2.539   4.529   5.619 -0.4108  0.9407 -0.2785
11506TIP3    H156009   2.617   4.481   5.646  0.2070  1.7968 -0.4746
11506TIP3    H256010   2.486   4.465   5.572  0.2239  0.3705 -0.2277
11507TIP3   OH256011   0.637   5.115  10.531 -0.3241 -0.4477 -0.5384
11507TIP3    H156012   0.633   5.112  10.436 -0.4470  0.8000 -0.5907
11507TIP3    H256013   0.548   5.140  10.558  0.4579  2.4705 -0.3141
11508TIP3   OH256014   0.055   5.887  13.165  0.4142 -0.5428  0.5151
11508TIP3    H156015   0.042   5.952  13.095  0.5729 -1.2425 -0.1737
11508TIP3    H256016   0.087   5.938  13.239  2.1332 -0.0222 -0.5130
11509TIP3   OH256017   0.827   4.754   1.770  0.1314 -0.0490 -0.1713
11509TIP3    H156018   0.771   4.677   1.778  0.2850 -0.0271  1.3383
11509TIP3    H256019   0.908   4.722   1.730 -0.7140 -0.1744 -1.8800
11510TIP3   OH256020   1.126   2.014  16.888 -0.0294  0.9021 -0.1995
11510TIP3    H156021   1.112   2.069  16.965  1.7545  0.8269  0.2437
11510TIP3    H256022   1.194   2.061  16.838  2.5849 -1.4194  0.8819
11511TIP3   OH256023   2.387   4.024   5.919  0.1862  0.2371 -0.3983
11511TIP3    H156024   2.306   4.038   5.968 -0.8421 -3.5324 -0.6988
11511TIP3    H256025   2.452   4.077   5.964 -1.7926  0.9865  1.7717
11512TIP3   OH256026   4.410   5.785  14.025  0.2239 -0.0819  0.5854
11512TIP3    H156027   4.407   5.707  13.970  0.7726 -0.1174  0.5992
11512TIP3    H256028   4.326   5.829  14.010  0.3596 -0.0977 -0.2749
11513TIP3   OH256029   0.480   2.375  16.745  0.5894  0.0515  0.0185
11513TIP3    H156030   0.552   2.368  16.807  1.7441  1.1975 -1.1272
11513TIP3    H256031   0.520   2.362  16.659 -0.2777  1.9614 -0.7562
11514TIP3   OH256032   3.129   5.674  12.745  0.9136 -0.1273 -0.0203
11514TIP3    H156033   3.202   5.616  12.766  0.9856  0.4587  1.4764
11514TIP3    H256034   3.125   5.735  12.819 -0.8244  0.1058 -0.2706
11515TIP3   OH256035   3.267   3.067  15.321 -0.4424 -0.0805  0.1682
11515TIP3    H156036   3.306   3.039  15.403  1.0605  3.1753  0.7513
11515TIP3    H256037   3.174   3.046  15.329 -0.0323 -1.4282  1.8965
11516TIP3   OH256038   1.550   6.789  13.179  0.5546  0.3645 -0.3396
11516TIP3    H156039   1.459   6.759  13.191 -0.6135  4.0873  1.7418
11516TIP3    H256040   1.551   6.825  13.090  0.3151 -0.5290 -0.7208
11517TIP3   OH256041   4.017   0.575   4.340  0.1974 -0.1755 -0.4377
11517TIP3    H156042   4.104   0.613   4.334  0.6630 -0.7465  1.9200
11517TIP3    H256043   3.962   0.633   4.287  1.7392  1.0084 -0.8037
11518TIP3   OH256044   3.886   2.144   2.811 -0.0502  0.0146 -0.2521
11518TIP3    H156045   3.855   2.234   2.827 -2.1055 -0.5127 -0.9195
11518TIP3    H256046   3.929   2.119   2.893  1.9940  2.1131 -0.5759
11519TIP3   OH256047   2.372   1.728  10.828  0.2964  0.1705  0.2719
11519TIP3    H156048   2.327   1.648  10.801 -2.0482  1.6828 -0.6956
11519TIP3    H256049   2.447   1.735  10.770 -0.0687 -0.7913 -0.3364
11520TIP3   OH256050   5.163   5.255  11.380  0.3422 -0.0691  1.2924
11520TIP3    H156051   5.082   5.237  11.331  0.4104  2.8232 -0.1350
11520TIP3    H256052   5.143   5.228  11.469 -0.5431 -3.5980  0.1998
11521TIP3   OH256053   4.796   1.040   4.062 -0.1430  0.7898  0.3529
11521TIP3    H156054   4.832   1.051   4.150  1.2562  1.0424 -0.2132
11521TIP3    H256055   4.800   1.127   4.023  0.3633  0.4705 -0.3410
11522TIP3   OH256056   0.396   4.071   5.945 -0.0592 -0.1093  0.0184
11522TIP3    H156057   0.418   4.035   6.032 -0.4389  1.8511  0.9671
11522TIP3    H256058   0.479   4.103   5.911 -0.2199  0.8448  0.5033
11523TIP3   OH256059   2.395   5.085  14.035 -0.1439  1.0339  0.2011
11523TIP3    H156060   2.477   5.135  14.039 -0.5183  1.6473  0.3179
11523TIP3    H256061   2.348   5.122  13.961  0.4589 -0.5453 -1.0120
11524TIP3   OH256062   2.933   1.215  15.585  0.2445  0.3758  0.6515
11524TIP3    H156063   2.944   1.203  15.491 -0.4431  0.2033  0.5825
11524TIP3    H256064   2.973   1.300  15.604 -0.4265  0.8418  0.0347
11525TIP3   OH256065   0.443   6.305  15.542 -0.0574 -0.1966  0.2130
11525TIP3    H156066   0.439   6.212  15.523 -2.3273  0.1360 -1.3870
11525TIP3    H256067   0.494   6.343  15.471 -1.9115  0.0943 -1.0543
11526TIP3   OH256068   4.121   0.751  12.747  0.0755  0.6481 -0.2477
11526TIP3    H156069   4.055   0.751  12.677  1.2554  0.3354 -1.4037
11526TIP3    H256070   4.203   0.773  12.702  0.4605  3.0772  1.4684
11527TIP3   OH256071   3.493   6.313   3.792  0.0312  0.4448 -0.2504
11527TIP3    H156072   3.511   6.275   3.706 -2.2151  3.4296 -2.2103
11527TIP3    H256073   3.545   6.393   3.795  0.4229  0.1787  1.4307
11528TIP3   OH256074   2.967   6.168   0.217  0.2153 -0.1021  0.0736
11528TIP3    H156075   2.907   6.202   0.284  0.7140 -2.1871  1.6600
11528TIP3    H256076   3.052   6.162   0.261  1.0604  0.4235 -1.3975
11529TIP3   OH256077   1.060   0.100   4.672 -0.4543  0.6419  0.1421
11529TIP3    H156078   0.993   0.067   4.612  0.8735  0.8723 -1.5086
11529TIP3    H256079   1.129   0.033   4.671 -1.1001 -0.2093  2.7834
11530TIP3   OH256080   6.512   2.339   0.834  0.2639  0.2749  0.9129
11530TIP3    H156081   6.534   2.395   0.759 -1.6085 -1.3161 -0.9315
11530TIP3    H256082   6.550   2.254   0.813 -0.1800 -0.1698  1.8442
11531TIP3   OH256083   2.276   2.511   4.792  0.0130 -0.6636  0.0323
11531TIP3    H156084   2.229   2.564   4.728 -0.4913 -1.1940 -0.0405
11531TIP3    H256085   2.292   2.571   4.866 -1.0648 -0.5674  0.1953
11532TIP3   OH256086   4.777   5.164   6.103  0.8678 -0.1955  0.0616
11532TIP3    H156087   4.741   5.076   6.101  0.8994 -0.2075  0.0251
11532TIP3    H256088   4.700   5.221   6.108  0.7887 -0.1612 -1.3688
11533TIP3   OH256089   5.780   2.227   3.801  0.7108 -0.6456 -0.1889
11533TIP3    H156090   5.741   2.282   3.869 -0.7805 -0.4458 -1.1716
11533TIP3    H256091   5.733   2.144   3.808 -0.3057 -0.2323 -1.7299
11534TIP3   OH256092   3.993   3.131  12.357  0.0085 -0.2447  0.2232
11534TIP3    H156093   3.922   3.068  12.363 -2.2936  1.8209 -2.6545
11534TIP3    H256094   3.979   3.191  12.430 -0.3333 -0.6602  0.4964
11535TIP3   OH256095   6.420   0.479  12.156 -0.0396 -0.4183 -0.1675
11535TIP3    H156096   6.334   0.514  12.181 -0.8153 -2.0278 -0.4209
11535TIP3    H256097   6.483   0.531  12.206 -1.2002  0.2504  0.6523
11536TIP3   OH256098   2.981   2.654  11.975  0.4396  0.3008 -0.5958
11536TIP3    H156099   2.956   2.602  11.898  0.7835  0.8324 -1.0846
11536TIP3    H256100   3.074   2.673  11.961  0.4170  0.6966 -0.2285
11537TIP3   OH256101   1.612   4.296   3.118 -0.2517 -0.9908 -0.0496
11537TIP3    H156102   1.680   4.268   3.179 -1.2159  1.0456  2.1256
11537TIP3    H256103   1.534   4.308   3.173 -1.0333  1.4834 -1.5261
11538TIP3   OH256104   0.540   1.985   3.132 -0.1906  0.2310 -0.2050
11538TIP3    H156105   0.530   2.071   3.091 -0.1268 -0.5289 -1.9090
11538TIP3    H256106   0.456   1.941   3.116  0.2371 -0.4856 -0.5146
11539TIP3   OH256107   5.573   6.243  11.378  0.3020  0.0164 -0.2152
11539TIP3    H156108   5.662   6.261  11.347  0.4682 -1.1182 -0.4448
11539TIP3    H256109   5.551   6.159  11.340 -0.4725 -0.2210  0.7075
11540TIP3   OH256110   4.447   2.767  14.590  0.0574  0.3170  0.7602
11540TIP3    H156111   4.394   2.846  14.600 -0.3497  0.0956  0.4023
11540TIP3    H256112   4.504   2.785  14.515 -1.9704 -0.7463 -1.1423
11541TIP3   OH256113   0.492   6.205  11.415 -0.0342 -0.3171  0.4957
11541TIP3    H156114   0.510   6.294  11.386  1.8142 -1.1571 -1.1265
11541TIP3    H256115   0.436   6.169  11.346 -0.1807 -0.6296  0.7800
11542TIP3   OH256116   4.845   3.704   3.665  0.2632 -0.5815 -0.1099
11542TIP3    H156117   4.795   3.682   3.743  0.1228 -1.2711 -0.3822
11542TIP3    H256118   4.887   3.621   3.639  1.9017  0.0659  0.3527
11543TIP3   OH256119   0.249   6.511   1.448 -0.7061  0.2303  0.1121
11543TIP3    H156120   0.319   6.447   1.445  1.3277  2.2603  1.2179
11543TIP3    H256121   0.247   6.542   1.539 -2.5872  0.7437 -0.0392
11544TIP3   OH256122   0.734   6.753  15.603 -0.4261  0.2112  0.6844
11544TIP3    H156123   0.756   6.838  15.565 -0.3006 -0.7241 -1.4523
11544TIP3    H256124   0.732   6.693  15.529 -0.7003 -1.6357  2.1141
11545TIP3   OH256125   4.004   0.836  12.495  0.5011  0.4228 -0.0064
11545TIP3    H156126   3.914   0.827  12.463  0.1722  0.3490  0.9337
11545TIP3    H256127   4.000   0.907  12.559  1.1965  0.6907 -0.2500
11546TIP3   OH256128   4.527   5.332   2.061  0.3914 -0.1647  0.1661
11546TIP3    H156129   4.592   5.352   2.128 -0.6441  1.7772  0.6906
11546TIP3    H256130   4.569   5.358   1.979  0.3001  1.1755  0.5091
11547TIP3   OH256131   0.837   0.902  10.795 -0.0598 -0.4112  0.0491
11547TIP3    H156132   0.909   0.908  10.859  0.7992  0.7843 -0.9727
11547TIP3    H256133   0.762   0.941  10.841  0.2941 -0.4280  0.6577
11548TIP3   OH256134   5.515   2.759   6.168  0.1717 -0.3034  0.0415
11548TIP3    H156135   5.472   2.840   6.140  0.9049  1.2235  2.9591
11548TIP3    H256136   5.481   2.743   6.257  1.1008 -2.4564  0.0804
11549TIP3   OH256137   3.951   6.693  13.710  0.2539 -0.0956 -0.1439
11549TIP3    H156138   3.979   6.623  13.769 -0.7622  1.4327  2.3118
11549TIP3    H256139   4.033   6.736  13.683  0.7438 -0.7812  0.2275
11550TIP3   OH256140   4.969   6.849   0.839 -0.9296 -0.2435  0.3174
11550TIP3    H156141   4.911   6.774   0.827 -1.3162 -0.1846  1.6629
11550TIP3    H256142   5.046   6.814   0.884 -0.7787  0.0275  0.2761
11551TIP3   OH256143   2.949   3.508   4.896 -0.4184 -0.4117  0.1725
11551TIP3    H156144   2.988   3.592   4.922 -1.7758 -0.0378  1.1267
11551TIP3    H256145   2.859   3.530   4.873 -0.9997 -1.6894  1.1081
11552TIP3   OH256146   3.282   5.396  16.142  0.0949 -0.8313 -0.4158
11552TIP3    H156147   3.320   5.426  16.060  1.9556 -0.0939  0.6515
11552TIP3    H256148   3.348   5.337  16.179 -0.2558 -0.3578  1.0254
11553TIP3   OH256149   6.062   2.096  14.647  0.6805  0.0996  0.3457
11553TIP3    H156150   5.997   2.155  14.607  1.5871  1.3356  0.6151
11553TIP3    H256151   6.116   2.067  14.573  1.5053  1.2850  0.4569
11554TIP3   OH256152   5.909   2.960   4.518  0.2261  0.2966 -0.2864
11554TIP3    H156153   5.826   3.007   4.512  0.3199  0.2909 -2.8171
11554TIP3    H256154   5.884   2.868   4.515  0.2784  0.2415  0.5569
11555TIP3   OH256155   0.740   5.437   2.635  0.2360 -0.1882 -0.2506
11555TIP3    H156156   0.688   5.371   2.683 -0.1865  0.9937  0.9859
11555TIP3    H256157   0.808   5.386   2.591  1.0308 -1.3453  2.1196
11556TIP3   OH256158   1.807   6.776  12.789  0.2462 -0.4193 -0.0398
11556TIP3    H156159   1.889   6.815  12.819  0.5013  0.3342 -1.6047
11556TIP3    H256160   1.746   6.791  12.861  1.1771  0.0205  0.6885
11557TIP3   OH256161   2.804   6.514   0.740  0.5928  0.2585 -0.4577
11557TIP3    H156162   2.866   6.442   0.729  0.2702  0.0868 -1.2203
11557TIP3    H256163   2.835   6.582   0.680 -0.5069 -0.2170 -1.6060
11558TIP3   OH256164   1.688   0.418   5.247  0.7489 -0.3551  0.0298
11558TIP3    H156165   1.620   0.379   5.191 -1.0392  2.5284 -0.0427
11558TIP3    H256166   1.736   0.477   5.189  0.5383  0.7560  0.9369
11559TIP3   OH256167   2.032   3.497   3.161 -0.0078 -0.8427  0.3267
11559TIP3    H156168   2.010   3.574   3.110  1.1779 -1.7461 -1.6468
11559TIP3    H256169   1.986   3.509   3.244 -0.9924  1.2710 -0.4699
11560TIP3   OH256170   4.802   2.932  12.441  0.1640 -0.0918 -0.6363
11560TIP3    H156171   4.872   2.993  12.466 -0.1624 -0.0161  0.0993
11560TIP3    H256172   4.726   2.988  12.427  0.2024 -0.1921 -1.2930
11561TIP3   OH256173   2.973   2.904  11.657  0.5858  0.1965  0.1181
11561TIP3    H156174   2.970   2.817  11.696  0.3416  0.6284  1.1144
11561TIP3    H256175   2.994   2.962  11.731  2.1957  0.8208 -0.7901
11562TIP3   OH256176   6.077   1.985  17.017 -0.1718 -0.0481 -0.5641
11562TIP3    H156177   6.110   1.946  16.936 -0.4193 -0.6804 -0.3671
11562TIP3    H256178   6.138   2.057  17.036  0.1083 -0.1393 -1.0999
11563TIP3   OH256179   4.893   0.970   2.836  0.1334 -0.4196 -0.3913
11563TIP3    H156180   4.927   0.923   2.761 -0.3660  0.6260 -1.2942
11563TIP3    H256181   4.801   0.945   2.841 -1.5191  3.7418 -3.7370
11564TIP3   OH256182   0.452   0.698   1.892 -0.5797 -0.0939 -0.7929
11564TIP3    H156183   0.380   0.728   1.948 -0.4854  0.8604 -1.1726
11564TIP3    H256184   0.515   0.770   1.893  1.3497 -1.6244  1.1330
11565TIP3   OH256185   1.504   0.277  11.881 -0.0134 -0.0217  0.4427
11565TIP3    H156186   1.564   0.301  11.951  0.3964 -2.4300  1.0049
11565TIP3    H256187   1.417   0.285  11.920  0.1431 -0.0202  0.7930
11566TIP3   OH256188   1.688   3.863  14.329  0.2607  0.6937 -0.3586
11566TIP3    H156189   1.775   3.888  14.300  1.1712 -0.3464  1.3497
11566TIP3    H256190   1.676   3.907  14.413  0.4447 -1.5767  0.9395
11567TIP3   OH256191   1.647   6.004   0.609 -0.1295  0.7172  0.1319
11567TIP3    H156192   1.733   5.966   0.589 -0.0696  0.4934  0.7753
11567TIP3    H256193   1.662   6.054   0.690  0.1672  3.4129 -1.4671
11568TIP3   OH256194   3.824   1.205  17.105  0.1023 -0.2357  0.1519
11568TIP3    H156195   3.884   1.259  17.054  0.4722  0.9105  1.7254
11568TIP3    H256196   3.769   1.268  17.152 -1.3302 -1.2609 -0.0699
11569TIP3   OH256197   0.154   3.333  14.930  0.1002  1.2097  0.0069
11569TIP3    H156198   0.139   3.301  14.841 -0.6705  0.8649  0.2525
11569TIP3    H256199   0.226   3.280  14.963 -1.4464 -0.6493  0.5671
11570TIP3   OH256200   4.436   6.220   1.969  0.5874  0.6606  0.0112
11570TIP3    H156201   4.512   6.181   1.927 -0.1032  0.2601 -0.8837
11570TIP3    H256202   4.471   6.261   2.049  1.2789 -2.2016  1.3078
11571TIP3   OH256203   3.356   3.946  11.518  0.2168 -0.1944 -0.2288
11571TIP3    H156204   3.446   3.937  11.486 -0.6742 -4.1871 -2.3636
11571TIP3    H256205   3.348   3.881  11.587 -1.2570 -0.7834 -0.8954
11572TIP3   OH256206   1.207   0.462  16.665  0.2828  0.0789 -0.5506
11572TIP3    H156207   1.165   0.523  16.725 -1.0689 -1.0547 -0.2655
11572TIP3    H256208   1.170   0.483  16.579  0.5300  0.2747 -0.6084
11573TIP3   OH256209   3.286   0.406  12.301  0.4115  0.5130  0.1366
11573TIP3    H156210   3.342   0.475  12.263  0.3538  1.0754  1.0529
11573TIP3    H256211   3.347   0.341  12.334  0.5047  0.6805  0.2977
11574TIP3   OH256212   0.956   1.084   0.168 -0.2196 -0.2524  0.0094
11574TIP3    H156213   0.934   0.991   0.160  1.1332 -0.6756  0.8603
11574TIP3    H256214   1.012   1.102   0.092 -0.2934 -0.2032 -0.0326
11575TIP3   OH256215   4.643   3.298  11.960 -0.5505  0.5914 -0.4728
11575TIP3    H156216   4.590   3.229  11.920  1.4243 -0.1083 -2.0343
11575TIP3    H256217   4.655   3.363  11.890  1.4364  0.2426 -0.4990
11576TIP3   OH256218   6.203   3.444  13.730 -0.3411 -0.0880  0.0195
11576TIP3    H156219   6.205   3.349  13.721  2.6526 -0.1734  0.5727
11576TIP3    H256220   6.227   3.477  13.643  2.5179 -0.0595  0.7193
11577TIP3   OH256221   5.926   3.504  17.003 -0.2259  0.4823  0.1065
11577TIP3    H156222   5.908   3.497  16.909 -0.1561  2.1278 -0.0519
11577TIP3    H256223   6.017   3.532  17.008 -0.4818  1.2553  0.6302
11578TIP3   OH256224   3.086   1.093  16.007  0.2697  0.2666 -0.6756
11578TIP3    H156225   3.065   1.074  15.916 -0.0898 -1.9050 -0.1861
11578TIP3    H256226   3.036   1.172  16.027 -0.0475  0.4886 -2.1980
11579TIP3   OH256227   4.274   4.875  16.455 -0.6096  0.3963 -0.4091
11579TIP3    H156228   4.247   4.966  16.464  0.3721  0.7695 -1.0616
11579TIP3    H256229   4.199   4.824  16.486 -1.1107  1.4221  0.1019
11580TIP3   OH256230   3.981   5.474   0.448  0.2902 -0.3530 -0.4731
11580TIP3    H156231   4.061   5.443   0.492 -0.6766 -1.3095  0.6919
11580TIP3    H256232   3.973   5.418   0.370  0.9441 -0.0032 -0.7969
11581TIP3   OH256233   6.848   3.682   3.958  0.1034 -0.2258 -0.5467
11581TIP3    H156234   6.923   3.631   3.988 -1.3345 -0.7407  2.5296
11581TIP3    H256235   6.846   3.759   4.015 -1.9086 -0.4366 -0.2612
11582TIP3   OH256236   2.256   4.366  15.500 -0.6418  0.4105  0.0416
11582TIP3    H156237   2.192   4.302  15.529 -0.0808  0.3538  1.2308
11582TIP3    H256238   2.330   4.355  15.561  0.5296  0.4239 -1.3107
11583TIP3   OH256239   3.235   1.061  14.481 -0.0084 -0.0793 -0.6679
11583TIP3    H156240   3.159   1.019  14.522 -1.1524  1.7794 -0.7639
11583TIP3    H256241   3.297   0.990  14.466 -0.9223 -1.3476  1.2127
11584TIP3   OH256242   0.903   4.032   5.612  0.5552  0.5652  0.1120
11584TIP3    H156243   0.947   3.980   5.545  0.9075  0.8863  0.0890
11584TIP3    H256244   0.974   4.064   5.668  0.2641  0.2876  0.6472
11585TIP3   OH256245   2.266   0.523   1.888 -0.6344  0.7342  0.1819
11585TIP3    H156246   2.351   0.513   1.930 -0.6401  1.4446  0.3787
11585TIP3    H256247   2.284   0.573   1.809 -0.1689 -2.9708 -2.2892
11586TIP3   OH256248   0.813   6.133   2.322  1.0190 -0.2756 -0.0475
11586TIP3    H156249   0.743   6.182   2.279  0.5644 -0.8529  0.0184
11586TIP3    H256250   0.876   6.115   2.252  0.5758 -0.6873 -0.3425
11587TIP3   OH256251   5.922   1.174   1.831 -0.5667 -0.0504  0.3096
11587TIP3    H156252   6.018   1.181   1.834 -0.4956 -0.5485 -0.4934
11587TIP3    H256253   5.906   1.096   1.778 -1.4245  0.7248 -0.6217
11588TIP3   OH256254   4.057   2.003  17.106 -0.3603  0.2148  0.2254
11588TIP3    H156255   4.026   2.087  17.071 -1.4130 -0.6663 -1.0461
11588TIP3    H256256   3.984   1.943  17.093  0.6562 -1.1071  0.3723
11589TIP3   OH256257   6.064   6.105  15.251 -0.1869 -0.3668 -0.3214
11589TIP3    H156258   6.054   6.018  15.213 -1.0715 -0.3068 -0.2687
11589TIP3    H256259   6.157   6.124  15.246 -0.3389  0.0168 -3.3276
11590TIP3   OH256260   2.376   5.248   4.667 -0.1137  0.0783 -0.2681
11590TIP3    H156261   2.328   5.194   4.730  0.4548  0.1602  0.2363
11590TIP3    H256262   2.398   5.187   4.596 -2.2860  0.3599 -1.2733
11591TIP3   OH256263   6.399   0.463   6.103 -0.2469  0.1496 -0.0827
11591TIP3    H156264   6.349   0.417   6.171 -0.1658  0.1463 -0.0254
11591TIP3    H256265   6.490   0.458   6.133 -0.2033  0.0905 -0.2256
11592TIP3   OH256266   1.379   5.467   0.612 -0.2290  0.6181 -0.2557
11592TIP3    H156267   1.343   5.549   0.578  1.3881  1.9226  1.0116
11592TIP3    H256268   1.395   5.485   0.704  0.3081 -1.0984  0.0112
11593TIP3   OH256269   5.711   3.120  14.249 -0.2751 -0.0834  0.6509
11593TIP3    H156270   5.741   3.165  14.170 -0.0733  1.9179  1.7921
11593TIP3    H256271   5.707   3.028  14.224 -2.2279  0.6697 -2.2922
11594TIP3   OH256272   5.619   4.013   2.689  0.0382  0.4521 -0.0300
11594TIP3    H156273   5.677   3.949   2.647 -2.0249 -1.9954  0.5957
11594TIP3    H256274   5.633   3.999   2.783 -2.8241 -1.6295  0.2106
11595TIP3   OH256275   0.368   5.844  14.933  0.1802 -0.2386  0.2046
11595TIP3    H156276   0.283   5.834  14.975  0.5241 -2.6739  0.4702
11595TIP3    H256277   0.374   5.770  14.873  2.1980 -0.2508  0.3531
11596TIP3   OH256278   1.814   5.697  11.716 -0.0161 -0.2279 -0.6953
11596TIP3    H156279   1.830   5.606  11.690  0.9546  0.5799 -3.3283
11596TIP3    H256280   1.821   5.697  11.811  2.7610 -2.4551 -0.7594
11597TIP3   OH256281   6.544   0.953  10.199  0.4274  0.1037  0.3849
11597TIP3    H156282   6.529   1.047  10.210  0.4799  0.1570 -0.0007
11597TIP3    H256283   6.583   0.945  10.112  1.7987 -0.1211  0.9876
11598TIP3   OH256284   0.046   1.318   6.330 -0.2044  0.0987  0.3292
11598TIP3    H156285  -0.023   1.251   6.333  1.4868 -1.7725 -0.6868
11598TIP3    H256286   0.064   1.330   6.237 -0.1852  1.7152  0.5150
11599TIP3   OH256287   0.578   5.308   3.128 -0.5246 -0.2716 -0.2392
11599TIP3    H156288   0.539   5.223   3.145 -2.6197  0.9248  1.4990
11599TIP3    H256289   0.614   5.336   3.213  0.9765  0.2078 -0.9930
11600TIP3   OH256290   2.541   3.042  13.875 -0.9251  0.1035  0.2548
11600TIP3    H156291   2.610   2.980  13.900  1.1109  1.2851 -1.9646
11600TIP3    H256292   2.476   2.989  13.830 -0.8476 -0.8613  1.2467
11601TIP3   OH256293   0.300   5.004  16.041 -0.4140 -0.1857 -0.1561
11601TIP3    H156294   0.236   5.028  16.108 -0.2991 -1.1860  0.3254
11601TIP3    H256295   0.317   5.085  15.993  0.4376  0.8317  1.7973
11602TIP3   OH256296   3.333   6.368  11.423 -0.3792 -0.3128 -0.3452
11602TIP3    H156297   3.341   6.330  11.335  1.1069  0.1629 -0.4563
11602TIP3    H256298   3.315   6.461  11.407 -0.3129 -0.2655 -0.1449
11603TIP3   OH256299   5.864   2.011   2.589 -0.0505 -0.0468  0.8094
11603TIP3    H156300   5.879   1.921   2.561 -0.6406  0.0301  0.2317
11603TIP3    H256301   5.866   2.006   2.685  0.3603 -0.5904  0.7808
11604TIP3   OH256302   2.888   2.410   5.831 -0.7814 -0.0197 -0.0300
11604TIP3    H156303   2.901   2.491   5.781  1.7982  0.3307  1.0863
11604TIP3    H256304   2.955   2.350   5.799 -0.8020 -0.7032  1.1548
11605TIP3   OH256305   2.986   1.974   3.643  0.0458 -0.0110  0.0207
11605TIP3    H156306   3.009   2.018   3.561  2.2546  0.4146  0.8077
11605TIP3    H256307   3.044   1.899   3.647 -0.4771 -0.3796  0.9103
11606TIP3   OH256308   2.192   6.482   0.767  0.1875 -0.1868  0.7474
11606TIP3    H156309   2.255   6.485   0.840  0.6062 -0.1979  0.3922
11606TIP3    H256310   2.233   6.424   0.703  0.5500  1.0445 -0.1630
11607TIP3   OH256311   1.079   5.278   3.532  1.0911 -0.3030 -0.1329
11607TIP3    H156312   1.049   5.287   3.441 -0.2053  0.0183  0.3127
11607TIP3    H256313   1.143   5.349   3.542  2.1995 -1.1074 -1.1478
11608TIP3   OH256314   2.583   6.220   6.187  0.6496  0.8508  0.3825
11608TIP3    H156315   2.571   6.252   6.097  0.0507 -0.9030 -0.2127
11608TIP3    H256316   2.495   6.222   6.225  0.7063  0.4992  0.5368
11609TIP3   OH256317   4.985   6.210   2.288  0.1498 -0.0239 -0.3734
11609TIP3    H156318   5.080   6.214   2.274  0.5654  0.6706  2.2208
11609TIP3    H256319   4.974   6.226   2.381 -2.3306 -2.8925 -0.0209
11610TIP3   OH256320   1.636   5.506  13.029  0.0501 -0.2803 -0.0866
11610TIP3    H156321   1.726   5.501  12.995  0.2534  1.6295  0.0288
11610TIP3    H256322   1.590   5.435  12.985  1.8511 -2.0288  0.6685
11611TIP3   OH256323   0.605   0.941   3.952 -0.2753 -0.4455 -0.4667
11611TIP3    H156324   0.543   0.914   3.883 -0.4224 -0.6445 -0.2596
11611TIP3    H256325   0.689   0.946   3.908 -0.5736  0.6048 -0.9343
11612TIP3   OH256326   6.532   6.191  10.384 -0.1652 -0.0598 -0.5772
11612TIP3    H156327   6.541   6.205  10.478  0.6558 -0.0436 -0.6540
11612TIP3    H256328   6.515   6.097  10.375  1.5129 -0.4033 -0.5047
11613TIP3   OH256329   0.180   2.835  11.655  0.5541 -0.0765  0.0997
11613TIP3    H156330   0.211   2.903  11.596 -1.3153 -0.1758 -1.0871
11613TIP3    H256331   0.168   2.880  11.739  1.6762  0.4562 -0.0126
11614TIP3   OH256332   2.952   3.814  11.499 -0.2560 -0.0104 -0.0028
11614TIP3    H156333   2.970   3.751  11.429  1.7877 -0.9152  1.2430
11614TIP3    H256334   2.988   3.897  11.467 -0.0877 -0.2233 -0.3726
11615TIP3   OH256335   2.164   2.907  11.637  0.5332 -0.7913  0.1447
11615TIP3    H156336   2.094   2.848  11.607  0.8978 -0.4316 -1.5105
11615TIP3    H256337   2.121   2.963  11.702 -0.5097 -1.1138 -0.2357
11616TIP3   OH256338   6.645   0.035   1.332  0.6021  0.5111 -0.5451
11616TIP3    H156339   6.661   0.129   1.326 -0.4858  0.7537  0.0381
11616TIP3    H256340   6.723  -0.000   1.375  1.4258  0.9998 -1.5961
11617TIP3   OH256341   1.993   4.264  11.042  0.3316 -0.0335  0.2748
11617TIP3    H156342   1.947   4.182  11.056  2.3819 -1.3496 -0.2210
11617TIP3    H256343   1.986   4.280  10.948 -0.4148  0.5919  0.4319
11618TIP3   OH256344   2.772   6.073   2.141  0.1751 -0.7133 -0.3137
11618TIP3    H156345   2.784   5.987   2.102  0.1139 -0.8579 -0.0143
11618TIP3    H256346   2.846   6.125   2.110 -0.4882 -0.4788 -1.5786
11619TIP3   OH256347   4.771   4.402  13.053  0.3711 -0.2196  0.2379
11619TIP3    H156348   4.789   4.495  13.036 -0.1765  0.0729  1.1968
11619TIP3    H256349   4.856   4.366  13.078  0.5143  0.1123  0.2457
11620TIP3   OH256350   6.799   5.180  15.153  0.0777 -0.0534 -0.2079
11620TIP3    H156351   6.845   5.100  15.125  2.9484  1.4681 -0.1457
11620TIP3    H256352   6.854   5.217  15.221 -0.8976  2.2612 -0.5982
11621TIP3   OH256353   6.307   0.270   5.201  0.1963  0.0540  0.0486
11621TIP3    H156354   6.345   0.232   5.122 -1.4428  0.1885 -0.8490
11621TIP3    H256355   6.250   0.339   5.169  1.0158  1.4732  1.4976
11622TIP3   OH256356   3.837   1.545  12.857  0.3404 -0.2793  0.5847
11622TIP3    H156357   3.867   1.618  12.803 -0.2283 -0.3898  0.0985
11622TIP3    H256358   3.799   1.586  12.934  0.1254 -0.0618  0.3657
11623TIP3   OH256359   3.959   0.329  14.850  1.1565  0.2457  0.3596
11623TIP3    H156360   3.935   0.343  14.941 -1.4264  0.6058 -0.2910
11623TIP3    H256361   3.943   0.236  14.834  1.2983  0.2469  0.2077
11624TIP3   OH256362   5.261   0.052  14.370  0.3279  0.2301  0.4262
11624TIP3    H156363   5.320  -0.022  14.354  0.2342  0.6478 -2.4055
11624TIP3    H256364   5.319   0.125  14.391  0.6707  0.1076 -0.0674
11625TIP3   OH256365   1.975   3.653  14.960  0.2713 -0.5860 -0.1147
11625TIP3    H156366   1.938   3.565  14.952  1.0219 -0.9902  0.6289
11625TIP3    H256367   2.052   3.641  15.015 -0.3533  0.7410  1.1220
11626TIP3   OH256368   3.681   1.688   6.477  0.5965  0.4105  0.7575
11626TIP3    H156369   3.773   1.694   6.451  1.0460 -2.1036  1.4905
11626TIP3    H256370   3.666   1.765   6.533  1.8187  1.5938 -0.4578
11627TIP3   OH256371   5.191   5.166  14.060  0.1044  0.1622  0.4167
11627TIP3    H156372   5.186   5.226  13.986 -0.8739  2.4846  2.2220
11627TIP3    H256373   5.101   5.158  14.090  0.4069 -1.2034  1.0174
11628TIP3   OH256374   0.326   1.080   1.383 -0.1044  0.0250  0.0100
11628TIP3    H156375   0.340   1.147   1.317  0.6054 -0.8072 -0.7162
11628TIP3    H256376   0.348   1.123   1.466  3.3187 -0.0917 -0.7024
11629TIP3   OH256377   0.392   4.349   3.194 -0.2976 -0.2342 -0.7161
11629TIP3    H156378   0.334   4.290   3.241 -0.3534  0.0487 -0.4229
11629TIP3    H256379   0.366   4.341   3.102 -0.2933 -0.6716 -0.6800
11630TIP3   OH256380   1.981   3.755  12.418 -0.8092  0.0567 -0.1403
11630TIP3    H156381   2.022   3.833  12.456  0.7572  0.1017 -1.7797
11630TIP3    H256382   1.887   3.771  12.426 -0.5240  1.9196 -0.0382
11631TIP3   OH256383   6.252   2.562   2.431 -0.6379  0.0569 -0.0114
11631TIP3    H156384   6.247   2.620   2.355 -0.8061 -1.7494 -1.4695
11631TIP3    H256385   6.181   2.499   2.417 -0.7316 -0.2598  1.7193
11632TIP3   OH256386   2.157   5.742  12.358 -0.1356 -0.5287 -0.1986
11632TIP3    H156387   2.229   5.775  12.412 -1.5692  1.3798  0.6822
11632TIP3    H256388   2.185   5.761  12.268 -0.0969  1.5161  0.1942
11633TIP3   OH256389   6.427   1.023   2.120  0.2421  0.3266  0.1631
11633TIP3    H156390   6.370   1.066   2.183 -0.8972 -0.8446 -0.0142
11633TIP3    H256391   6.385   1.039   2.035  1.9661  2.2291 -0.4146
11634TIP3   OH256392   6.120   3.717   4.729 -0.6737 -0.5317 -0.1206
11634TIP3    H156393   6.130   3.637   4.782  2.1797 -1.1832 -1.4537
11634TIP3    H256394   6.191   3.774   4.759 -2.2356  1.2953  0.3046
11635TIP3   OH256395   1.755   2.372   3.037 -0.4024 -0.2199  0.0205
11635TIP3    H156396   1.703   2.313   3.092  0.2020 -1.4202 -0.6413
11635TIP3    H256397   1.721   2.459   3.056 -0.0013 -0.5373  2.5393
11636TIP3   OH256398   2.117   2.988   2.207  0.0761  0.1168  0.3980
11636TIP3    H156399   2.158   2.947   2.131 -0.9712  1.2071 -0.7987
11636TIP3    H256400   2.090   3.075   2.176  0.7339  1.0868  2.3704
11637TIP3   OH256401   2.324   0.399  13.368 -0.1646  0.1606 -0.0891
11637TIP3    H156402   2.363   0.316  13.396 -0.1120  0.4838  0.8528
11637TIP3    H256403   2.344   0.460  13.439  1.5904  1.5469 -1.6730
11638TIP3   OH256404   3.046   2.945   4.571  0.6374  0.2684  0.0375
11638TIP3    H156405   3.085   2.877   4.627  0.8592 -0.2832 -0.7772
11638TIP3    H256406   3.104   3.021   4.583  0.3041  0.3826  1.0643
11639TIP3   OH256407   5.548   3.191  13.121  0.3289  0.5395  0.1311
11639TIP3    H156408   5.511   3.268  13.076  0.5870  1.3714  1.2947
11639TIP3    H256409   5.582   3.136  13.051 -0.2871  1.2672 -0.7612
11640TIP3   OH256410   2.967   5.139  14.679 -0.1851 -0.4440 -0.6628
11640TIP3    H156411   3.057   5.161  14.701 -0.5493 -0.3283  0.7938
11640TIP3    H256412   2.919   5.145  14.762 -1.8622  1.1388 -1.6685
11641TIP3   OH256413   5.340   6.145   1.721  0.0422 -0.7656  0.0295
11641TIP3    H156414   5.312   6.222   1.771  1.5660 -0.1147 -0.0718
11641TIP3    H256415   5.332   6.171   1.630 -1.1878 -1.3961 -0.0691
11642TIP3   OH256416   4.568   2.717  11.603  0.1848 -0.2935  0.0377
11642TIP3    H156417   4.621   2.763  11.669 -1.0149  0.5058  0.4880
11642TIP3    H256418   4.493   2.683  11.653  0.1614 -1.2138 -0.6160
11643TIP3   OH256419   4.561   5.236  13.875 -0.8851  0.2073  0.3091
11643TIP3    H156420   4.588   5.328  13.869 -0.1388 -0.0659 -0.8846
11643TIP3    H256421   4.628   5.188  13.826 -1.1640 -1.0020  1.0622
11644TIP3   OH256422   2.174   5.684  12.082  0.0480 -0.0860  0.3185
11644TIP3    H156423   2.151   5.599  12.121 -0.7601 -0.1253 -0.2288
11644TIP3    H256424   2.175   5.667  11.988  1.8494  0.0460  0.2907
11645TIP3   OH256425   3.794   0.132   1.389 -0.0893  0.4441  0.7560
11645TIP3    H156426   3.762   0.222   1.391 -0.6267  0.3032 -0.4418
11645TIP3    H256427   3.716   0.078   1.377  0.4589  0.0523 -1.6248
11646TIP3   OH256428   4.474   6.078  16.406 -0.1643 -0.1807  0.4645
11646TIP3    H156429   4.444   5.990  16.382 -0.1272 -0.7513  2.3507
11646TIP3    H256430   4.399   6.134  16.392  0.1496 -0.2522 -1.9064
11647TIP3   OH256431   1.466   3.681  10.431  0.5279 -0.7478 -0.1600
11647TIP3    H156432   1.493   3.591  10.414 -0.2012 -1.5766  2.5453
11647TIP3    H256433   1.539   3.720  10.480  0.4344 -0.1897 -0.4591
11648TIP3   OH256434   3.045   6.603   5.522 -0.0689  0.3544  0.2071
11648TIP3    H156435   3.034   6.605   5.427  0.0790 -0.3484  0.1735
11648TIP3    H256436   3.080   6.516   5.541  1.3891  1.0230  0.7379
11649TIP3   OH256437   5.666   4.571  10.641 -0.2982  0.3497 -0.2383
11649TIP3    H156438   5.577   4.592  10.670 -0.2180  0.7673 -0.2901
11649TIP3    H256439   5.723   4.616  10.704 -0.0955 -1.5039  0.9795
11650TIP3   OH256440   4.770   5.125   4.775 -0.4889  0.3643 -0.0433
11650TIP3    H156441   4.813   5.171   4.847 -0.6118 -2.1392  1.7629
11650TIP3    H256442   4.677   5.137   4.791 -0.5448 -1.0670  0.9236
11651TIP3   OH256443   2.305   6.017   3.849 -0.2287  0.5800  0.1269
11651TIP3    H156444   2.378   5.960   3.822 -0.7189 -0.3130  0.6466
11651TIP3    H256445   2.339   6.067   3.923  0.5174  1.6933 -0.9201
11652TIP3   OH256446   3.835   0.025  13.868 -0.3642 -0.6223 -0.2684
11652TIP3    H156447   3.785  -0.038  13.920  2.6245 -1.4872  1.8288
11652TIP3    H256448   3.901  -0.028  13.823 -1.0322  0.4936 -2.7398
11653TIP3   OH256449   4.931   3.371  13.809  0.0407 -0.0198 -0.2322
11653TIP3    H156450   4.879   3.342  13.884 -1.2770  1.8775 -0.3408
11653TIP3    H256451   4.868   3.383  13.739  1.0355 -0.2044 -1.1942
11654TIP3   OH256452   4.734   0.255  11.307  0.4846  0.4132 -0.4274
11654TIP3    H156453   4.679   0.331  11.324 -0.5248 -0.6608  1.4182
11654TIP3    H256454   4.700   0.217  11.227  1.3585  2.1651 -1.6948
11655TIP3   OH256455   4.862   1.815   1.648  0.0946 -0.5005 -0.0351
11655TIP3    H156456   4.928   1.851   1.707  1.0811 -3.4276  0.8467
11655TIP3    H256457   4.903   1.814   1.562 -0.5283  1.7370 -0.4190
11656TIP3   OH256458   3.209   2.005  14.398 -0.6248  0.6620 -0.4083
11656TIP3    H156459   3.229   2.095  14.373 -0.6777  0.7552 -0.1244
11656TIP3    H256460   3.186   2.011  14.491  2.4975 -0.1034  0.5394
11657TIP3   OH256461   0.637   5.900   2.020  0.0211  0.3590 -0.2881
11657TIP3    H156462   0.701   5.960   2.059  0.8075 -0.6554  0.0229
11657TIP3    H256463   0.581   5.874   2.093  1.5340 -1.5917  0.2492
11658TIP3   OH256464   5.570   6.040  16.856  0.7571  0.1603 -0.0688
11658TIP3    H156465   5.533   6.128  16.855  0.8455  0.2023  0.3764
11658TIP3    H256466   5.515   5.991  16.795  0.5979  0.4789 -0.1839
11659TIP3   OH256467   1.701   1.855   5.350 -0.1438 -0.3552 -0.2082
11659TIP3    H156468   1.655   1.801   5.286 -1.2109  0.2152  0.0507
11659TIP3    H256469   1.653   1.938   5.350  0.5546  0.0643  0.4908
11660TIP3   OH256470   5.889   0.354   5.122  0.3053  1.1309 -0.5314
11660TIP3    H156471   5.836   0.379   5.046  1.5046  1.9498 -1.1382
11660TIP3    H256472   5.978   0.381   5.098  1.0705 -0.5492  0.2907
11661TIP3   OH256473   0.802   2.747  17.076 -0.1134  0.2889 -0.6737
11661TIP3    H156474   0.832   2.672  17.025  0.8478  0.3499 -0.2372
11661TIP3    H256475   0.841   2.734  17.162  1.7078  2.2246 -1.1084
11662TIP3   OH256476   3.455   2.503   0.225  0.4257  0.0979 -0.2631
11662TIP3    H156477   3.479   2.537   0.138  1.9408 -1.2934 -0.4412
11662TIP3    H256478   3.509   2.552   0.286  0.6564 -0.1434 -0.2728
11663TIP3   OH256479   1.396   3.757   2.647  0.1818 -0.3490 -0.3251
11663TIP3    H156480   1.369   3.697   2.716  2.8967 -0.6988  0.5541
11663TIP3    H256481   1.390   3.844   2.687  1.2044 -0.5022  0.1757
11664TIP3   OH256482   6.069   5.782  12.620 -0.2974  0.2579  0.5725
11664TIP3    H156483   6.153   5.766  12.577 -0.0405  0.2861  1.0585
11664TIP3    H256484   6.086   5.765  12.713 -0.9726 -0.2780  0.6027
11665TIP3   OH256485   2.974   5.853  12.487 -0.0755  0.0243  0.6681
11665TIP3    H156486   2.971   5.924  12.551  1.7580  0.4618  0.3053
11665TIP3    H256487   2.928   5.780  12.530 -0.5763  0.9090  1.6746
11666TIP3   OH256488   3.844   1.210  14.696 -0.1347 -0.2748 -0.2369
11666TIP3    H156489   3.902   1.273  14.738  0.6506 -0.6158 -0.7819
11666TIP3    H256490   3.903   1.151  14.648 -0.8574 -1.2647  0.0535
11667TIP3   OH256491   1.305   1.934   0.984 -0.0321 -0.7116 -0.3733
11667TIP3    H156492   1.233   1.899   0.933 -0.0415 -1.4197  0.1169
11667TIP3    H256493   1.361   1.859   1.002  0.8035 -0.1811 -0.6956
11668TIP3   OH256494   5.436   3.262   6.261 -0.1338 -0.0562 -0.0661
11668TIP3    H156495   5.456   3.355   6.260  0.7831 -0.2343 -1.5357
11668TIP3    H256496   5.521   3.219   6.260 -0.5121 -0.8642 -2.0220
11669TIP3   OH256497   4.966   0.094  16.024 -0.0414  0.4521 -0.4513
11669TIP3    H156498   4.963  -0.001  16.015 -2.0308  0.3642  0.5412
11669TIP3    H256499   4.874   0.121  16.020  0.5309  2.4253 -1.4749
11670TIP3   OH256500   5.643   3.229   2.129  0.1138  0.6973 -0.3035
11670TIP3    H156501   5.630   3.134   2.129 -1.7319  0.8092  2.7756
11670TIP3    H256502   5.738   3.240   2.128  0.5369 -1.4066  2.8498
11671TIP3   OH256503   4.207   2.456  13.522 -0.4305 -0.4204 -0.1009
11671TIP3    H156504   4.281   2.403  13.494 -1.1507 -0.6481 -1.7149
11671TIP3    H256505   4.190   2.515  13.449 -0.4412  1.2034  1.1518
11672TIP3   OH256506   5.631   5.275   1.929  0.2164 -0.7976  0.5698
11672TIP3    H156507   5.685   5.201   1.901  1.4977  1.2631 -3.1096
11672TIP3    H256508   5.694   5.340   1.962 -0.5504 -0.2237  0.9440
11673TIP3   OH256509   4.805   5.477   0.899  0.0218 -0.1437  0.4217
11673TIP3    H156510   4.846   5.394   0.920  0.3472  0.2769  1.4922
11673TIP3    H256511   4.758   5.502   0.979 -1.5404 -0.1445 -0.4448
11674TIP3   OH256512   5.055   2.010  12.045  0.0938 -0.1352 -0.4802
11674TIP3    H156513   5.009   2.092  12.060  0.6175 -0.0817  1.0856
11674TIP3    H256514   4.986   1.944  12.043 -0.1240 -0.3134  3.7176
11675TIP3   OH256515   5.056   0.798   1.402 -0.3068 -0.1079  0.3984
11675TIP3    H156516   5.133   0.807   1.458 -1.1171 -0.1755  1.5678
11675TIP3    H256517   5.088   0.752   1.324  0.8924  0.1535  0.7151
11676TIP3   OH256518   4.589   2.735   0.758 -0.2292  0.2421  0.5936
11676TIP3    H156519   4.551   2.651   0.783 -1.3384 -0.2608 -2.3228
11676TIP3    H256520   4.604   2.781   0.840 -1.3680 -2.0538  2.1775
11677TIP3   OH256521   3.422   6.222   3.148  0.2256  0.2864 -0.2245
11677TIP3    H156522   3.484   6.171   3.200 -0.2711 -0.1725 -0.0604
11677TIP3    H256523   3.470   6.299   3.120 -0.1290  1.7918  2.9015
11678TIP3   OH256524   5.771   4.007   0.265  0.1029 -0.6332  0.2313
11678TIP3    H156525   5.816   3.987   0.347 -1.2460  2.0040  1.7462
11678TIP3    H256526   5.690   3.958   0.269 -0.0361 -0.3801  0.5784
11679TIP3   OH256527   2.355   3.582  11.100  0.2035 -0.0180  0.0037
11679TIP3    H156528   2.335   3.512  11.162 -0.7391  0.3102  0.1009
11679TIP3    H256529   2.404   3.647  11.152  0.7766 -0.4470 -0.0002
11680TIP3   OH256530   1.482   1.857  11.125  0.3028 -0.0254  0.4857
11680TIP3    H156531   1.519   1.837  11.040 -2.0755  0.8965 -0.8587
11680TIP3    H256532   1.453   1.948  11.119 -2.0037 -0.6143  1.3857
11681TIP3   OH256533   0.434   3.827  15.444 -0.1719 -0.7287  0.0096
11681TIP3    H156534   0.377   3.758  15.409 -1.3698  1.1301 -1.9959
11681TIP3    H256535   0.381   3.907  15.437  1.4661  0.5453  1.4308
11682TIP3   OH256536   2.032   6.051   5.895 -0.0533 -0.6453 -0.3553
11682TIP3    H156537   2.085   6.012   5.964 -1.5304 -0.8990  0.6735
11682TIP3    H256538   2.028   6.144   5.918 -0.8636 -0.7920  0.1518
11683TIP3   OH256539   4.294   5.915  13.002 -0.0807 -0.2525 -0.2507
11683TIP3    H156540   4.210   5.959  13.018 -0.1196  0.0529 -1.2456
11683TIP3    H256541   4.282   5.871  12.918  0.5070 -0.8335 -0.0324
11684TIP3   OH256542   6.103   0.438   4.664  0.1691 -0.4588  0.0712
11684TIP3    H156543   6.154   0.442   4.583 -0.1220  1.3120 -0.0718
11684TIP3    H256544   6.066   0.526   4.673 -2.0140 -1.3846  0.7123
11685TIP3   OH256545   3.166   4.861  14.810  0.0107  0.1792  0.5822
11685TIP3    H156546   3.217   4.938  14.784  0.1215 -0.8529 -2.7365
11685TIP3    H256547   3.229   4.802  14.850  0.4594  0.7797  0.7620
11686TIP3   OH256548   3.070   1.189  11.263 -0.0093  0.1357  0.0603
11686TIP3    H156549   3.021   1.122  11.217 -0.8578  0.3604  0.6233
11686TIP3    H256550   3.160   1.180  11.231  0.3793 -2.6374  1.6132
11687TIP3   OH256551   3.143   0.333  13.894  0.2614 -0.4498 -0.4364
11687TIP3    H156552   3.180   0.264  13.950  0.3713  0.1912  0.2959
11687TIP3    H256553   3.075   0.373  13.949 -0.2265 -0.3798 -1.0867
11688TIP3   OH256554   5.766   1.310   4.403  0.0483  0.4368  0.4547
11688TIP3    H156555   5.758   1.399   4.367  1.6626  0.9229  1.1909
11688TIP3    H256556   5.704   1.258   4.353  1.3969  1.2946 -2.3367
11689TIP3   OH256557   2.844   2.376   5.332  0.0776 -0.0470  0.1097
11689TIP3    H156558   2.817   2.351   5.244 -0.1382  2.4560 -0.6001
11689TIP3    H256559   2.767   2.358   5.386  0.8535 -3.5242  0.2942
11690TIP3   OH256560   5.924   0.393   4.050  0.0018  0.5749 -0.0295
11690TIP3    H156561   5.922   0.418   3.958  0.9429  1.4998  0.1843
11690TIP3    H256562   5.841   0.426   4.085 -0.7840 -0.5978 -0.7212
11691TIP3   OH256563   3.785   6.181  16.490  0.4580  0.2356 -0.3956
11691TIP3    H156564   3.797   6.144  16.403 -1.4760 -0.3501 -0.4686
11691TIP3    H256565   3.761   6.106  16.545 -1.8332  1.0378 -0.1725
11692TIP3   OH256566   0.370   2.715  13.408 -1.0286  0.2295  0.3973
11692TIP3    H156567   0.327   2.654  13.468 -1.0928 -0.0892  0.0308
11692TIP3    H256568   0.455   2.675  13.390 -1.5398 -0.3791 -0.7958
11693TIP3   OH256569   0.655   2.530   2.127  0.0917 -0.0376  0.4217
11693TIP3    H156570   0.677   2.440   2.101 -0.3269 -0.8838  2.7688
11693TIP3    H256571   0.569   2.522   2.170 -1.2701  1.9595 -1.7113
11694TIP3   OH256572   1.508   1.672   3.086 -0.0602  0.3695  0.4596
11694TIP3    H156573   1.517   1.577   3.098 -0.6024  0.0962 -1.0703
11694TIP3    H256574   1.561   1.691   3.009  1.2855  1.5900  1.6505
11695TIP3   OH256575   0.398   4.465  14.659 -0.2518 -0.1003 -0.2143
11695TIP3    H156576   0.470   4.525  14.677 -1.1293  0.6239  1.0094
11695TIP3    H256577   0.440   4.385  14.630  0.9479  1.2978 -2.6674
11696TIP3   OH256578   3.126   2.411  17.048  0.4062  0.4768  0.2760
11696TIP3    H156579   3.116   2.414  17.143  1.4583 -1.2051  0.4712
11696TIP3    H256580   3.084   2.330  17.022  0.0016  0.9949 -0.7385
11697TIP3   OH256581   6.828   0.059   3.672 -0.1808 -0.5295 -0.5244
11697TIP3    H156582   6.855   0.123   3.737 -0.9769 -0.4937 -0.2170
11697TIP3    H256583   6.888  -0.015   3.685 -1.5036 -1.3474  1.6069
11698TIP3   OH256584   5.362   4.543  14.440 -0.5334  0.5281 -0.4301
11698TIP3    H156585   5.350   4.545  14.345 -0.2184 -1.9677 -0.5871
11698TIP3    H256586   5.275   4.562  14.476 -0.6404  1.5494 -1.2031
11699TIP3   OH256587   0.866   2.348  11.356  0.7108  0.0893 -0.4998
11699TIP3    H156588   0.955   2.324  11.333  0.8424 -0.3925  0.4805
11699TIP3    H256589   0.815   2.332  11.276  1.3856 -0.2338 -0.8680
11700TIP3   OH256590   3.164   6.411   6.029  0.3318  0.0355 -0.0802
11700TIP3    H156591   3.122   6.496   6.045  1.2713  0.4775  0.1056
11700TIP3    H256592   3.136   6.356   6.102  0.0665  0.3231  0.0355
11701TIP3   OH256593   5.020   3.345  15.140  0.3215  0.0472 -0.0275
11701TIP3    H156594   4.931   3.320  15.116  0.5675  0.2517 -1.1905
11701TIP3    H256595   5.068   3.350  15.057  1.1473  1.0045  0.4795
11702TIP3   OH256596   0.895   2.426   3.930  0.0703  0.0113  0.0660
11702TIP3    H156597   0.870   2.364   3.999 -2.1152  0.7283  0.0114
11702TIP3    H256598   0.892   2.512   3.973  0.2686  0.3262 -0.5374
11703TIP3   OH256599   0.799   1.290  10.736  0.2045  0.3385 -0.9597
11703TIP3    H156600   0.856   1.356  10.775  0.1847 -0.7156  1.0127
11703TIP3    H256601   0.734   1.273  10.805 -0.8423 -0.4511 -2.1132
11704TIP3   OH256602   0.884   4.815  15.965 -0.0709  0.1441 -0.2345
11704TIP3    H156603   0.851   4.755  16.032  1.1674  1.2718  1.4694
11704TIP3    H256604   0.820   4.887  15.964  1.7561  1.9793  2.5536
11705TIP3   OH256605   1.881   2.478   5.934  0.0166  0.0697  0.3990
11705TIP3    H156606   1.927   2.502   6.014 -0.4341 -0.5658  0.8680
11705TIP3    H256607   1.794   2.451   5.964 -0.0995 -0.3451 -0.2868
11706TIP3   OH256608   1.236   6.270  10.773 -0.1903  0.4531 -0.2188
11706TIP3    H156609   1.175   6.199  10.750  0.2346  0.3363 -1.0250
11706TIP3    H256610   1.227   6.333  10.702 -1.4152  1.7966  1.0686
11707TIP3   OH256611   1.671   4.458  12.961 -0.1393  0.2719 -0.1429
11707TIP3    H156612   1.709   4.416  13.038 -0.2813  1.6980  0.7460
11707TIP3    H256613   1.583   4.421  12.954 -0.3380  0.5581  0.7400
11708TIP3   OH256614   1.847   0.302   1.479  0.3736 -0.1192  0.1226
11708TIP3    H156615   1.846   0.230   1.543  0.7585 -0.1623  0.0865
11708TIP3    H256616   1.908   0.272   1.411  0.3109  0.1174 -0.0366
11709TIP3   OH256617   2.381   4.908  10.376 -0.0196 -0.1286 -0.0434
11709TIP3    H156618   2.334   4.990  10.361  0.5311 -0.1291 -2.0666
11709TIP3    H256619   2.425   4.920  10.460 -1.6161  0.8103  0.6991
11710TIP3   OH256620   4.569   6.511   4.244 -1.0679  0.1950  0.3887
11710TIP3    H156621   4.526   6.573   4.302  0.5125  0.6860  1.0868
11710TIP3    H256622   4.573   6.556   4.159  0.0445  1.0599  0.8840
11711TIP3   OH256623   0.174   4.867   0.546  0.3995 -0.3726  0.2151
11711TIP3    H156624   0.095   4.838   0.591  0.0159 -0.2385 -0.3537
11711TIP3    H256625   0.159   4.844   0.454  1.1981 -0.7107  0.1647
11712TIP3   OH256626   3.542   2.921  11.366  0.2799 -0.0755 -0.8837
11712TIP3    H156627   3.531   2.944  11.458 -1.4177 -0.8272 -0.8629
11712TIP3    H256628   3.593   2.840  11.367  0.2788 -0.0722 -0.6184
11713TIP3   OH256629   5.727   5.097   1.210 -0.1141  0.1526 -0.3208
11713TIP3    H156630   5.745   5.012   1.251  2.3332  0.3373 -0.8124
11713TIP3    H256631   5.712   5.157   1.283  0.3220 -0.2883  0.1421
11714TIP3   OH256632   6.301   1.197  14.204 -0.2770 -0.5436 -0.5424
11714TIP3    H156633   6.222   1.211  14.257 -0.2212 -0.9970 -0.3348
11714TIP3    H256634   6.328   1.107  14.225  2.7904  0.9259  2.7097
11715TIP3   OH256635   3.165   4.558  15.369 -0.1569  0.2353 -0.0726
11715TIP3    H156636   3.139   4.555  15.461 -0.7294  0.4714 -0.2215
11715TIP3    H256637   3.115   4.487  15.328 -0.0896  0.2896 -0.2477
11716TIP3   OH256638   2.640   2.358   3.109  0.3954  0.4971 -0.0199
11716TIP3    H156639   2.633   2.344   3.204 -0.9199  0.2065 -0.1429
11716TIP3    H256640   2.550   2.378   3.081  0.8266  0.9160 -1.1565
11717TIP3   OH256641   2.476   1.858   5.278  0.4434  0.3958 -0.3110
11717TIP3    H156642   2.414   1.838   5.208 -2.1207 -0.5284  2.0271
11717TIP3    H256643   2.505   1.772   5.309 -1.4028  0.4991  2.0615
11718TIP3   OH256644   3.718   2.609  15.355 -0.1300  0.2757 -0.0058
11718TIP3    H156645   3.716   2.515  15.371 -1.9516  0.4840  1.4071
11718TIP3    H256646   3.715   2.648  15.443 -0.2143  1.6390 -0.5923
11719TIP3   OH256647   0.866   3.049   3.547  0.6714 -0.1099 -0.5764
11719TIP3    H156648   0.856   3.119   3.483  0.3081  0.4696  0.1087
11719TIP3    H256649   0.955   3.059   3.580  0.4219  0.4158 -0.0413
11720TIP3   OH256650   5.567   6.395   1.993 -0.0732  0.1956 -0.0049
11720TIP3    H156651   5.472   6.407   1.991 -0.0853  0.0683 -1.6654
11720TIP3    H256652   5.583   6.321   1.935  0.9179 -0.9935  1.6779
11721TIP3   OH256653   4.192   0.708  16.164  0.3070  0.5341  0.1073
11721TIP3    H156654   4.110   0.729  16.207  0.6832 -0.0068  1.1209
11721TIP3    H256655   4.207   0.615  16.183  2.2182  1.1110  1.8558
11722TIP3   OH256656   6.627   6.593   4.297 -0.5810  0.1817  0.2111
11722TIP3    H156657   6.547   6.554   4.261  0.1356 -2.6333  1.3448
11722TIP3    H256658   6.597   6.647   4.370 -1.5205  0.2055 -0.1765
11723TIP3   OH256659   3.355   5.092   5.985 -0.7301 -0.4018 -0.0364
11723TIP3    H156660   3.400   5.158   5.933 -0.3853 -1.3115 -0.9068
11723TIP3    H256661   3.281   5.139   6.024 -1.2655  0.1961 -1.7051
11724TIP3   OH256662   2.975   5.121   6.398 -0.0686 -0.2782 -0.5940
11724TIP3    H156663   3.020   5.077   6.470 -0.0138 -2.0330 -1.6260
11724TIP3    H256664   2.890   5.146   6.434  0.2308 -0.4866  0.2727
11725TIP3   OH256665   3.651   0.942   4.840  0.1370  0.2776  0.2380
11725TIP3    H156666   3.560   0.968   4.855  0.4688  0.7833  1.5444
11725TIP3    H256667   3.702   1.022   4.854  0.8615 -0.2076  0.4691
11726TIP3   OH256668   2.556   1.767   1.242  0.0280  0.0196 -0.0413
11726TIP3    H156669   2.483   1.810   1.287 -0.5155 -0.8035 -0.1136
11726TIP3    H256670   2.541   1.673   1.256  3.1885 -0.1774  3.3120
11727TIP3   OH256671   2.929   2.466  13.828  0.5227  0.3603 -0.4521
11727TIP3    H156672   2.921   2.415  13.909  1.3434 -1.0558 -1.2118
11727TIP3    H256673   3.023   2.476  13.815  0.3882  1.1045 -0.9126
11728TIP3   OH256674   2.741   2.139  10.598 -0.3358 -0.2085  0.1164
11728TIP3    H156675   2.770   2.067  10.543 -0.5890 -0.8482  0.8036
11728TIP3    H256676   2.662   2.106  10.641 -2.8909  1.8815 -2.5803
11729TIP3   OH256677   3.922   6.101   5.680 -0.0248  0.7283  0.0054
11729TIP3    H156678   4.012   6.106   5.713 -0.2792 -1.3966  1.2156
11729TIP3    H256679   3.868   6.090   5.758 -1.4273  2.3563 -0.6773
11730TIP3   OH256680   0.410   5.351  16.691  0.2232  0.0564 -0.5703
11730TIP3    H156681   0.322   5.314  16.702  0.8455 -1.4317 -0.4386
11730TIP3    H256682   0.416   5.370  16.597 -1.2751  2.9947 -0.2064
11731TIP3   OH256683   1.397   5.430   1.977  0.5344 -0.7485  0.5052
11731TIP3    H156684   1.332   5.453   2.042 -1.1646 -1.2238 -0.9391
11731TIP3    H256685   1.451   5.509   1.967 -0.6830  0.1331  0.7704
11732TIP3   OH256686   3.538   6.057   1.877  0.9031 -0.3452  0.3091
11732TIP3    H156687   3.561   5.998   1.805 -2.4310  0.2692 -1.4657
11732TIP3    H256688   3.597   6.132   1.866  1.5219 -0.9587 -0.7906
11733TIP3   OH256689   5.310   1.050  12.119  0.1377  0.2600  0.6410
11733TIP3    H156690   5.341   1.140  12.111 -0.0114  0.2853  0.3066
11733TIP3    H256691   5.281   1.042  12.210 -1.1361  0.9722  0.3240
11734TIP3   OH256692   2.673   1.814  12.433 -0.1719 -0.6788 -0.2453
11734TIP3    H156693   2.731   1.817  12.509  0.4659  0.9699 -0.7441
11734TIP3    H256694   2.585   1.812  12.469  0.1122  0.2925  0.5495
11735TIP3   OH256695   3.577   1.355  10.349 -0.3753 -0.0684  0.1933
11735TIP3    H156696   3.652   1.344  10.407 -0.6444  0.2993  0.6209
11735TIP3    H256697   3.526   1.275  10.360  0.0258 -0.3783 -0.2039
11736TIP3   OH256698   5.474   0.275  12.502 -0.3609  0.1109 -0.4017
11736TIP3    H156699   5.491   0.206  12.566 -0.4047 -0.5245 -1.0580
11736TIP3    H256700   5.536   0.257  12.431 -1.2579 -0.0486 -1.1680
11737TIP3   OH256701   0.749   0.580   4.770  0.6207 -0.7071  0.1957
11737TIP3    H156702   0.825   0.539   4.813  0.2871 -0.7263  0.7797
11737TIP3    H256703   0.752   0.671   4.797  2.3861  0.1678 -2.5236
11738TIP3   OH256704   5.207   5.061  11.578  0.2362  0.3224 -0.4914
11738TIP3    H156705   5.261   5.010  11.639 -0.1357  0.4134 -0.0811
11738TIP3    H256706   5.237   5.034  11.491  0.3153 -0.3015 -0.2732
11739TIP3   OH256707   0.857   5.181  14.684 -0.1047 -0.2585  0.3847
11739TIP3    H156708   0.872   5.148  14.773 -2.0716  0.0385  0.8683
11739TIP3    H256709   0.779   5.134  14.654 -1.1072  1.6119 -0.1127
11740TIP3   OH256710   2.665   6.604  17.067 -0.0756 -0.7175  0.5356
11740TIP3    H156711   2.633   6.652  17.144  0.4750  1.6266 -0.6377
11740TIP3    H256712   2.629   6.651  16.992  1.1042 -1.7051 -0.6999
11741TIP3   OH256713   0.727   4.563   1.013 -0.3976  0.3897 -0.5073
11741TIP3    H156714   0.632   4.565   1.001 -0.3723 -1.0417 -1.1251
11741TIP3    H256715   0.762   4.583   0.926 -0.1014  1.9489 -0.0599
11742TIP3   OH256716   6.493   5.517   3.426 -0.0786  0.4750 -0.5634
11742TIP3    H156717   6.482   5.535   3.333  0.1871  1.1024 -0.4791
11742TIP3    H256718   6.486   5.603   3.468  2.8793  0.7032 -0.3232
11743TIP3   OH256719   3.385   6.822   3.090 -0.5620 -0.0941 -0.0810
11743TIP3    H156720   3.336   6.835   3.009  1.0213  1.2711 -0.8626
11743TIP3    H256721   3.359   6.734   3.120 -1.8064 -0.2794 -1.5868
11744TIP3   OH256722   5.789   3.101   3.218  0.3945  0.3294 -1.2596
11744TIP3    H156723   5.757   3.154   3.291  2.5061  2.6032 -1.8101
11744TIP3    H256724   5.853   3.042   3.258  0.4884  0.5665 -1.0531
11745TIP3   OH256725   5.039   2.762  12.404 -0.2954 -0.5335  0.1655
11745TIP3    H156726   5.113   2.807  12.445  0.2637 -1.2429 -0.0506
11745TIP3    H256727   5.001   2.827  12.345 -0.6943  0.2887  1.2797
11746TIP3   OH256728   2.820   5.625   4.671 -0.0330 -0.3231 -0.0864
11746TIP3    H156729   2.878   5.639   4.746  0.1470  2.5414 -0.6185
11746TIP3    H256730   2.880   5.624   4.596 -0.3788 -1.0853 -0.3534
11747TIP3   OH256731   4.384   4.970   1.446  0.3303  0.3788  0.1455
11747TIP3    H156732   4.455   4.990   1.507  0.1075  0.6393  0.3214
11747TIP3    H256733   4.310   4.947   1.502  0.0774  0.7767 -0.0168
11748TIP3   OH256734   1.523   1.460  14.519 -0.3790 -0.2274 -0.6353
11748TIP3    H156735   1.578   1.533  14.547  1.3460 -0.9296 -1.9969
11748TIP3    H256736   1.433   1.493  14.528  0.2862  1.5292  0.1395
11749TIP3   OH256737   2.346   6.148  13.638  0.0850 -0.0300  0.5088
11749TIP3    H156738   2.395   6.111  13.565  2.4135  0.5645  1.6760
11749TIP3    H256739   2.334   6.240  13.616 -1.8544 -0.4332 -0.3950
11750TIP3   OH256740   1.500   1.758  12.201 -0.1035 -0.1788  0.2413
11750TIP3    H156741   1.571   1.797  12.150  0.1557  0.3452  0.9990
11750TIP3    H256742   1.421   1.784  12.154  0.0635  1.2333  0.6936
11751TIP3   OH256743   4.087   2.343   0.157  0.0886  0.6956 -0.2755
11751TIP3    H156744   4.047   2.338   0.071  2.0930 -0.4562 -1.2058
11751TIP3    H256745   4.152   2.272   0.158  1.4980  1.9140  1.4261
11752TIP3   OH256746   3.285   2.891   5.023 -0.3470  0.2396 -0.0642
11752TIP3    H156747   3.238   2.974   5.010 -1.1011 -0.0144  0.9191
11752TIP3    H256748   3.271   2.870   5.116  1.5247  0.0356  0.2181
11753TIP3   OH256749   0.719   2.619   2.766  0.4500  0.3646  0.0946
11753TIP3    H156750   0.790   2.556   2.782  0.3148  0.4119  0.9281
11753TIP3    H256751   0.758   2.705   2.783 -0.2493  0.3011  2.4154
11754TIP3   OH256752   3.057   1.045  15.739 -0.0383  0.0319  0.0389
11754TIP3    H156753   3.007   1.114  15.695 -2.9888 -1.9703 -0.0198
11754TIP3    H256754   3.121   1.017  15.674  0.1649  1.5742 -0.4864
11755TIP3   OH256755   4.626   1.100   6.104 -0.1104  0.2489 -0.4521
11755TIP3    H156756   4.668   1.153   6.172  3.2543  0.1880 -2.2420
11755TIP3    H256757   4.611   1.162   6.032  0.3840 -0.4790 -1.1987
11756TIP3   OH256758   6.558   0.195   6.360 -0.4694 -0.0618 -0.3046
11756TIP3    H156759   6.470   0.158   6.363 -0.1020 -0.8992  0.8835
11756TIP3    H256760   6.616   0.120   6.379  0.6165  0.1342 -2.5317
11757TIP3   OH256761   4.521   0.376   3.531  0.3411 -0.3529  0.2203
11757TIP3    H156762   4.606   0.363   3.489  0.6690 -2.4555  1.3764
11757TIP3    H256763   4.457   0.353   3.464  0.5521  2.4857 -1.0804
11758TIP3   OH256764   4.130   1.270  13.745 -0.0697  0.1205 -0.0880
11758TIP3    H156765   4.080   1.340  13.702  0.6457 -0.5112 -2.0559
11758TIP3    H256766   4.171   1.312  13.820  0.2265  1.7984 -1.1485
11759TIP3   OH256767   3.672   1.393  16.678 -0.2410  0.1478  0.1051
11759TIP3    H156768   3.591   1.343  16.678 -1.1641  1.5017 -1.6465
11759TIP3    H256769   3.685   1.420  16.769 -2.0726  0.3568  0.3301
11760TIP3   OH256770   1.522   5.006  13.487 -0.3193 -0.4278  0.0253
11760TIP3    H156771   1.517   4.986  13.393 -0.2047  2.9331 -0.8382
11760TIP3    H256772   1.564   5.092  13.491 -0.9225 -0.1499  3.1379
11761TIP3   OH256773   6.717   2.264  16.359 -0.3038 -0.2876  0.1995
11761TIP3    H156774   6.733   2.357  16.344 -0.8296 -0.3764 -1.0975
11761TIP3    H256775   6.800   2.229  16.391  0.1428  0.4658 -0.1303
11762TIP3   OH256776   3.623   3.507   4.639  0.0997 -0.4744  0.1287
11762TIP3    H156777   3.605   3.523   4.732 -0.5634  0.4845 -0.1546
11762TIP3    H256778   3.537   3.501   4.598  0.3966 -0.2425 -0.5372
11763TIP3   OH256779   2.453   0.358  13.123  0.6083 -0.4135  0.0097
11763TIP3    H156780   2.412   0.390  13.203  1.1435 -1.3103  0.6725
11763TIP3    H256781   2.425   0.419  13.055 -0.0606  0.2226  0.8323
11764TIP3   OH256782   5.433   0.940   5.464  0.6447 -0.6365 -0.2341
11764TIP3    H156783   5.414   1.026   5.502 -2.9292 -2.0384  1.5120
11764TIP3    H256784   5.519   0.917   5.500  0.8255  1.3486  0.7557
11765TIP3   OH256785   3.173   2.070  12.298  0.1092  0.2588  0.2699
11765TIP3    H156786   3.156   2.158  12.266  0.1786  0.2953  0.3326
11765TIP3    H256787   3.114   2.014  12.248  1.3203  0.1187 -1.0496
11766TIP3   OH256788   2.580   4.837  14.050  0.1094 -0.0126  0.1382
11766TIP3    H156789   2.652   4.899  14.059  0.5289 -0.4939  0.0937
11766TIP3    H256790   2.510   4.887  14.007  0.6913  0.2364 -0.5282
11767TIP3   OH256791   0.062   1.768   4.826  0.3403  0.5989  0.3299
11767TIP3    H156792   0.085   1.856   4.797  0.7561  0.5350  0.4537
11767TIP3    H256793   0.135   1.742   4.883 -0.1777  0.4953  0.9498
11768TIP3   OH256794   6.193   0.534  16.954  0.0213  0.2597  0.2832
11768TIP3    H156795   6.243   0.577  16.884  1.7687  2.2194  2.5651
11768TIP3    H256796   6.105   0.570  16.946  0.4554  1.2326 -0.3047
11769TIP3   OH256797   0.297   4.263  11.659 -0.1803 -0.0117 -0.6449
11769TIP3    H156798   0.363   4.205  11.698 -1.7062 -1.3367  0.0478
11769TIP3    H256799   0.303   4.344  11.709 -1.3940 -1.3208  1.7498
11770TIP3   OH256800   5.851   6.847  11.456  0.3505 -0.7868  0.0745
11770TIP3    H156801   5.936   6.844  11.501 -0.9351  3.5791  3.6442
11770TIP3    H256802   5.852   6.930  11.408 -2.3271  0.3030  1.6512
11771TIP3   OH256803   4.429   6.728  13.789 -0.1924 -0.3567 -0.0271
11771TIP3    H156804   4.418   6.655  13.851 -0.1360  0.8639  1.4981
11771TIP3    H256805   4.488   6.788  13.834  1.4331 -0.2949 -2.1293
11772TIP3   OH256806   4.855   1.508   3.276 -0.2730  0.7501 -0.6048
11772TIP3    H156807   4.925   1.470   3.223  0.6551  1.6024 -0.0321
11772TIP3    H256808   4.784   1.524   3.215 -0.3846 -1.0746 -1.0234
11773TIP3   OH256809   2.879   2.497   3.026  0.1436  0.4718 -0.1504
11773TIP3    H156810   2.816   2.432   3.057  1.7922 -0.3149  1.7575
11773TIP3    H256811   2.839   2.534   2.947 -2.1087 -0.8524  0.3003
11774TIP3   OH256812   2.758   5.711  11.167  0.0952 -0.0503 -0.2640
11774TIP3    H156813   2.807   5.651  11.111 -0.4198 -0.1314 -0.6315
11774TIP3    H256814   2.746   5.790  11.114  1.0952  0.5324  0.3502
11775TIP3   OH256815   0.047   3.140  12.594 -0.6479  0.0587 -0.2761
11775TIP3    H156816  -0.047   3.137  12.577 -0.7145 -0.6079  0.1626
11775TIP3    H256817   0.064   3.064  12.650  0.3948 -0.7692 -1.6207
11776TIP3   OH256818   6.676   3.042   4.262 -0.3134 -0.8245 -0.5006
11776TIP3    H156819   6.750   3.103   4.251 -0.6015 -0.4614 -0.4319
11776TIP3    H256820   6.718   2.956   4.270  0.1728 -0.5095  0.6003
11777TIP3   OH256821   1.795   6.478   5.287 -0.5034 -0.6297  0.0772
11777TIP3    H156822   1.719   6.430   5.251  0.5964 -0.8138 -2.2007
11777TIP3    H256823   1.870   6.441   5.241  1.0239 -0.4310  2.2535
11778TIP3   OH256824   6.243   0.087  15.068  0.3858  0.2302 -0.2858
11778TIP3    H156825   6.284   0.004  15.093  0.9382  0.5161 -0.2237
11778TIP3    H256826   6.225   0.130  15.152 -0.2060  0.0371 -0.3058
11779TIP3   OH256827   1.684   6.007   3.469 -0.0079  0.0773 -0.4263
11779TIP3    H156828   1.769   6.045   3.449 -0.7080  1.1894 -1.4606
11779TIP3    H256829   1.649   5.981   3.384 -0.2859 -1.3080  0.0949
11780TIP3   OH256830   5.631   4.756  13.126  0.2741 -0.2518 -0.4143
11780TIP3    H156831   5.639   4.785  13.217  1.2970 -2.0805  0.1181
11780TIP3    H256832   5.673   4.826  13.076  0.1380  0.5504  0.5477
11781TIP3   OH256833   4.999   2.408  15.365 -0.7409 -0.2369  0.2683
11781TIP3    H156834   4.957   2.353  15.299 -2.3151  0.8460  0.2966
11781TIP3    H256835   4.992   2.497  15.330  0.5702  0.0999  0.8106
11782TIP3   OH256836   4.908   6.495   2.737  0.5438  0.1484 -0.2747
11782TIP3    H156837   4.908   6.573   2.792 -2.2098 -0.2558  0.4699
11782TIP3    H256838   4.852   6.432   2.784  1.2789 -1.6526 -1.6706
11783TIP3   OH256839   1.979   5.949   3.621  0.1893  0.0919 -0.4920
11783TIP3    H156840   2.022   5.868   3.645  1.3548  0.7912 -0.1442
11783TIP3    H256841   1.891   5.923   3.595  0.4685 -1.2423 -0.1537
11784TIP3   OH256842   2.074   1.583  12.557 -0.3100 -0.1025 -0.1035
11784TIP3    H156843   2.019   1.609  12.482 -0.6049 -0.7107 -0.1014
11784TIP3    H256844   2.132   1.516  12.522  0.1539  0.2383  0.0019
11785TIP3   OH256845   0.946   4.911   4.430 -0.2030  0.3676 -0.0026
11785TIP3    H156846   1.006   4.971   4.475 -2.0899  0.0739  3.2200
11785TIP3    H256847   0.936   4.838   4.491 -1.8873 -0.7748 -1.5612
11786TIP3   OH256848   6.658   5.769   0.667 -0.3774 -0.2014  0.3053
11786TIP3    H156849   6.654   5.689   0.614  0.5983  1.2110 -2.0528
11786TIP3    H256850   6.742   5.809   0.644 -1.2291  1.9605  0.7075
11787TIP3   OH256851   6.776   0.526  11.829  0.0142  0.3684  0.1417
11787TIP3    H156852   6.709   0.512  11.762  0.3854  0.3377 -0.2349
11787TIP3    H256853   6.837   0.588  11.788 -0.0078  0.7208  0.6374
11788TIP3   OH256854   5.567   0.159  16.838 -0.4820  0.3457  0.1964
11788TIP3    H156855   5.529   0.229  16.890  0.0306 -0.2462  1.3863
11788TIP3    H256856   5.569   0.194  16.749 -1.8540  1.1723  0.4632
11789TIP3   OH256857   3.000   4.107   2.896  0.3507 -0.5769  0.6727
11789TIP3    H156858   3.051   4.045   2.947  0.3828 -0.8812  0.2738
11789TIP3    H256859   2.919   4.120   2.947  0.7163 -0.2765  1.1846
11790TIP3   OH256860   5.807   1.349   3.155  0.3012 -1.1363  0.2841
11790TIP3    H156861   5.844   1.404   3.224  0.1201  1.7372 -1.7449
11790TIP3    H256862   5.717   1.333   3.183  0.2788 -0.1508  0.8304
11791TIP3   OH256863   1.413   0.231   2.201  0.2308 -0.2597 -1.1875
11791TIP3    H156864   1.494   0.211   2.155  1.2990  0.5598  0.2595
11791TIP3    H256865   1.371   0.298   2.148  0.4362 -0.7614 -2.0026
11792TIP3   OH256866   5.120   3.899   4.655  0.0780  0.0593 -0.0791
11792TIP3    H156867   5.146   3.813   4.687  0.1321  0.0293 -0.2033
11792TIP3    H256868   5.174   3.914   4.577 -0.1604  0.0653 -0.2453
11793TIP3   OH256869   0.506   0.280   3.800 -0.8715  0.3342 -0.0268
11793TIP3    H156870   0.517   0.342   3.728 -3.3421  0.4435 -0.3790
11793TIP3    H256871   0.452   0.210   3.763 -0.0015 -0.9271  1.0043
11794TIP3   OH256872   0.450   5.677  12.114 -0.5077 -0.4279  0.1762
11794TIP3    H156873   0.523   5.730  12.146 -0.0730 -0.7511 -0.2544
11794TIP3    H256874   0.434   5.612  12.183 -0.2510 -0.4803  0.1878
11795TIP3   OH256875   2.967   5.951   4.786 -0.3709 -0.0279  0.0337
11795TIP3    H156876   2.897   5.984   4.730  0.5289 -1.1643 -1.8781
11795TIP3    H256877   3.048   5.978   4.742  0.3708 -1.0935  0.6968
11796TIP3   OH256878   1.003   1.745   4.287  0.3600 -0.2201 -0.1187
11796TIP3    H156879   1.038   1.824   4.247  0.7732  0.8539  2.1805
11796TIP3    H256880   1.009   1.678   4.219  1.7782  1.2609 -1.5300
11797TIP3   OH256881   4.105   5.817  12.528  0.1133 -0.4898  0.2543
11797TIP3    H156882   4.073   5.730  12.551 -1.5870  0.5930  2.3114
11797TIP3    H256883   4.026   5.867  12.507  1.1075  0.4439 -1.4905
11798TIP3   OH256884   2.828   5.390   0.244 -0.1629  1.0951 -0.0613
11798TIP3    H156885   2.896   5.387   0.176 -0.1971  1.6338 -0.1233
11798TIP3    H256886   2.839   5.308   0.291 -1.2666 -0.1063 -1.7848
11799TIP3   OH256887   3.862   3.587   9.981 -0.0687  0.6207  0.1115
11799TIP3    H156888   3.865   3.640  10.061 -0.8990  0.2555  0.3887
11799TIP3    H256889   3.776   3.547   9.981  0.4642 -0.5659 -0.2201
11800TIP3   OH256890   0.506   3.537   0.717 -0.1384  0.0364 -0.0681
11800TIP3    H156891   0.593   3.559   0.683  0.6674  1.5240  2.6774
11800TIP3    H256892   0.524   3.483   0.794 -1.6397  0.1504  0.3818
11801TIP3   OH256893   3.750   0.913  16.784  0.6272  0.3055 -0.6031
11801TIP3    H156894   3.796   0.983  16.738  1.2365 -0.7727 -1.6968
11801TIP3    H256895   3.697   0.958  16.849  1.0103  1.7784 -1.2642
11802TIP3   OH256896   6.023   3.115   4.291 -0.0956  0.4790 -0.2686
11802TIP3    H156897   5.979   3.200   4.291 -1.7053 -0.3001 -1.0566
11802TIP3    H256898   5.994   3.073   4.373  3.1541  1.7979  1.7347
11803TIP3   OH256899   4.900   3.921  12.741  0.0527 -0.5011 -0.2156
11803TIP3    H156900   4.878   4.012  12.759  1.7226  0.4748 -2.5640
11803TIP3    H256901   4.843   3.870  12.798 -0.1868  2.0153  1.9516
11804TIP3   OH256902   1.407   5.939  13.055  0.3577 -0.5937 -0.3370
11804TIP3    H156903   1.431   6.009  12.994  1.2134 -2.4574 -2.2653
11804TIP3    H256904   1.489   5.917  13.100  0.4013 -1.1774 -0.6825
11805TIP3   OH256905   5.290   3.428   4.034 -0.0694  0.0542 -0.2517
11805TIP3    H156906   5.248   3.389   3.957 -1.4548 -0.7050  0.8600
11805TIP3    H256907   5.247   3.387   4.109  0.2270  1.8529  0.9555
11806TIP3   OH256908   2.539   3.037   6.755  0.3616  0.0220  0.3269
11806TIP3    H156909   2.621   3.018   6.709  0.1476 -0.5105  0.1591
11806TIP3    H256910   2.565   3.046   6.846  0.6240 -0.0267  0.2591
11807TIP3   OH256911   0.399   0.157   0.966  0.0150 -0.2334 -0.0832
11807TIP3    H156912   0.368   0.208   1.041 -0.1990 -0.1110 -0.2541
11807TIP3    H256913   0.367   0.204   0.889 -0.0535 -0.5402 -0.2456
11808TIP3   OH256914   4.010   6.342   3.322 -0.4127 -0.0017 -0.3838
11808TIP3    H156915   3.940   6.332   3.257  0.7959 -0.3047 -1.6752
11808TIP3    H256916   4.026   6.437   3.326  0.1394 -0.0573 -1.2177
11809TIP3   OH256917   4.029   5.836   2.180 -0.0234  1.1887 -0.0890
11809TIP3    H156918   4.032   5.931   2.171 -1.8560  1.1614 -1.5445
11809TIP3    H256919   3.936   5.814   2.177  0.4268 -0.8433 -2.2718
11810TIP3   OH256920   3.921   0.013   0.757  0.3543 -0.3363 -0.3187
11810TIP3    H156921   3.827  -0.002   0.761  0.6873 -3.0597 -0.9105
11810TIP3    H256922   3.940   0.024   0.664  0.2977  3.5687 -0.0351
11811TIP3   OH256923   4.065   3.918   3.314  0.0514 -0.2191 -0.2108
11811TIP3    H156924   4.040   3.990   3.372  0.6178  2.8433 -3.4605
11811TIP3    H256925   3.984   3.896   3.267  0.3197 -0.4051 -0.5838
11812TIP3   OH256926   0.332   2.339  14.398  0.0360  0.3106 -0.3989
11812TIP3    H156927   0.379   2.419  14.424  0.1772 -0.1099  0.6799
11812TIP3    H256928   0.249   2.371  14.363  1.3027  1.1024 -2.9048
11813TIP3   OH256929   0.179   4.762  16.038  0.6584 -0.1155 -0.0980
11813TIP3    H156930   0.141   4.746  15.952  0.7750 -0.9319  0.0008
11813TIP3    H256931   0.209   4.853  16.034 -0.3973  0.2339 -0.5124
11814TIP3   OH256932   2.767   5.367   5.030  0.0027 -0.7249  0.5602
11814TIP3    H156933   2.779   5.400   5.119  0.9821 -0.1375  0.2272
11814TIP3    H256934   2.718   5.436   4.985 -0.3670 -0.9570  0.6073
11815TIP3   OH256935   2.922   6.266  15.457 -0.3540 -0.2198  0.5123
11815TIP3    H156936   2.835   6.229  15.475  0.2282 -2.1535 -0.3404
11815TIP3    H256937   2.980   6.221  15.518  0.2208  0.1821  0.2726
11816TIP3   OH256938   2.427   2.486  14.052  0.1237 -0.2991  0.0862
11816TIP3    H156939   2.407   2.579  14.042  0.1647 -0.2443  0.5256
11816TIP3    H256940   2.355   2.451  14.104 -0.5960 -0.7898 -1.1949
11817TIP3   OH256941   1.173   1.975  14.686 -0.3490  0.2789  0.1906
11817TIP3    H156942   1.210   2.063  14.692  2.0885 -0.6330 -0.2311
11817TIP3    H256943   1.226   1.932  14.620 -1.1692 -1.6677  0.7406
11818TIP3   OH256944   0.118   6.847   1.412  0.1885  0.4122  0.1725
11818TIP3    H156945   0.088   6.816   1.498 -0.8459 -0.3833 -0.4518
11818TIP3    H256946   0.184   6.914   1.432 -0.0308  0.2333  1.5813
11819TIP3   OH256947   2.375   6.412   2.304 -0.0644 -0.2165 -0.2616
11819TIP3    H156948   2.286   6.393   2.334 -0.2374  0.5007 -0.2982
11819TIP3    H256949   2.402   6.332   2.258  0.3416 -1.4899  2.0211
11820TIP3   OH256950   1.036   2.698   1.688 -0.4858  0.0311  0.0166
11820TIP3    H156951   1.021   2.614   1.645  0.5014 -0.5756  0.8296
11820TIP3    H256952   1.069   2.755   1.618  0.6564 -0.8088 -0.1584
11821TIP3   OH256953   3.104   2.668  13.564  0.4546 -0.7544 -0.3362
11821TIP3    H156954   3.016   2.645  13.534  0.4922 -0.6793 -0.5063
11821TIP3    H256955   3.162   2.611  13.513  0.8040  1.9321 -3.2763
11822TIP3   OH256956   2.668   1.654   5.263  0.1560  0.3840  0.1021
11822TIP3    H156957   2.707   1.567   5.275 -1.6144 -0.6602 -1.1920
11822TIP3    H256958   2.692   1.679   5.174 -0.6525  0.4873 -0.0989
11823TIP3   OH256959   3.507   3.313  11.810  0.8662  1.0460  0.1005
11823TIP3    H156960   3.426   3.298  11.762  0.7491  3.4632 -0.5718
11823TIP3    H256961   3.546   3.390  11.770  3.0796  0.4959  0.9919
11824TIP3   OH256962   1.091   2.470  10.494 -0.6002  0.3463 -0.0764
11824TIP3    H156963   1.004   2.507  10.483 -0.2521  1.1037 -0.3931
11824TIP3    H256964   1.127   2.467  10.405 -0.2729  0.1211  0.0615
11825TIP3   OH256965   3.684   1.768   3.039  0.4487  0.4722 -0.1645
11825TIP3    H156966   3.602   1.795   2.997  0.5390  0.3202 -0.4372
11825TIP3    H256967   3.669   1.677   3.063  1.1649 -0.1147 -1.7982
11826TIP3   OH256968   1.427   4.151   3.997  0.3220 -0.0761 -0.0810
11826TIP3    H156969   1.517   4.140   4.029  0.1428 -1.0050  0.1341
11826TIP3    H256970   1.384   4.069   4.019 -1.3661  1.3283  2.3053
11827TIP3   OH256971   3.478   0.430  15.973 -0.3718  0.7411  0.1145
11827TIP3    H156972   3.523   0.514  15.969  0.0907  0.5042  0.4054
11827TIP3    H256973   3.470   0.411  16.066 -0.2291  0.3269  0.0420
11828TIP3   OH256974   3.913   3.454   5.664 -0.0839  0.0875 -0.5428
11828TIP3    H156975   3.841   3.506   5.629 -1.2171 -0.6733  0.5908
11828TIP3    H256976   3.938   3.398   5.590 -0.7223  0.2857 -0.9240
11829TIP3   OH256977   1.115   0.638  16.822 -0.0046 -0.2390 -0.4902
11829TIP3    H156978   1.070   0.563  16.859 -0.2806 -0.6928 -1.7001
11829TIP3    H256979   1.084   0.713  16.874 -1.8229 -0.6041 -1.0124
11830TIP3   OH256980   6.237   1.636  16.738 -0.0884 -0.5403  0.4011
11830TIP3    H156981   6.323   1.597  16.718  0.6442  1.3248 -0.3105
11830TIP3    H256982   6.256   1.728  16.754 -1.7349 -0.4604  2.1920
11831TIP3   OH256983   4.802   3.321   0.520  0.3317 -0.9356  0.3766
11831TIP3    H156984   4.833   3.319   0.429  0.9559 -1.6329  0.5993
11831TIP3    H256985   4.709   3.344   0.513 -0.0958 -2.7680 -0.5569
11832TIP3   OH256986   0.585   4.485   4.809 -0.3181  0.5855  0.1796
11832TIP3    H156987   0.602   4.579   4.809 -1.0325  0.7331 -1.0583
11832TIP3    H256988   0.669   4.445   4.830  0.5690  1.4396 -1.5227
11833TIP3   OH256989   0.726   3.763  10.671  0.0161  0.0813 -0.3941
11833TIP3    H156990   0.644   3.811  10.660 -0.9740 -1.6275 -0.9975
11833TIP3    H256991   0.768   3.769  10.585  1.0914  1.8814  0.2271
11834TIP3   OH256992   2.615   5.351   1.142  0.1628 -0.7212 -1.0475
11834TIP3    H156993   2.565   5.367   1.223  1.0586 -2.0660 -0.1813
11834TIP3    H256994   2.554   5.372   1.072 -0.8314 -0.0392 -0.0226
11835TIP3   OH256995   0.528   2.289   4.552 -0.5265  0.2113  0.0563
11835TIP3    H156996   0.470   2.243   4.491 -0.7351 -0.4724  0.7576
11835TIP3    H256997   0.472   2.353   4.596 -0.4984  0.3236 -0.0709
11836TIP3   OH256998   4.395   5.714  17.097 -0.2714  0.6464 -0.3165
11836TIP3    H156999   4.366   5.796  17.135 -0.5061  0.8241 -0.8752
11836TIP3    H257000   4.490   5.725  17.086 -0.0747  0.3212  0.8677
11837TIP3   OH257001   3.724   5.918   0.256  0.1550  0.3783 -0.0733
11837TIP3    H157002   3.696   5.836   0.216 -0.3553  0.6660 -0.3055
11837TIP3    H257003   3.746   5.894   0.347  0.6852 -0.1431 -0.3330
11838TIP3   OH257004   1.334   4.943  15.533  0.0882 -0.0219  0.2683
11838TIP3    H157005   1.399   4.926  15.464  0.3323  1.3390  0.1266
11838TIP3    H257006   1.386   4.946  15.613  0.5454  2.7823 -0.0408
11839TIP3   OH257007   4.786   5.589  15.506 -0.7317 -0.7113  0.0870
11839TIP3    H157008   4.767   5.495  15.503  0.7289 -1.0110 -1.2471
11839TIP3    H257009   4.734   5.627  15.435 -0.6098 -0.6662  0.0213
11840TIP3   OH257010   3.779   2.277  12.860  0.0404 -0.4890  0.1741
11840TIP3    H157011   3.762   2.188  12.827 -0.3532  0.5574 -2.7505
11840TIP3    H257012   3.809   2.264  12.950 -2.3424 -3.4179  0.7171
11841TIP3   OH257013   0.546   2.821  13.682  0.2125  0.3808  0.2140
11841TIP3    H157014   0.518   2.856  13.767 -0.5105 -1.4547  0.7672
11841TIP3    H257015   0.475   2.846  13.622  0.1678  0.6912  0.3915
11842TIP3   OH257016   4.846   1.303  11.436 -0.0439 -0.3718 -0.1017
11842TIP3    H157017   4.883   1.233  11.383 -0.9568  0.0491 -1.3370
11842TIP3    H257018   4.762   1.269  11.467  0.4037 -0.5534  0.9768
11843TIP3   OH257019   2.342   0.756   2.977  0.0593  0.0600  0.1016
11843TIP3    H157020   2.260   0.718   2.946  0.4257 -0.0772 -0.7435
11843TIP3    H257021   2.316   0.829   3.032 -0.6331 -0.2854  0.2432
11844TIP3   OH257022   4.217   6.025   3.495 -0.7989 -0.1023  0.1822
11844TIP3    H157023   4.275   6.061   3.428 -0.2507 -0.8458  0.2431
11844TIP3    H257024   4.231   5.930   3.490 -0.8188 -0.1730  1.2874
11845TIP3   OH257025   1.772   0.355  16.585  0.4417  0.4656  0.5524
11845TIP3    H157026   1.822   0.427  16.623  0.3380 -0.1840  2.0371
11845TIP3    H257027   1.817   0.276  16.617 -1.1634 -0.1333  1.4787
11846TIP3   OH257028   4.804   0.035   5.426 -0.0216  0.0887 -0.2396
11846TIP3    H157029   4.841   0.066   5.344  1.0454  0.9769  0.5440
11846TIP3    H257030   4.871  -0.024   5.461  0.6514  1.5886  1.1213
11847TIP3   OH257031   2.538   4.842   3.413  0.1147  0.4751  0.2167
11847TIP3    H157032   2.549   4.762   3.361  1.0502  0.4357  0.4592
11847TIP3    H257033   2.588   4.826   3.492 -1.9722  0.1945  1.5602
11848TIP3   OH257034   3.685   6.625  13.999 -0.8424  0.2192  0.3260
11848TIP3    H157035   3.693   6.538  13.959 -0.0475  0.9764 -1.2523
11848TIP3    H257036   3.692   6.609  14.093  1.3311 -1.2397 -0.0119
11849TIP3   OH257037   2.526   3.736   4.984  0.2484  0.3918 -0.4073
11849TIP3    H157038   2.586   3.687   5.041 -0.2195  0.5960  0.2855
11849TIP3    H257039   2.577   3.812   4.955  0.6842 -0.0256 -0.7479
11850TIP3   OH257040   6.112   1.809   1.140 -0.4180  0.1443 -1.2437
11850TIP3    H157041   6.087   1.863   1.065 -0.1497  1.0946 -0.6613
11850TIP3    H257042   6.071   1.724   1.123 -2.2901  1.0201 -1.3559
11851TIP3   OH257043   6.329   5.161   2.128 -0.0126  0.8021 -0.5828
11851TIP3    H157044   6.348   5.254   2.123  3.8972  0.1097 -1.9463
11851TIP3    H257045   6.360   5.125   2.045  0.0642 -1.9122  0.5161
11852TIP3   OH257046   1.102   1.441   2.216 -0.0500 -0.0589 -0.7829
11852TIP3    H157047   1.095   1.446   2.312  1.6694 -3.5287 -0.3392
11852TIP3    H257048   1.012   1.442   2.186 -0.6617  0.4020  0.9078
11853TIP3   OH257049   0.081   0.046   1.092 -0.3812  0.5385  0.3784
11853TIP3    H157050   0.059   0.059   1.184  3.2156 -0.4105  1.5376
11853TIP3    H257051   0.177   0.041   1.091 -0.1109  2.6507 -3.7604
11854TIP3   OH257052   2.101   1.491  14.169  0.1057  0.2751 -0.5160
11854TIP3    H157053   2.008   1.502  14.155  0.0924  1.3854  0.3423
11854TIP3    H257054   2.111   1.398  14.192 -0.7924  0.1810 -0.4857
11855TIP3   OH257055   3.946   1.001   5.926  0.0531 -0.3105 -0.5537
11855TIP3    H157056   3.928   0.922   5.978 -1.9072 -0.8148 -1.8856
11855TIP3    H257057   3.869   1.057   5.940  1.5282  1.5487  0.5769
11856TIP3   OH257058   6.653   5.975  13.360  0.4670 -0.0059  0.3251
11856TIP3    H157059   6.564   5.947  13.383 -0.3061  0.2357 -2.1697
11856TIP3    H257060   6.708   5.900  13.381 -0.8607 -1.5384 -1.4053
11857TIP3   OH257061   2.262   6.179   0.832  0.4694  0.6405  0.2510
11857TIP3    H157062   2.175   6.168   0.794  1.2060 -0.8195 -1.1400
11857TIP3    H257063   2.248   6.175   0.926 -0.8359 -0.9469  0.0226
11858TIP3   OH257064   3.612   5.896   3.524 -0.0040 -0.2958  0.1932
11858TIP3    H157065   3.640   5.979   3.563  1.3101  0.1124 -1.4801
11858TIP3    H257066   3.517   5.895   3.533  0.1421  0.3607  2.1741
11859TIP3   OH257067   5.458   2.804   2.530 -0.0007  0.0225 -0.0846
11859TIP3    H157068   5.450   2.855   2.610  1.2363  0.9323 -0.5288
11859TIP3    H257069   5.535   2.748   2.544 -1.3083 -1.7680  0.3895
11860TIP3   OH257070   0.845   3.110   1.230  0.3313  0.1209  0.5832
11860TIP3    H157071   0.779   3.163   1.274  0.2174  1.4582 -1.1102
11860TIP3    H257072   0.920   3.110   1.289  0.1598  1.7809  0.8308
11861TIP3   OH257073   3.402   3.940  12.877  0.7410 -0.6606  0.1111
11861TIP3    H157074   3.342   4.006  12.843  1.6446 -0.6538 -1.5674
11861TIP3    H257075   3.463   3.990  12.932 -1.1962 -0.7850  2.5467
11862TIP3   OH257076   1.910   2.577   1.977  0.0207 -0.4029 -0.1203
11862TIP3    H157077   1.942   2.501   1.929  0.3010  0.5708 -1.5462
11862TIP3    H257078   1.820   2.589   1.946  0.9267  1.6034 -2.3025
11863TIP3   OH257079   2.854   1.087  14.318  0.0636 -0.0325 -0.0414
11863TIP3    H157080   2.838   1.135  14.237  1.1698 -0.9752 -0.8487
11863TIP3    H257081   2.791   1.014  14.315 -1.0606  0.8661  0.7961
11864TIP3   OH257082   5.446   5.310   2.651 -0.2688 -0.4016  0.3090
11864TIP3    H157083   5.363   5.313   2.602  0.1704  0.1793 -0.4190
11864TIP3    H257084   5.439   5.231   2.705 -0.8231 -0.9950 -0.5976
11865TIP3   OH257085   2.084   3.870  10.558  0.5400 -0.7991  0.1213
11865TIP3    H157086   2.042   3.877  10.472 -0.8411 -1.1379  0.7452
11865TIP3    H257087   2.096   3.960  10.587  0.1730 -0.7029 -0.0330
11866TIP3   OH257088   4.600   6.061  11.755  0.2034 -0.2988  0.2750
11866TIP3    H157089   4.572   5.970  11.760 -0.4978 -0.0216  1.7393
11866TIP3    H257090   4.693   6.056  11.731  0.2746 -1.3997  0.7360
11867TIP3   OH257091   4.412   5.282  10.957  0.2170 -0.4989 -0.2594
11867TIP3    H157092   4.327   5.269  10.914 -0.4802  0.7503  0.6930
11867TIP3    H257093   4.415   5.375  10.978  1.1237 -0.8071  1.1565
11868TIP3   OH257094   4.238   4.682  14.045  0.0909  0.0069 -0.3517
11868TIP3    H157095   4.250   4.610  13.984  0.3395 -1.0502  0.9042
11868TIP3    H257096   4.187   4.645  14.117 -0.2309  1.2274  0.0902
11869TIP3   OH257097   6.520   6.703  16.679  0.1456  0.1653 -0.3621
11869TIP3    H157098   6.506   6.784  16.729 -0.5967  0.1876 -0.5838
11869TIP3    H257099   6.566   6.731  16.600 -1.0830  0.5708 -0.9690
11870TIP3   OH257100   3.876   0.047   4.430 -0.3974  0.4586 -0.6552
11870TIP3    H157101   3.932   0.052   4.352 -1.8236 -1.7386 -1.9171
11870TIP3    H257102   3.938   0.034   4.502  0.8291  0.2376 -1.6996
11871TIP3   OH257103   4.315   2.237  14.815  0.2562 -0.1213  0.3030
11871TIP3    H157104   4.374   2.303  14.850 -0.9507  0.6961  0.8844
11871TIP3    H257105   4.227   2.270  14.835 -0.4254 -0.9472 -1.1403
11872TIP3   OH257106   0.735   5.906   1.469  0.3206  0.3155 -0.4102
11872TIP3    H157107   0.646   5.870   1.474 -0.0920  1.1206 -1.4684
11872TIP3    H257108   0.787   5.852   1.528 -0.4513 -1.4264 -1.2781
11873TIP3   OH257109   0.119   6.161   1.587 -0.3536 -0.0412 -0.2649
11873TIP3    H157110   0.163   6.125   1.510  0.2996 -0.4100  0.2660
11873TIP3    H257111   0.152   6.108   1.660 -0.7872  0.4518  0.2950
11874TIP3   OH257112   5.388   0.317  16.170 -0.4076  0.4175 -0.1558
11874TIP3    H157113   5.468   0.326  16.222 -0.8299 -1.0156  0.8006
11874TIP3    H257114   5.320   0.356  16.224 -0.6249  0.1641 -0.2444
11875TIP3   OH257115   5.128   2.023  12.768 -0.3710  0.1620  0.0005
11875TIP3    H157116   5.135   2.065  12.854 -1.3649  0.1512  0.1029
11875TIP3    H257117   5.199   2.060  12.717 -0.1267  0.6055  0.6548
11876TIP3   OH257118   5.686   3.603  15.822 -0.1664  0.5783 -0.9438
11876TIP3    H157119   5.662   3.644  15.738 -0.5691 -0.4585 -1.3479
11876TIP3    H257120   5.611   3.547  15.843  1.0829 -1.3224 -1.3108
11877TIP3   OH257121   0.916   3.788   0.048 -0.6404 -0.4441  0.5347
11877TIP3    H157122   0.897   3.835  -0.033  1.7852  0.5750  0.4807
11877TIP3    H257123   0.862   3.709   0.044 -0.8680 -0.2173 -1.8713
11878TIP3   OH257124   3.975   6.226  16.970 -0.5029  0.0966 -0.0939
11878TIP3    H157125   4.047   6.186  16.921 -0.2462 -0.9199  1.0718
11878TIP3    H257126   3.963   6.311  16.928  1.8305  0.5948  0.0838
11879TIP3   OH257127   2.473   2.903   3.416 -0.7492 -0.0214 -0.1441
11879TIP3    H157128   2.504   2.975   3.469 -0.2377 -1.6129  1.8489
11879TIP3    H257129   2.518   2.913   3.332  0.6202  0.9920  0.6787
11880TIP3   OH257130   4.942   2.979   3.407 -0.3967 -0.3318  0.5117
11880TIP3    H157131   5.022   2.946   3.447 -0.5198 -2.2439 -0.6729
11880TIP3    H257132   4.971   3.049   3.349  0.8228 -2.5231 -1.6917
11881TIP3   OH257133   0.809   1.809   3.446  0.7097 -0.4737 -0.3127
11881TIP3    H157134   0.841   1.761   3.522  2.3128  0.7245 -0.1623
11881TIP3    H257135   0.885   1.858   3.415 -0.0689 -0.3924 -2.2898
11882TIP3   OH257136   0.492   3.590   5.323 -0.6001 -0.2059  0.9604
11882TIP3    H157137   0.506   3.675   5.282 -3.1048 -0.3068 -0.2436
11882TIP3    H257138   0.480   3.610   5.416 -0.9700  0.7241  0.7193
11883TIP3   OH257139   6.287   4.143  15.789 -0.9175  0.5298  0.5917
11883TIP3    H157140   6.302   4.227  15.746 -0.4111  0.2623  0.2287
11883TIP3    H257141   6.355   4.086  15.754 -1.5577 -0.1737  0.4523
11884TIP3   OH257142   4.093   4.740  16.625 -0.6304  0.0913  0.0649
11884TIP3    H157143   4.136   4.802  16.683 -0.1683 -1.0779  1.0104
11884TIP3    H257144   4.016   4.711  16.673 -0.4320 -0.6307 -0.0366
11885TIP3   OH257145   5.549   1.374   5.017 -0.0312 -0.4020 -1.0100
11885TIP3    H157146   5.636   1.397   4.986  0.5782  0.8749  1.4692
11885TIP3    H257147   5.520   1.449   5.068 -2.3468 -1.0571 -1.2255
11886TIP3   OH257148   2.543   4.553  12.937 -0.8564  0.0745  0.3977
11886TIP3    H157149   2.621   4.531  12.986  0.0153 -1.6549 -1.6141
11886TIP3    H257150   2.575   4.580  12.851 -2.4409 -0.3651 -0.3707
11887TIP3   OH257151   6.373   0.911   4.894  0.0622 -0.7312 -0.4405
11887TIP3    H157152   6.429   0.988   4.893 -0.5612 -0.2615  0.1215
11887TIP3    H257153   6.424   0.843   4.849  0.1729  0.3079 -1.9775
11888TIP3   OH257154   4.297   5.985  13.454 -0.7529 -0.2786 -0.3669
11888TIP3    H157155   4.302   5.931  13.375  1.6070  0.3330 -0.7152
11888TIP3    H257156   4.247   6.062  13.427  0.5017  0.1916 -1.5085
11889TIP3   OH257157   1.647   0.526   2.425  0.0248 -0.5421 -0.6760
11889TIP3    H157158   1.661   0.541   2.332 -2.2070  2.0673 -0.7307
11889TIP3    H257159   1.735   0.512   2.461  1.0877 -0.1221 -2.9332
11890TIP3   OH257160   2.717   1.301   1.488 -0.4285  0.4072 -0.6106
11890TIP3    H157161   2.797   1.302   1.436  0.0603 -0.8577  0.0723
11890TIP3    H257162   2.735   1.361   1.561 -0.5770  1.0726 -1.1152
11891TIP3   OH257163   5.224   3.801   4.416  0.0976  0.5100  0.5173
11891TIP3    H157164   5.208   3.715   4.455 -0.6502  1.4928  2.4754
11891TIP3    H257165   5.155   3.812   4.351  0.8460 -0.7870 -0.5531
11892TIP3   OH257166   2.341   0.708   4.577  0.6029  0.0840  0.1008
11892TIP3    H157167   2.286   0.778   4.541  1.9443  1.2725  0.2830
11892TIP3    H257168   2.385   0.747   4.652 -0.0076 -1.5330  1.3598
11893TIP3   OH257169   0.717   4.707  16.418  0.3229 -0.6619  0.0892
11893TIP3    H157170   0.640   4.680  16.469 -0.3168  2.0298  0.6824
11893TIP3    H257171   0.784   4.726  16.483  0.5174 -0.1395 -0.2618
11894TIP3   OH257172   0.466   4.768  12.702  0.1714 -0.5231  0.3422
11894TIP3    H157173   0.514   4.685  12.709 -0.5409 -1.1172 -1.3561
11894TIP3    H257174   0.532   4.832  12.674  0.5179 -0.7241  0.6858
11895TIP3   OH257175   4.875   3.057  16.724 -0.0307  0.3166  0.3459
11895TIP3    H157176   4.851   3.149  16.725 -0.8820  0.1098  0.6318
11895TIP3    H257177   4.960   3.054  16.681  0.3950  1.3203  1.0760
11896TIP3   OH257178   1.995   2.366   5.585  0.5269  0.1958 -0.3684
11896TIP3    H157179   2.078   2.346   5.627 -0.3913  0.1689  1.5465
11896TIP3    H257180   2.009   2.452   5.543  1.5375  0.1195 -0.1985
11897TIP3   OH257181   1.104   5.971  16.720 -0.0412 -0.1371  0.1610
11897TIP3    H157182   1.010   5.988  16.711 -0.0172 -0.1738 -0.1564
11897TIP3    H257183   1.137   6.047  16.768 -0.0238  0.4674 -0.8030
11898TIP3   OH257184   5.845   1.426  14.563  0.7467  0.6481 -0.3339
11898TIP3    H157185   5.823   1.364  14.493 -1.2560  1.2941 -0.3485
11898TIP3    H257186   5.824   1.512  14.525 -0.4554  1.0001  1.0396
11899TIP3   OH257187   6.567   6.192   5.921 -0.1032 -0.5409 -0.0747
11899TIP3    H157188   6.590   6.209   6.013 -0.8225 -2.5389  0.5440
11899TIP3    H257189   6.527   6.105   5.923 -2.0253  0.2247 -1.9888
11900TIP3   OH257190   6.298   0.602   4.366  0.2213  0.2325  0.6194
11900TIP3    H157191   6.222   0.651   4.399  0.2502 -0.1640  1.2993
11900TIP3    H257192   6.268   0.564   4.284  0.3165  1.7064 -0.1404
11901TIP3   OH257193   6.532   5.024  16.679  0.0251  0.7623  0.4984
11901TIP3    H157194   6.465   5.091  16.672 -0.9741  0.0316  2.3606
11901TIP3    H257195   6.486   4.947  16.713  1.1093 -0.9460 -1.6352
11902TIP3   OH257196   4.769   4.698  16.474 -0.0295 -0.0075  0.3177
11902TIP3    H157197   4.699   4.639  16.447  0.9676 -0.4963 -1.3029
11902TIP3    H257198   4.780   4.758  16.400  2.3458 -0.9601 -0.1911
11903TIP3   OH257199   0.992   6.152  12.389  0.0669  0.4892 -0.5873
11903TIP3    H157200   0.964   6.062  12.370  1.4214 -0.7310  2.6423
11903TIP3    H257201   0.910   6.201  12.396 -0.7368 -0.6555 -1.5723
11904TIP3   OH257202   0.521   4.582   3.308 -0.0698 -0.4311  0.7427
11904TIP3    H157203   0.476   4.510   3.264 -0.7810 -0.2401  1.1408
11904TIP3    H257204   0.555   4.636   3.236 -0.6815 -0.4517  0.4268
11905TIP3   OH257205   4.924   6.596  13.449  0.5535 -0.1771 -0.3407
11905TIP3    H157206   4.996   6.614  13.509  0.9586 -0.6553 -0.6730
11905TIP3    H257207   4.949   6.515  13.404 -0.9366 -1.2600  0.6867
11906TIP3   OH257208   0.249   3.578   5.672 -0.4332 -0.5047 -0.3811
11906TIP3    H157209   0.339   3.572   5.640  0.1019 -0.4385  1.0558
11906TIP3    H257210   0.217   3.662   5.638  0.5362  0.1453  0.2793
11907TIP3   OH257211   3.745   2.825   0.840  0.3621 -0.3691  0.4142
11907TIP3    H157212   3.774   2.741   0.804 -0.0955 -0.3292 -0.0775
11907TIP3    H257213   3.824   2.867   0.873  0.8378 -0.3452 -0.7093
11908TIP3   OH257214   4.469   6.290  14.184  0.5967 -0.5803 -0.3579
11908TIP3    H157215   4.499   6.371  14.226  0.2643 -0.1549 -0.9286
11908TIP3    H257216   4.503   6.220  14.240 -0.0041 -0.0261  0.7373
11909TIP3   OH257217   6.301   3.605  16.132 -0.1048  0.1935 -0.1026
11909TIP3    H157218   6.342   3.529  16.174  1.3374  0.5562 -0.7999
11909TIP3    H257219   6.211   3.578  16.115  0.1579 -1.0568  0.4174
11910TIP3   OH257220   1.794   6.311   3.738  0.9465  0.0805 -0.6696
11910TIP3    H157221   1.782   6.278   3.649 -1.8465  0.9160 -0.6882
11910TIP3    H257222   1.743   6.392   3.741 -0.3070 -0.7102  2.0910
11911TIP3   OH257223   2.017   1.609  10.685  0.2702 -0.3760 -0.0129
11911TIP3    H157224   2.003   1.704  10.678  3.2213  0.2176  0.5562
11911TIP3    H257225   2.072   1.588  10.609  2.1048 -0.9684  1.3926
11912TIP3   OH257226   2.674   0.563   0.327  0.0949 -0.2395  0.3843
11912TIP3    H157227   2.608   0.558   0.258 -0.3389  0.8240  0.7085
11912TIP3    H257228   2.739   0.496   0.302  0.3550  0.6299 -1.4782
11913TIP3   OH257229   2.518   2.276  10.331  0.5278 -0.8078  0.0665
11913TIP3    H157230   2.539   2.275  10.425  0.0458  1.1779  0.2523
11913TIP3    H257231   2.423   2.265  10.327  0.2366  1.2496  0.0177
11914TIP3   OH257232   5.953   6.329  16.281 -0.1219  0.1840 -0.1957
11914TIP3    H157233   5.907   6.371  16.354  1.3818  0.3604  0.6957
11914TIP3    H257234   5.888   6.326  16.211 -0.6674  3.0245  0.0331
11915TIP3   OH257235   1.621   1.731   2.836 -0.3254  0.4119  0.2801
11915TIP3    H157236   1.673   1.790   2.890 -0.0135  0.0943  0.3304
11915TIP3    H257237   1.686   1.678   2.789 -0.5734  1.0142 -0.7864
11916TIP3   OH257238   1.209   3.617   4.794 -0.0859  0.3134 -0.6361
11916TIP3    H157239   1.272   3.682   4.766 -0.1471 -0.2061 -2.0890
11916TIP3    H257240   1.256   3.534   4.790 -0.3476  0.1237  0.0309
11917TIP3   OH257241   5.283   1.817  16.028 -1.1134 -0.0729  0.4679
11917TIP3    H157242   5.216   1.865  15.979 -1.5022  1.0765  2.0444
11917TIP3    H257243   5.365   1.861  16.005 -1.0026 -0.8255 -0.6648
11918TIP3   OH257244   1.831   2.353  11.250  0.1840 -0.1370  0.0162
11918TIP3    H157245   1.862   2.262  11.253  0.3104 -0.0772  0.7642
11918TIP3    H257246   1.908   2.405  11.273  0.2898  0.2072 -1.1041
11919TIP3   OH257247   3.285   2.454  13.020  0.1103 -0.3482  0.2788
11919TIP3    H157248   3.370   2.457  12.978  0.5294  0.8210  1.1330
11919TIP3    H257249   3.259   2.546  13.028 -1.0157 -0.6616  0.4586
11920TIP3   OH257250   1.307   6.137  16.280 -0.0982  0.4188 -0.2392
11920TIP3    H157251   1.328   6.100  16.366 -0.0169  0.5604 -0.1984
11920TIP3    H257252   1.384   6.189  16.257 -0.6152  1.3793  0.1481
11921TIP3   OH257253   4.746   4.661   4.103  0.1911 -0.2048  0.2531
11921TIP3    H157254   4.673   4.624   4.153 -0.3447  0.4572 -0.0319
11921TIP3    H257255   4.822   4.649   4.161 -0.4119  0.5123  1.2339
11922TIP3   OH257256   5.959   2.703   2.367 -0.2325 -0.1811  0.2593
11922TIP3    H157257   6.039   2.709   2.314 -0.6919  3.1484 -0.3317
11922TIP3    H257258   5.981   2.642   2.437  2.0919 -0.9889 -1.0545
11923TIP3   OH257259   0.974   4.998   6.289  0.0879  0.3842  0.8078
11923TIP3    H157260   0.981   4.928   6.354  0.7611 -1.6935 -1.3357
11923TIP3    H257261   0.881   5.002   6.267  0.1126 -0.2340  0.5685
11924TIP3   OH257262   3.452   4.958  11.335  0.2255  0.1470 -0.1158
11924TIP3    H157263   3.535   4.929  11.373  1.2416 -0.6390 -2.7247
11924TIP3    H257264   3.386   4.905  11.380  1.2824 -0.3789  0.8677
11925TIP3   OH257265   6.063   3.908   6.468  0.3585  0.5758  0.1031
11925TIP3    H157266   6.027   3.865   6.391  1.1808  1.9523 -1.1207
11925TIP3    H257267   6.000   3.890   6.538 -0.4444 -0.6554 -0.8956
11926TIP3   OH257268   1.657   5.054   1.090  0.6041  0.4782  0.1465
11926TIP3    H157269   1.709   4.997   1.145  2.3242  1.0013 -0.8715
11926TIP3    H257270   1.720   5.095   1.030 -0.5787  3.0996  0.5316
11927TIP3   OH257271   1.467   5.888  14.020  0.0248  0.1339 -0.4178
11927TIP3    H157272   1.492   5.803  14.057  2.6795  0.9208 -0.1875
11927TIP3    H257273   1.458   5.873  13.926 -3.4305 -1.1438 -0.0448
11928TIP3   OH257274   5.937   0.640  16.815  0.7377  0.0955  0.2955
11928TIP3    H157275   5.989   0.581  16.759  1.4802  1.5365 -0.5985
11928TIP3    H257276   5.850   0.640  16.777  1.2553  1.1178 -0.9677
11929TIP3   OH257277   2.375   1.651   3.905  0.0285  0.3376  0.5694
11929TIP3    H157278   2.304   1.689   3.956 -0.1903 -0.7579  1.1261
11929TIP3    H257279   2.340   1.568   3.873  0.1535  0.9964 -1.4234
11930TIP3   OH257280   5.927   5.408  17.107 -0.0193  0.1450  0.1350
11930TIP3    H157281   5.924   5.503  17.123  0.0870  0.8532 -3.2882
11930TIP3    H257282   5.987   5.375  17.173  1.0525  2.7033  0.5727
11931TIP3   OH257283   0.358   4.603  14.413  0.6079  0.0723  0.2012
11931TIP3    H157284   0.301   4.556  14.352 -0.0886  1.5586 -0.3415
11931TIP3    H257285   0.346   4.557  14.497  0.3686 -1.0235 -0.4169
11932TIP3   OH257286   2.872   3.956  16.815 -0.1804  0.4967  0.6747
11932TIP3    H157287   2.848   3.936  16.906  0.8876  0.8895  1.0608
11932TIP3    H257288   2.890   4.050  16.816 -2.0306  0.9048 -0.3965
11933TIP3   OH257289   1.624   2.423   3.858  0.2027  0.1870  0.1269
11933TIP3    H157290   1.712   2.387   3.847  0.0867 -0.0334 -0.1076
11933TIP3    H257291   1.591   2.380   3.938 -0.5424 -1.5149 -1.0276
11934TIP3   OH257292   3.408   6.764  10.606  0.2614  0.0814  0.0504
11934TIP3    H157293   3.350   6.840  10.616 -2.7527 -1.9188 -0.9838
11934TIP3    H257294   3.402   6.718  10.690  0.9465  0.2056  0.1770
11935TIP3   OH257295   1.131   4.373  13.942 -0.6771  0.0594 -0.0926
11935TIP3    H157296   1.168   4.441  13.999  0.5261  0.3073 -1.1135
11935TIP3    H257297   1.142   4.408  13.853 -2.7972 -0.1782 -0.5004
11936TIP3   OH257298   2.681   6.742   5.825  0.6938  0.1831  0.4517
11936TIP3    H157299   2.631   6.822   5.839  0.6448  0.2001  0.1741
11936TIP3    H257300   2.699   6.710   5.914  0.9474  0.6416  0.5649
11937TIP3   OH257301   5.344   2.940   5.264  0.2678 -0.2278 -0.2235
11937TIP3    H157302   5.253   2.933   5.290  0.4132  0.6477  0.5702
11937TIP3    H257303   5.394   2.903   5.337  0.5486 -0.8724 -0.7300
11938TIP3   OH257304   0.779   4.519  11.644 -0.3699  0.2261  0.1151
11938TIP3    H157305   0.860   4.500  11.691  0.0958 -1.5435 -1.2782
11938TIP3    H257306   0.756   4.436  11.602 -0.9965  1.5780 -2.3962
11939TIP3   OH257307   6.425   3.431  14.341  0.2532  0.2071  0.2204
11939TIP3    H157308   6.376   3.385  14.409 -1.0135 -0.4143 -1.0539
11939TIP3    H257309   6.418   3.374  14.264  2.9296  0.1472 -0.0640
11940TIP3   OH257310   3.655   4.181   0.029  0.1050  0.8480 -0.3602
11940TIP3    H157311   3.569   4.206   0.060  0.7998  0.9998  1.5900
11940TIP3    H257312   3.710   4.180   0.107  1.8567  0.6482 -1.5196
11941TIP3   OH257313   2.658   3.548   4.805  0.3216  0.2862  0.0296
11941TIP3    H157314   2.576   3.503   4.788  0.3278  0.0802  0.5244
11941TIP3    H257315   2.633   3.627   4.853  0.4650 -0.1192  0.7849
11942TIP3   OH257316   0.388   5.471  11.673  0.3542 -0.2952 -0.3050
11942TIP3    H157317   0.453   5.507  11.733 -1.3667  0.3835  1.2729
11942TIP3    H257318   0.332   5.545  11.651  0.3919 -0.7403 -2.0621
11943TIP3   OH257319   0.299   2.231  11.313  0.6551  0.2779  0.0354
11943TIP3    H157320   0.349   2.282  11.249  0.2075 -0.1736 -0.6961
11943TIP3    H257321   0.290   2.145  11.272  0.5021 -0.0684  0.7907
11944TIP3   OH257322   1.733   4.849   3.752  0.9645  0.0151 -0.6235
11944TIP3    H157323   1.806   4.849   3.814  0.2025  2.7835  0.4126
11944TIP3    H257324   1.749   4.926   3.697 -1.2275  0.8497 -0.2048
11945TIP3   OH257325   2.558   6.085   1.190  0.2270 -0.0308 -0.4304
11945TIP3    H157326   2.511   6.021   1.136 -1.2427 -1.1106  1.9550
11945TIP3    H257327   2.497   6.158   1.199  0.7282  0.4311 -0.7549
11946TIP3   OH257328   0.469   0.942  15.511 -0.4305  0.9867  0.1908
11946TIP3    H157329   0.388   0.893  15.496  1.2692 -1.5225 -1.7363
11946TIP3    H257330   0.514   0.894  15.580 -0.3848  2.1383  0.9825
11947TIP3   OH257331   5.436   3.434  11.468  0.1013 -0.4543 -0.1776
11947TIP3    H157332   5.456   3.404  11.380  1.2270  0.7271 -0.3663
11947TIP3    H257333   5.452   3.529  11.465 -1.6025 -0.0940  0.8227
11948TIP3   OH257334   2.667   4.196  12.590 -0.5195 -0.4285 -0.4488
11948TIP3    H157335   2.602   4.126  12.585 -0.2718 -0.5656 -2.8285
11948TIP3    H257336   2.739   4.157  12.640 -0.6128 -1.7000 -1.2493
11949TIP3   OH257337   5.142   5.057   1.542 -0.0477  0.1704  0.2435
11949TIP3    H157338   5.217   5.116   1.530  0.8696 -0.9575  0.1519
11949TIP3    H257339   5.160   5.012   1.625 -0.1588 -0.7409 -0.2112
11950TIP3   OH257340   1.249   3.675  14.776  0.3051 -0.1855  0.4569
11950TIP3    H157341   1.278   3.765  14.761 -0.4005  0.0440  0.4315
11950TIP3    H257342   1.189   3.657  14.704 -0.1106 -0.4276  0.8623
11951TIP3   OH257343   5.625   2.641  10.461  0.1253  0.0424 -0.5444
11951TIP3    H157344   5.618   2.553  10.497  0.3388  0.2802  0.0830
11951TIP3    H257345   5.565   2.641  10.386  0.1444 -0.6397 -0.5674
11952TIP3   OH257346   3.067   0.758  16.342  0.8590  0.0832 -0.1113
11952TIP3    H157347   3.139   0.819  16.330 -1.1895  3.2931  2.1897
11952TIP3    H257348   3.007   0.777  16.269  0.5955  0.2285  0.1418
11953TIP3   OH257349   1.693   0.126  14.917 -0.5081 -0.0908 -0.3462
11953TIP3    H157350   1.631   0.153  14.984  0.2305  1.0622 -0.0875
11953TIP3    H257351   1.639   0.092  14.846 -1.3897  0.2605  0.1461
11954TIP3   OH257352   4.344   3.886  13.876  0.4720 -0.2673  0.3990
11954TIP3    H157353   4.359   3.829  13.952  0.7987 -1.6612 -0.6556
11954TIP3    H257354   4.250   3.902  13.876  0.1718 -1.8130  0.0862
11955TIP3   OH257355   3.590   6.211  16.260  0.3600 -0.0004  0.0173
11955TIP3    H157356   3.655   6.161  16.210 -0.4598 -0.0071 -1.0779
11955TIP3    H257357   3.510   6.159  16.255 -0.1247  0.7234  0.0657
11956TIP3   OH257358   5.917   5.501   5.737  0.5133 -0.5168  0.3443
11956TIP3    H157359   5.929   5.561   5.811  0.3752 -0.3885  0.2617
11956TIP3    H257360   5.833   5.459   5.753 -0.1457  0.4739 -0.4197
11957TIP3   OH257361   5.619   2.501  13.654 -0.2838  0.5070 -0.1408
11957TIP3    H157362   5.566   2.426  13.627 -1.0598  0.3679  1.6528
11957TIP3    H257363   5.703   2.464  13.678  0.4656  0.6426 -2.2747
11958TIP3   OH257364   0.283   1.448   3.433  0.4724 -0.2137  0.3523
11958TIP3    H157365   0.365   1.399   3.429  0.9150  0.5020  0.3755
11958TIP3    H257366   0.280   1.480   3.523 -0.4151 -1.1899  0.6876
11959TIP3   OH257367   3.911   2.557   0.023 -0.8173  0.3309  0.6528
11959TIP3    H157368   3.982   2.577  -0.037  0.0929 -0.9389  1.2589
11959TIP3    H257369   3.839   2.615  -0.005  0.7963  2.5141  0.7838
11960TIP3   OH257370   1.234   0.103  17.048  0.6632 -0.2840  0.3180
11960TIP3    H157371   1.260   0.017  17.015 -0.7317 -0.0165 -1.6334
11960TIP3    H257372   1.234   0.159  16.970  1.2362  1.4347  1.4915
11961TIP3   OH257373   6.204   5.874  16.236 -0.0039  0.2725 -0.3309
11961TIP3    H157374   6.155   5.835  16.309  0.5636  2.0621  1.0833
11961TIP3    H257375   6.155   5.953  16.214 -1.1651 -1.1145 -3.1679
11962TIP3   OH257376   5.492   5.621   3.204 -0.6719 -0.4985  0.1227
11962TIP3    H157377   5.426   5.686   3.182 -1.6406 -1.3978  0.2524
11962TIP3    H257378   5.479   5.551   3.139 -0.5368 -1.1420  0.7733
11963TIP3   OH257379   5.206   1.494   6.278  0.0649  0.2975  0.2034
11963TIP3    H157380   5.180   1.586   6.284 -2.4650 -0.3051  0.0099
11963TIP3    H257381   5.177   1.456   6.362 -0.2842 -0.5804 -0.3010
11964TIP3   OH257382   4.401   5.684   4.617 -0.4547 -0.1766  0.4067
11964TIP3    H157383   4.482   5.687   4.565 -0.6449 -0.9798  0.0590
11964TIP3    H257384   4.336   5.729   4.563 -0.2933  0.2947  0.5999
11965TIP3   OH257385   1.768   4.956   6.115  0.3034  0.5948  0.3769
11965TIP3    H157386   1.832   5.001   6.170  1.0366  0.0858 -0.0409
11965TIP3    H257387   1.715   4.905   6.176  2.1343 -1.2459  0.5361
11966TIP3   OH257388   1.440   5.710  14.489 -0.1524  0.1411 -0.2536
11966TIP3    H157389   1.447   5.616  14.502  0.2867  0.1516 -0.3921
11966TIP3    H257390   1.529   5.742  14.500 -0.2346  0.4897 -0.5915
11967TIP3   OH257391   4.552   3.307  12.701 -0.1996 -0.4681  0.3155
11967TIP3    H157392   4.457   3.311  12.686 -0.1913 -1.5138 -0.1272
11967TIP3    H257393   4.571   3.384  12.754 -0.9996  0.7948 -1.1555
11968TIP3   OH257394   0.701   2.765  10.929  0.1774  0.8048  0.4486
11968TIP3    H157395   0.611   2.796  10.939 -0.4414 -0.8951  0.4140
11968TIP3    H257396   0.714   2.706  11.004  0.3026 -1.0936 -0.9895
11969TIP3   OH257397   2.773   5.457   2.395 -0.2228 -0.1760  0.1989
11969TIP3    H157398   2.762   5.550   2.411  2.1246 -0.1960  2.8891
11969TIP3    H257399   2.863   5.449   2.363  0.0124 -1.5530  1.1063
11970TIP3   OH257400   4.809   0.274  14.282 -0.0451 -0.2114 -0.4755
11970TIP3    H157401   4.864   0.199  14.302  0.3120 -0.1005 -1.0269
11970TIP3    H257402   4.870   0.347  14.271 -0.1106 -0.4730 -2.9904
11971TIP3   OH257403   1.152   5.928  15.309  0.0102  0.3108 -0.1520
11971TIP3    H157404   1.167   5.903  15.401  0.0571  0.9477  0.0191
11971TIP3    H257405   1.147   5.845  15.262  2.0954  0.0033  0.0937
11972TIP3   OH257406   3.366   1.111   2.401  0.1599  0.1176  0.4468
11972TIP3    H157407   3.280   1.093   2.438 -0.1907  1.5917  0.3926
11972TIP3    H257408   3.369   1.206   2.389  1.7526  0.0937  0.3405
11973TIP3   OH257409   2.852   4.878   4.728 -0.0303  0.7160 -0.0468
11973TIP3    H157410   2.944   4.889   4.754  1.4081 -0.2787 -3.9008
11973TIP3    H257411   2.814   4.965   4.736  1.4361  1.2949  1.0333
11974TIP3   OH257412   1.964   6.260  13.933  0.1708 -0.1858 -0.5449
11974TIP3    H157413   2.016   6.203  13.877 -0.1124 -0.0063 -0.9954
11974TIP3    H257414   1.917   6.317  13.872  1.0597  1.0700 -0.0980
11975TIP3   OH257415   4.741   2.323   5.256 -0.1369 -0.0425  0.0328
11975TIP3    H157416   4.709   2.369   5.334 -0.1358 -1.4551  0.9063
11975TIP3    H257417   4.786   2.246   5.291 -0.9671 -1.2139 -1.3771
11976TIP3   OH257418   6.616   0.918  11.236  0.4652 -0.1537 -0.2645
11976TIP3    H157419   6.529   0.957  11.231  0.4466 -0.3147 -1.4440
11976TIP3    H257420   6.629   0.900  11.329  0.2620  2.1544  0.2616
11977TIP3   OH257421   4.188   5.615   5.641 -0.6128 -0.5060 -0.6986
11977TIP3    H157422   4.100   5.650   5.630 -0.5098 -0.3540 -1.0280
11977TIP3    H257423   4.179   5.551   5.712 -0.6815  0.5993  0.3136
11978TIP3   OH257424   5.811   2.762  16.828  0.4207 -0.0522  0.0183
11978TIP3    H157425   5.799   2.675  16.865 -0.3979  0.3826  0.8288
11978TIP3    H257426   5.822   2.819  16.904 -0.3132  0.7271 -0.4430
11979TIP3   OH257427   4.421   0.390   1.179  0.2283  0.2086 -0.1685
11979TIP3    H157428   4.353   0.437   1.130 -0.8573 -2.2930 -1.2175
11979TIP3    H257429   4.374   0.322   1.227  1.7513 -0.0415  1.0634
11980TIP3   OH257430   5.284   0.503  12.275  0.0828  0.2619 -0.6127
11980TIP3    H157431   5.248   0.473  12.191 -0.0914 -1.5370  0.0492
11980TIP3    H257432   5.377   0.479  12.272  0.0909  0.2459 -0.3158
11981TIP3   OH257433   2.883   3.444   0.008  0.0114 -0.7491  0.4229
11981TIP3    H157434   2.904   3.421   0.099 -2.1485 -0.0770  1.1468
11981TIP3    H257435   2.815   3.510   0.015  2.4001  2.1743 -1.6803
11982TIP3   OH257436   4.471   4.071   3.074 -0.1262 -0.5091  0.3661
11982TIP3    H157437   4.483   4.020   2.994  1.8472 -1.6890  1.3577
11982TIP3    H257438   4.541   4.136   3.073 -0.3670 -0.2269  0.9240
11983TIP3   OH257439   2.418   1.469   4.633  0.1529 -0.2722  0.2404
11983TIP3    H157440   2.431   1.381   4.669  1.6456 -0.3740 -0.4987
11983TIP3    H257441   2.498   1.516   4.656 -0.4457  0.7730  0.2286
11984TIP3   OH257442   0.063   3.910   3.506 -0.1512 -0.1700 -0.5963
11984TIP3    H157443  -0.016   3.963   3.513 -0.3071 -0.5675  1.7620
11984TIP3    H257444   0.036   3.823   3.535  1.1492 -0.2899  0.3672
11985TIP3   OH257445   2.820   0.445  11.331 -0.2070  0.0002  1.0528
11985TIP3    H157446   2.742   0.470  11.281 -0.2891  0.1433  1.2510
11985TIP3    H257447   2.805   0.353  11.354 -0.1306 -0.0920  0.7448
11986TIP3   OH257448   2.231   4.430  15.231  0.5350 -0.0017  0.2261
11986TIP3    H157449   2.314   4.443  15.185  0.7119 -0.3202  0.4527
11986TIP3    H257450   2.256   4.408  15.321  0.3553 -3.2393 -0.3932
11987TIP3   OH257451   5.410   6.447  11.292  0.0824  0.6385 -0.1238
11987TIP3    H157452   5.453   6.500  11.226 -1.0531  0.9900 -0.6012
11987TIP3    H257453   5.461   6.366  11.295  0.3435  0.7573 -1.1798
11988TIP3   OH257454   0.558   3.739  14.499 -0.1289  0.4040 -0.1653
11988TIP3    H157455   0.505   3.762  14.575  0.4972 -0.3001  0.4916
11988TIP3    H257456   0.496   3.743  14.425 -0.8617  0.5676  0.4451
11989TIP3   OH257457   4.539   0.817   0.021  0.0471  0.6184 -0.0932
11989TIP3    H157458   4.518   0.907   0.048 -0.1940  0.8512 -1.0153
11989TIP3    H257459   4.467   0.793  -0.037 -0.3463 -0.4979  0.8148
11990TIP3   OH257460   2.838   2.602  14.910  0.4157 -0.1150 -0.5208
11990TIP3    H157461   2.822   2.614  15.004 -0.0012  1.5509 -0.7714
11990TIP3    H257462   2.759   2.558  14.878  0.0662  0.3344 -0.2819
11991TIP3   OH257463   4.511   4.659   1.617 -0.7515 -0.1370 -0.2620
11991TIP3    H157464   4.474   4.572   1.598 -4.3483  0.9015  1.0801
11991TIP3    H257465   4.512   4.703   1.532 -1.0884 -0.7651 -0.5971
11992TIP3   OH257466   4.937   2.650   2.680 -0.0999 -0.2754  0.8076
11992TIP3    H157467   5.028   2.622   2.670 -0.1245 -0.3895  0.9021
11992TIP3    H257468   4.911   2.617   2.766 -0.1654 -0.0634  0.8687
11993TIP3   OH257469   3.259   5.886  14.287 -0.6458 -0.2812 -0.0841
11993TIP3    H157470   3.238   5.924  14.372 -0.3525 -0.1017 -0.0912
11993TIP3    H257471   3.285   5.960  14.233  2.0087 -0.6759  0.5132
11994TIP3   OH257472   4.453   3.066  16.527 -0.1680  0.3991  0.9062
11994TIP3    H157473   4.418   3.002  16.465 -1.7557  1.7119  0.3559
11994TIP3    H257474   4.545   3.075  16.504 -0.0277 -1.2920  0.6749
11995TIP3   OH257475   1.924   1.099  15.674  0.2456 -0.7616  0.4721
11995TIP3    H157476   1.880   1.131  15.595 -0.9372 -1.2473  0.9031
11995TIP3    H257477   1.990   1.165  15.693 -0.5216  0.1891 -0.0255
11996TIP3   OH257478   3.570   0.793   1.083 -0.2757 -0.2252 -0.5998
11996TIP3    H157479   3.594   0.867   1.027 -1.2363 -0.2148 -1.0267
11996TIP3    H257480   3.476   0.782   1.069 -0.3008 -1.0131  0.0832
11997TIP3   OH257481   0.523   5.051   4.916  0.5807 -0.4795 -0.3897
11997TIP3    H157482   0.530   5.066   5.010  2.3935 -0.6028 -0.4543
11997TIP3    H257483   0.455   4.985   4.907 -0.0939  0.0359  0.7712
11998TIP3   OH257484   1.486   4.591  12.443 -0.7471  0.2615  0.2001
11998TIP3    H157485   1.490   4.655  12.371  1.5225  0.4024  0.3913
11998TIP3    H257486   1.536   4.516  12.410 -0.9277 -0.2556  1.0931
11999TIP3   OH257487   3.043   2.573   5.126  0.4434  0.0395 -0.2757
11999TIP3    H157488   3.134   2.549   5.112  0.2965  0.1324 -1.4470
11999TIP3    H257489   2.993   2.496   5.100  0.1233  0.4935 -1.0327
12000TIP3   OH257490   6.140   6.193   0.644 -0.1985 -0.2114 -0.1279
12000TIP3    H157491   6.169   6.125   0.705 -0.9444  0.6993  1.3075
12000TIP3    H257492   6.045   6.190   0.648 -0.2528  1.0597  0.1648
12001TIP3   OH257493   1.161   1.410   2.527 -0.0449 -0.6282 -0.2040
12001TIP3    H157494   1.239   1.362   2.498  1.2797  1.1523  0.2798
12001TIP3    H257495   1.117   1.350   2.587  0.8065 -1.7433 -0.6540
12002TIP3   OH257496   1.092   2.681   5.740  0.2457 -0.2752  0.0894
12002TIP3    H157497   1.025   2.644   5.798  0.7301  0.4481  1.1541
12002TIP3    H257498   1.120   2.761   5.785  2.4543 -1.0111  0.1218
12003TIP3   OH257499   4.746   4.956   0.665 -0.1027  0.1733  0.3676
12003TIP3    H157500   4.669   5.010   0.685 -0.5587  0.0782 -1.0430
12003TIP3    H257501   4.802   4.965   0.742 -0.1418  2.7172  0.1734
12004TIP3   OH257502   3.654   1.636  11.056  0.1045 -0.5458  0.1693
12004TIP3    H157503   3.695   1.569  11.112 -0.7425 -1.4582 -0.2736
12004TIP3    H257504   3.684   1.615  10.968 -1.0576 -1.0421 -0.1202
12005TIP3   OH257505   2.098   0.939   3.967 -0.6352 -0.3064  0.6538
12005TIP3    H157506   2.079   0.994   3.891 -2.1299 -1.6448  0.0097
12005TIP3    H257507   2.193   0.927   3.964 -0.6211 -0.0631 -0.8064
12006TIP3   OH257508   4.195   3.547  13.679 -0.2785  0.2053  0.7657
12006TIP3    H157509   4.195   3.533  13.774 -0.2622  0.4076  0.7963
12006TIP3    H257510   4.286   3.537  13.653 -0.4071 -0.7124  0.6392
12007TIP3   OH257511   3.161   1.418  16.295  0.0260 -0.3189  0.0845
12007TIP3    H157512   3.066   1.403  16.296 -0.0914  0.3537 -0.5557
12007TIP3    H257513   3.171   1.509  16.268  0.8937 -0.7519 -1.1476
12008TIP3   OH257514   5.350   2.633  12.238  0.1417  0.2221 -0.3312
12008TIP3    H157515   5.278   2.571  12.246  0.2636  0.1226 -0.0007
12008TIP3    H257516   5.414   2.588  12.182  0.1284  0.1451 -0.2847
12009TIP3   OH257517   0.076   6.538  15.097  0.1423 -0.1235  0.3719
12009TIP3    H157518  -0.002   6.529  15.042  0.3564 -0.3307  0.1043
12009TIP3    H257519   0.078   6.632  15.119 -1.2765 -0.4313  1.9951
12010TIP3   OH257520   5.512   1.664   0.822  0.3458  0.6051 -0.3237
12010TIP3    H157521   5.504   1.682   0.729 -2.6422 -0.1359 -0.3015
12010TIP3    H257522   5.507   1.750   0.864 -1.0414  0.7425 -0.7485
12011TIP3   OH257523   1.193   4.285   5.212  0.1986 -0.1284 -0.0176
12011TIP3    H157524   1.233   4.225   5.148  1.3120 -0.1162  0.6341
12011TIP3    H257525   1.101   4.290   5.186  0.6709  0.0695 -1.7681
12012TIP3   OH257526   3.716   2.859   2.274  0.0483 -0.1459 -0.4628
12012TIP3    H157527   3.716   2.916   2.197  2.1083  0.5347 -0.0105
12012TIP3    H257528   3.753   2.777   2.243  0.0223 -0.1819 -0.3989
12013TIP3   OH257529   3.012   3.089   1.158 -0.4694 -0.2809  0.0903
12013TIP3    H157530   3.004   3.008   1.108 -0.6857  0.0834 -0.4804
12013TIP3    H257531   3.071   3.067   1.230  1.0514 -0.4616 -1.1367
12014TIP3   OH257532   0.559   3.076  11.429 -0.1011  0.6409 -0.1325
12014TIP3    H157533   0.570   3.118  11.343  0.7545  0.7054 -0.0051
12014TIP3    H257534   0.642   3.092  11.474 -0.6888  0.9626  0.8699
12015TIP3   OH257535   5.291   3.195   2.894 -0.1404  0.4059 -0.0695
12015TIP3    H157536   5.212   3.142   2.897  0.5994 -0.7084  0.4047
12015TIP3    H257537   5.260   3.286   2.891 -1.4292 -0.0544 -1.0097
12016TIP3   OH257538   3.853   4.607  10.869 -0.1991 -0.1644 -0.0284
12016TIP3    H157539   3.793   4.534  10.855  0.9361 -1.0153 -0.5880
12016TIP3    H257540   3.880   4.633  10.782 -0.1234  0.5377  0.2005
12017TIP3   OH257541   5.465   4.974   1.176  0.6065 -0.0336 -0.1658
12017TIP3    H157542   5.480   4.910   1.106  0.5874  0.3510 -0.5269
12017TIP3    H257543   5.529   5.043   1.159 -0.1892  0.6350 -0.5110
12018TIP3   OH257544   6.491   2.748   1.105 -0.0093 -0.0881 -0.2180
12018TIP3    H157545   6.505   2.655   1.125 -1.2370 -0.3607 -0.5388
12018TIP3    H257546   6.558   2.769   1.040  0.7982 -0.5304  0.4669
12019TIP3   OH257547   6.394   3.398   0.499  0.0669  0.3325  0.2494
12019TIP3    H157548   6.424   3.389   0.409 -2.6918 -0.9673 -0.6637
12019TIP3    H257549   6.423   3.318   0.543 -1.3450 -0.5965 -0.4367
12020TIP3   OH257550   0.149   4.555   4.520  0.1736  0.3652 -0.4435
12020TIP3    H157551   0.163   4.546   4.426 -0.1808  1.2225 -0.5925
12020TIP3    H257552   0.174   4.471   4.557  1.3990  0.3867 -1.1793
12021TIP3   OH257553   1.040   2.679  13.922  0.0152  0.0711  0.1435
12021TIP3    H157554   1.071   2.589  13.912  0.1616  0.0012  1.1408
12021TIP3    H257555   0.991   2.696  13.841 -1.6855 -1.5826  0.7458
12022TIP3   OH257556   3.646   4.168  13.553  0.0352  0.2867  0.0440
12022TIP3    H157557   3.615   4.110  13.623  2.3118  0.4391  1.2569
12022TIP3    H257558   3.610   4.130  13.473 -1.9457 -0.3834  1.1686
12023TIP3   OH257559   3.163   5.926   1.710  0.0779 -0.1179 -0.2009
12023TIP3    H157560   3.123   5.859   1.655 -0.9624  0.4030 -0.0893
12023TIP3    H257561   3.141   5.900   1.800 -0.2404  0.3122 -0.1529
12024TIP3   OH257562   6.370   0.733   2.720 -0.0546 -0.1928  0.1408
12024TIP3    H157563   6.441   0.751   2.782 -0.5830  0.2610  0.6277
12024TIP3    H257564   6.337   0.647   2.745  0.4614 -0.5012 -0.2250
12025TIP3   OH257565   6.422   5.903   4.169  0.2720  0.5924 -0.0611
12025TIP3    H157566   6.378   5.829   4.127  0.4742  0.9738 -0.9758
12025TIP3    H257567   6.515   5.882   4.162  0.3041  0.6212  0.2780
12026TIP3   OH257568   0.743   2.759   1.864 -0.5966  0.1747  0.1512
12026TIP3    H157569   0.807   2.761   1.793  0.1544  0.9697  0.8315
12026TIP3    H257570   0.680   2.691   1.838 -0.0480  0.0933 -1.0114
12027TIP3   OH257571   5.870   6.229  14.526 -0.0058  0.0617 -0.4189
12027TIP3    H157572   5.884   6.265  14.614 -1.1997  0.1036 -0.2327
12027TIP3    H257573   5.940   6.267  14.473  1.1478 -0.4947  0.6468
12028TIP3   OH257574   3.334   2.371   3.699 -0.1365  0.0004  0.2766
12028TIP3    H157575   3.335   2.275   3.702 -1.0397 -0.1604 -2.3134
12028TIP3    H257576   3.386   2.393   3.622 -1.1642  1.5135 -0.0192
12029TIP3   OH257577   2.520   0.968   2.547  0.0010  0.6031 -0.2579
12029TIP3    H157578   2.487   1.046   2.592 -1.6620  0.3875 -1.0497
12029TIP3    H257579   2.504   0.896   2.608  1.6942  0.8595  0.5460
12030TIP3   OH257580   0.834   1.022  16.544  0.7123  0.0968  0.1973
12030TIP3    H157581   0.827   1.024  16.449 -0.1709  0.7931  0.2641
12030TIP3    H257582   0.787   0.943  16.570  2.3111 -0.9772 -0.0178
12031TIP3   OH257583   1.102   6.381  14.822  0.3028  0.3228 -0.3433
12031TIP3    H157584   1.162   6.454  14.828  1.5452 -0.7784  2.3052
12031TIP3    H257585   1.113   6.347  14.733  2.8908  0.7732 -0.2689
12032TIP3   OH257586   2.405   5.284   5.244  0.1150 -0.0089  0.5378
12032TIP3    H157587   2.450   5.274   5.160  0.9627  2.5671  0.5949
12032TIP3    H257588   2.425   5.203   5.292  3.7904  0.4398  0.0902
12033TIP3   OH257589   1.558   3.641   0.721 -0.1205 -1.1524  0.0443
12033TIP3    H157590   1.521   3.661   0.807  0.9639 -3.5499  1.1689
12033TIP3    H257591   1.641   3.597   0.741  0.7811 -0.6332 -2.2839
12034TIP3   OH257592   1.002   6.039   0.786  0.0902 -0.1799 -0.2780
12034TIP3    H157593   1.036   6.128   0.799  0.1590  0.0468 -1.8918
12034TIP3    H257594   0.970   6.038   0.696  0.8817 -2.0515 -0.5743
12035TIP3   OH257595   3.810   3.019  14.220 -0.6072 -0.0870 -0.0386
12035TIP3    H157596   3.755   3.093  14.196  0.3614  0.1982 -1.4694
12035TIP3    H257597   3.898   3.056  14.230 -0.6225 -0.5296  2.2476
12036TIP3   OH257598   5.682   0.957   2.624 -0.5557 -0.0872  0.1254
12036TIP3    H157599   5.659   0.911   2.705 -1.0877  0.2202  0.1574
12036TIP3    H257600   5.612   1.021   2.612  0.2309  0.8210  0.1677
12037TIP3   OH257601   0.829   3.936   2.773 -0.3775  0.0401  0.4548
12037TIP3    H157602   0.918   3.908   2.753 -0.9618 -0.8494 -1.0893
12037TIP3    H257603   0.818   3.916   2.866  1.1310  0.5121  0.7609
12038TIP3   OH257604   4.682   4.740  11.465 -0.3126  0.7832 -0.2499
12038TIP3    H157605   4.753   4.794  11.431 -1.4103  1.1130 -2.1740
12038TIP3    H257606   4.603   4.793  11.453 -1.0591 -0.1157  0.5388
12039TIP3   OH257607   6.579   4.973   4.022 -0.0466 -0.7744  0.1810
12039TIP3    H157608   6.646   5.035   3.993  0.7596 -0.9681  1.5356
12039TIP3    H257609   6.599   4.958   4.114 -0.5604 -2.6247  0.0313
12040TIP3   OH257610   5.359   2.095   0.207  0.0035 -0.1998 -0.3939
12040TIP3    H157611   5.397   2.172   0.165  0.7342 -0.8421 -0.9312
12040TIP3    H257612   5.325   2.042   0.135  1.4145 -1.3857 -0.2284
12041TIP3   OH257613   6.307   5.964  15.993 -0.2809 -0.1677 -0.2415
12041TIP3    H157614   6.276   5.885  16.037  1.2598  0.8124  2.8971
12041TIP3    H257615   6.392   5.938  15.956  0.6165  0.1348  1.4971
12042TIP3   OH257616   3.368   6.736   3.988  0.1436 -0.1364 -0.9424
12042TIP3    H157617   3.459   6.755   4.008 -0.0363 -0.7644  0.6335
12042TIP3    H257618   3.318   6.787   4.052 -0.6860  1.0478 -2.4622
12043TIP3   OH257619   4.702   3.522   4.300  0.4611  0.1591  0.1459
12043TIP3    H157620   4.765   3.499   4.231 -0.3412  1.1793 -0.9587
12043TIP3    H257621   4.639   3.449   4.299 -0.6969  1.0967 -1.6626
12044TIP3   OH257622   6.494   4.365   2.451 -0.8444 -0.6574  0.1719
12044TIP3    H157623   6.443   4.285   2.434 -0.9564 -0.4742 -0.3702
12044TIP3    H257624   6.484   4.417   2.372 -2.4740  0.8237  1.2554
12045TIP3   OH257625   1.788   4.244   0.777 -0.2738 -0.5127  0.0057
12045TIP3    H157626   1.704   4.206   0.752 -0.1879 -1.3185  0.8879
12045TIP3    H257627   1.851   4.205   0.716 -0.0819 -2.3938  1.2964
12046TIP3   OH257628   0.895   6.847   3.048  0.0187 -0.4344  0.8562
12046TIP3    H157629   0.890   6.938   3.078 -0.0650  0.2034 -0.9727
12046TIP3    H257630   0.987   6.835   3.024 -0.6569  0.5445 -2.7396
12047TIP3   OH257631   3.956   4.714   0.655  0.3238  0.2026 -0.6313
12047TIP3    H157632   3.951   4.668   0.571  1.2878 -0.1916 -0.4888
12047TIP3    H257633   3.938   4.647   0.721 -1.5668  0.7477 -0.5469
12048TIP3   OH257634   6.265   1.823  12.258  0.0203  0.3960 -0.5549
12048TIP3    H157635   6.229   1.757  12.198  0.3807  0.7436 -1.1669
12048TIP3    H257636   6.196   1.889  12.265  0.8539  1.5648 -2.5195
12049TIP3   OH257637   1.386   6.119  14.203  1.1282 -0.2288 -0.3965
12049TIP3    H157638   1.293   6.137  14.192  1.2237  1.2323  0.8191
12049TIP3    H257639   1.406   6.052  14.138 -0.7591 -0.5597 -0.6814
12050TIP3   OH257640   2.411   1.814  11.597  0.4713 -0.2720  0.3107
12050TIP3    H157641   2.470   1.838  11.669 -0.0835 -0.1724  0.7363
12050TIP3    H257642   2.452   1.851  11.519  0.8276  0.0396  0.6426
12051TIP3   OH257643   6.109   2.846  15.353  0.6889  0.7966 -0.4285
12051TIP3    H157644   6.065   2.763  15.367 -0.5966  1.4070 -0.6950
12051TIP3    H257645   6.120   2.852  15.258 -1.2632  1.8847 -0.6522
12052TIP3   OH257646   4.944   4.266   1.202  0.3789 -0.4078  0.2750
12052TIP3    H157647   4.920   4.207   1.273 -0.1074 -0.5529 -0.0055
12052TIP3    H257648   4.880   4.248   1.133  0.8660 -0.2932 -0.2137
12053TIP3   OH257649   1.546   2.734   0.579 -1.0194 -0.2839  0.4229
12053TIP3    H157650   1.628   2.717   0.626 -1.3784 -0.0574  1.1480
12053TIP3    H257651   1.504   2.649   0.571  0.3190 -0.8002 -1.9834
12054TIP3   OH257652   6.291   3.061   2.666  0.4229  0.0998  0.3453
12054TIP3    H157653   6.198   3.066   2.686  0.1203  2.1224 -1.2451
12054TIP3    H257654   6.304   2.972   2.633 -0.9125 -0.2295  0.6659
12055TIP3   OH257655   2.486   5.796   4.595  0.0897 -0.3436  0.3070
12055TIP3    H157656   2.402   5.807   4.639 -0.0894  1.6078 -0.4607
12055TIP3    H257657   2.488   5.703   4.570 -1.3050 -0.6818  1.3427
12056TIP3   OH257658   2.373   0.759  14.691 -0.7535 -0.3268  0.0750
12056TIP3    H157659   2.444   0.710  14.650 -0.0468  1.6992 -1.2617
12056TIP3    H257660   2.296   0.738  14.638  0.2644  2.7522 -2.9583
12057TIP3   OH257661   3.891   5.260   0.812  0.0078  0.0654  1.1537
12057TIP3    H157662   3.967   5.250   0.870 -0.5108  0.0171  1.8378
12057TIP3    H257663   3.912   5.205   0.736  0.0673 -1.0526  1.9506
12058TIP3   OH257664   5.476   6.451   3.015  0.3761 -0.1321 -0.5214
12058TIP3    H157665   5.435   6.501   3.086  0.3478 -2.1476  0.9735
12058TIP3    H257666   5.538   6.393   3.059 -2.0858 -3.9978 -1.5894
12059TIP3   OH257667   6.092   5.497   5.532  0.0774 -0.2291 -0.6369
12059TIP3    H157668   6.021   5.507   5.596 -0.0949 -0.2860 -0.8219
12059TIP3    H257669   6.110   5.403   5.531 -0.3665 -0.3097 -1.1600
12060TIP3   OH257670   3.970   2.123  15.733  0.4900 -0.0662  0.2942
12060TIP3    H157671   4.022   2.067  15.676  0.8772  1.3726 -0.8435
12060TIP3    H257672   3.882   2.085  15.730  0.6679 -0.4210 -0.7139
12061TIP3   OH257673   6.292   2.002  15.071  0.0665  0.1566  0.6824
12061TIP3    H157674   6.337   1.980  14.990  2.1162  0.3889  1.6880
12061TIP3    H257675   6.315   1.932  15.132 -1.5154 -0.0673  1.0884
12062TIP3   OH257676   2.536   4.558  15.906 -0.1879  0.2683 -0.2457
12062TIP3    H157677   2.547   4.620  15.834 -1.2573  1.7966  0.8473
12062TIP3    H257678   2.563   4.606  15.984  0.7127 -1.2755  0.4507
12063TIP3   OH257679   4.146   2.861   0.000  0.2868 -0.4865 -0.2451
12063TIP3    H157680   4.141   2.766   0.008 -0.4206 -0.4147  0.3053
12063TIP3    H257681   4.216   2.887   0.060 -0.5375 -0.5441  0.7834
12064TIP3   OH257682   1.696   2.524  16.252 -0.1829  0.4159  0.5644
12064TIP3    H157683   1.780   2.545  16.212 -0.0781 -2.1892 -0.7518
12064TIP3    H257684   1.718   2.480  16.334 -0.3579  1.6656  1.3216
12065TIP3   OH257685   5.713   2.162  10.619 -0.4453  0.3870  0.2014
12065TIP3    H157686   5.676   2.166  10.708 -0.3417  1.9420  0.2107
12065TIP3    H257687   5.805   2.184  10.631 -0.8026  2.5597 -0.4388
12066TIP3   OH257688   4.630   0.360  16.000  0.1420  1.0263  0.6203
12066TIP3    H157689   4.652   0.270  15.978  1.0610  1.2349  0.6751
12066TIP3    H257690   4.643   0.366  16.095  1.2154  1.5262  0.4499
12067TIP3   OH257691   4.780   6.209   3.203 -0.6697 -0.0298 -0.1261
12067TIP3    H157692   4.864   6.167   3.182 -1.0990 -1.4833  0.8835
12067TIP3    H257693   4.745   6.157   3.275 -2.7273  0.1444 -0.9225
12068TIP3   OH257694   4.412   6.282   5.442 -0.3026  0.2574 -0.0321
12068TIP3    H157695   4.322   6.315   5.449 -0.7298 -0.9736  0.4827
12068TIP3    H257696   4.403   6.195   5.404  0.6053 -0.1924  0.7430
12069TIP3   OH257697   3.143   6.044   1.067  0.1716  0.4570  0.6004
12069TIP3    H157698   3.118   5.962   1.023  1.5083  1.5711 -2.5193
12069TIP3    H257699   3.076   6.056   1.134 -1.4698 -1.9546 -0.4467
12070TIP3   OH257700   5.634   0.345  11.523 -0.4286  0.4665  0.2773
12070TIP3    H157701   5.614   0.300  11.441 -2.7751  1.1011  0.4214
12070TIP3    H257702   5.630   0.276  11.589  1.6694 -0.0839 -0.1127
12071TIP3   OH257703   5.260   5.288  14.551 -0.4213  0.3259  0.3967
12071TIP3    H157704   5.298   5.201  14.536 -1.5869 -0.0192 -0.6880
12071TIP3    H257705   5.299   5.317  14.633 -0.2719 -1.3908  0.9731
12072TIP3   OH257706   3.000   2.927  14.682  0.7628  0.2623  0.3933
12072TIP3    H157707   3.074   2.988  14.689  0.7275  0.4338 -0.5777
12072TIP3    H257708   3.032   2.846  14.721  2.1140 -0.2266 -1.5694
12073TIP3   OH257709   5.216   2.992   3.772  0.0008  0.1592  0.2963
12073TIP3    H157710   5.124   2.999   3.748  0.4804 -0.2546 -1.8881
12073TIP3    H257711   5.254   3.077   3.748  0.3343  0.0738  0.5078
12074TIP3   OH257712   5.337   4.876   4.882  0.2832 -0.0968  0.5233
12074TIP3    H157713   5.393   4.938   4.834 -1.0379  0.5858 -0.1766
12074TIP3    H257714   5.395   4.839   4.949  0.9792  2.3732  1.3931
12075TIP3   OH257715   1.189   0.783  10.766  0.0826 -0.1349  0.4799
12075TIP3    H157716   1.260   0.790  10.830  0.5589 -1.7053  0.1625
12075TIP3    H257717   1.227   0.812  10.684  0.5686 -1.4802  0.1949
12076TIP3   OH257718   5.943   1.692  16.753 -0.0494 -0.1137  1.0125
12076TIP3    H157719   6.037   1.680  16.739 -0.1685 -0.2416  0.3016
12076TIP3    H257720   5.906   1.700  16.665 -0.5376  1.2223  1.3039
12077TIP3   OH257721   3.227   6.223  12.526  0.4755 -0.0248  0.0835
12077TIP3    H157722   3.290   6.258  12.589  0.1280  1.1338 -0.1921
12077TIP3    H257723   3.282   6.193  12.453  0.8565 -1.1173  0.7863
12078TIP3   OH257724   2.480   0.410  14.065  0.2392 -0.6943  0.2750
12078TIP3    H157725   2.441   0.394  13.979  1.1906  1.4665 -0.6295
12078TIP3    H257726   2.560   0.358  14.066  0.6108 -0.1441 -0.4693
12079TIP3   OH257727   1.700   3.950   0.157 -0.8267  0.0754 -0.3039
12079TIP3    H157728   1.608   3.930   0.171 -0.3388 -1.2265  1.4517
12079TIP3    H257729   1.736   3.870   0.118 -0.2988  0.2566 -0.2009
12080TIP3   OH257730   5.257   5.198   3.222 -0.0885  0.1147 -0.2333
12080TIP3    H157731   5.203   5.276   3.235 -0.3484 -0.3498  2.0171
12080TIP3    H257732   5.201   5.125   3.247  0.6796 -0.6318 -0.6453
12081TIP3   OH257733   3.390   6.625   3.509  0.4234  0.2358  0.4411
12081TIP3    H157734   3.358   6.579   3.587 -1.5670 -1.7161 -1.4067
12081TIP3    H257735   3.460   6.569   3.476  0.0947  0.1372 -0.0998
12082TIP3   OH257736   4.886   0.837   0.943 -0.3727  0.5405 -0.2891
12082TIP3    H157737   4.953   0.886   0.894 -0.8249 -0.5624 -2.1234
12082TIP3    H257738   4.803   0.871   0.910 -0.8111  2.1186  2.2012
12083TIP3   OH257739   0.182   5.888   6.108  0.7344  0.0199  0.5101
12083TIP3    H157740   0.129   5.952   6.156  0.4871  0.1263  0.0935
12083TIP3    H257741   0.120   5.818   6.085  0.2423  1.1798 -1.9298
12084TIP3   OH257742   6.380   1.829   0.306 -0.0134 -0.0069  0.3456
12084TIP3    H157743   6.314   1.876   0.256  0.0176 -1.7481 -1.4750
12084TIP3    H257744   6.337   1.748   0.334  1.0189 -0.7081 -0.0140
12085TIP3   OH257745   2.939   5.665  16.599 -0.7059  0.9556 -0.1122
12085TIP3    H157746   2.951   5.654  16.693 -0.1370 -0.3849 -0.3178
12085TIP3    H257747   3.011   5.723  16.572  0.1513 -0.0254  0.0250
12086TIP3   OH257748   1.913   0.062   5.686 -0.3913 -0.1634  0.0070
12086TIP3    H157749   1.934   0.151   5.712 -0.7521 -0.0676 -0.0185
12086TIP3    H257750   1.970   0.007   5.739  1.2691  0.1487 -1.3714
12087TIP3   OH257751   1.801   1.049  11.827  0.0718 -0.3079  0.0860
12087TIP3    H157752   1.843   1.019  11.746  0.3672  1.7151 -0.5452
12087TIP3    H257753   1.873   1.063  11.888  0.2503  1.7406 -0.5281
12088TIP3   OH257754   4.294   0.977  13.835 -0.9497  0.0367 -0.2031
12088TIP3    H157755   4.294   0.990  13.740 -0.0903  1.1984 -0.0701
12088TIP3    H257756   4.263   0.887  13.847 -1.5506  0.0403 -1.5463
12089TIP3   OH257757   0.300   0.864  16.866  0.7122  0.2222  0.3699
12089TIP3    H157758   0.336   0.877  16.778  0.5544  1.3904  0.4521
12089TIP3    H257759   0.259   0.778  16.864 -2.6321  1.6377 -1.9360
12090TIP3   OH257760   4.774   2.796  12.011  0.4865 -0.2090 -0.1473
12090TIP3    H157761   4.751   2.726  12.073 -1.4049 -0.0953 -0.6593
12090TIP3    H257762   4.788   2.873  12.066  0.2919 -0.4528  0.2503
12091TIP3   OH257763   0.006   1.728  14.559  0.2271 -0.1470 -0.7787
12091TIP3    H157764   0.076   1.707  14.621  1.4334  1.7247 -1.3884
12091TIP3    H257765   0.051   1.740  14.476 -1.2004 -1.4197 -1.7798
12092TIP3   OH257766   3.945   0.263  16.560  0.3799  0.0138  0.1035
12092TIP3    H157767   3.895   0.185  16.535 -0.4459  1.0165 -1.5736
12092TIP3    H257768   3.951   0.314  16.479 -1.3367  2.9335  1.6545
12093TIP3   OH257769   1.102   0.015   0.766  0.3011 -0.1634  0.3723
12093TIP3    H157770   1.060   0.046   0.847 -0.8315  1.0523 -0.6355
12093TIP3    H257771   1.043  -0.050   0.731 -0.3932  0.9584 -0.6255
12094TIP3   OH257772   1.767   0.070  11.502 -0.5048 -0.1218 -0.2044
12094TIP3    H157773   1.811   0.098  11.583  2.1842 -0.0515 -1.5710
12094TIP3    H257774   1.741   0.151  11.459 -1.8855 -0.1575  0.5186
12095TIP3   OH257775   1.582   6.156  13.316 -0.2297  0.3116 -0.3751
12095TIP3    H157776   1.542   6.076  13.350  0.9352  0.2072  0.8282
12095TIP3    H257777   1.644   6.125  13.250 -0.5654  0.3076 -0.6898
12096TIP3   OH257778   6.581   1.547  15.345  0.1591  0.2654  0.6080
12096TIP3    H157779   6.542   1.509  15.423 -0.7880  1.1989  0.6031
12096TIP3    H257780   6.543   1.497  15.273  0.0257  0.2728  0.6728
12097TIP3   OH257781   5.872   2.407  15.181  0.1807 -0.6449 -0.0193
12097TIP3    H157782   5.874   2.351  15.259 -2.1300 -1.5540 -0.5204
12097TIP3    H257783   5.963   2.412  15.152  0.9071 -1.3707  1.9632
12098TIP3   OH257784   3.647   6.522  14.449  0.2047 -0.1156  0.7287
12098TIP3    H157785   3.693   6.595  14.491 -0.8649  0.2941  1.2222
12098TIP3    H257786   3.563   6.517  14.495 -0.6221 -0.2498 -0.7327
12099TIP3   OH257787   0.638   5.628   0.505 -0.1583  0.4839  0.8557
12099TIP3    H157788   0.611   5.652   0.594 -0.4882 -0.5635  1.0560
12099TIP3    H257789   0.623   5.534   0.501  0.0493  0.4914 -0.2520
12100TIP3   OH257790   0.247   1.996   2.701  0.2790  0.3451  0.3496
12100TIP3    H157791   0.217   1.974   2.612  0.6739  0.6156  0.1477
12100TIP3    H257792   0.175   1.969   2.758  0.2804 -0.4090  0.0038
12101TIP3   OH257793   4.388   3.410   3.990  0.5733 -0.1735 -0.0066
12101TIP3    H157794   4.298   3.381   4.005  0.5220 -1.1029 -1.8761
12101TIP3    H257795   4.438   3.329   3.980  1.7517  0.3101  1.4344
12102TIP3   OH257796   4.743   2.499   4.119  0.6235  0.5697 -0.0451
12102TIP3    H157797   4.800   2.569   4.087  1.2359 -1.0664 -2.9273
12102TIP3    H257798   4.705   2.534   4.200  1.5819  3.8429 -0.8370
12103TIP3   OH257799   2.702   6.234  13.186  0.2924  0.2756  0.1810
12103TIP3    H157800   2.636   6.296  13.154  1.5334  0.4792 -2.1770
12103TIP3    H257801   2.763   6.288  13.237 -0.5623  0.3145  1.2114
12104TIP3   OH257802   3.579   3.805  16.661  0.0812  0.0705 -0.5984
12104TIP3    H157803   3.577   3.710  16.649 -0.5934  0.0119 -0.0993
12104TIP3    H257804   3.666   3.831  16.632 -0.0449 -0.5798 -1.6181
12105TIP3   OH257805   4.794   6.733  12.579 -0.5876  0.2102  0.5595
12105TIP3    H157806   4.770   6.725  12.486  0.5443  0.8251  0.1910
12105TIP3    H257807   4.773   6.647  12.616 -1.7148  0.1847 -0.1005
12106TIP3   OH257808   3.670   2.860   3.774  0.0432 -0.2053  0.1648
12106TIP3    H157809   3.630   2.801   3.837 -1.5321  0.5726 -0.0566
12106TIP3    H257810   3.678   2.809   3.693 -0.7243 -0.3019  0.1494
12107TIP3   OH257811   6.154   4.786   3.233 -0.4800  0.0479 -0.0704
12107TIP3    H157812   6.186   4.875   3.251 -0.8748  0.4509 -1.2777
12107TIP3    H257813   6.146   4.746   3.320  0.1824  1.0170  0.4652
12108TIP3   OH257814   2.722   0.248  14.065 -0.5640 -0.6539  0.1496
12108TIP3    H157815   2.755   0.179  14.122 -0.5155  0.3475  1.3888
12108TIP3    H257816   2.798   0.303  14.047 -1.2645  1.1580  2.2799
12109TIP3   OH257817   5.141   1.154  14.268 -0.0457 -0.4115  0.0108
12109TIP3    H157818   5.071   1.102  14.230  0.0588 -0.7707  0.3079
12109TIP3    H257819   5.107   1.244  14.268 -0.1026 -0.4296 -0.7851
12110TIP3   OH257820   1.896   6.390  16.130 -0.3148 -0.2641 -0.1236
12110TIP3    H157821   1.837   6.434  16.070 -1.2108 -0.9234  0.2521
12110TIP3    H257822   1.842   6.368  16.206  0.7741  0.5321  0.9303
12111TIP3   OH257823   6.849   3.073   1.981 -0.2037  0.0938 -0.3039
12111TIP3    H157824   6.814   3.099   1.896 -0.2735  0.9784 -0.0073
12111TIP3    H257825   6.943   3.089   1.973 -0.3877  1.5866  0.2722
12112TIP3   OH257826   3.701   0.453   4.575  0.1020 -0.2525 -0.0398
12112TIP3    H157827   3.686   0.365   4.539  0.6114 -0.1361 -0.5387
12112TIP3    H257828   3.618   0.499   4.561  0.7319  0.2797 -2.4911
12113TIP3   OH257829   6.786   3.196  10.924 -0.1108 -0.2137 -0.2818
12113TIP3    H157830   6.820   3.276  10.884 -0.6090 -0.0810 -0.4393
12113TIP3    H257831   6.744   3.149  10.853  3.6498 -2.6325 -1.2230
12114TIP3   OH257832   3.648   3.729   3.801  0.0785 -0.0342  0.0635
12114TIP3    H157833   3.727   3.782   3.795 -0.3134  0.9890  2.6285
12114TIP3    H257834   3.577   3.790   3.783 -0.2738 -0.1424  1.0437
12115TIP3   OH257835   6.317   0.530  14.561 -0.0828 -0.4767  0.0971
12115TIP3    H157836   6.258   0.478  14.506  0.5732  2.3115 -3.5852
12115TIP3    H257837   6.258   0.581  14.616 -0.8172 -2.1436  0.9391
12116TIP3   OH257838   5.758   6.454   0.406  0.4083  0.0436  0.1683
12116TIP3    H157839   5.845   6.421   0.427  0.9320  1.0360 -0.4027
12116TIP3    H257840   5.701   6.411   0.470  0.5330 -4.2286 -2.2189
12117TIP3   OH257841   6.705   1.717   1.633 -0.2724  0.0178  0.0180
12117TIP3    H157842   6.738   1.704   1.544  0.6901  1.4247  0.1410
12117TIP3    H257843   6.737   1.642   1.682  2.0751  0.8572 -0.0849
12118TIP3   OH257844   2.823   1.331   4.736  0.1642 -0.7403  0.3697
12118TIP3    H157845   2.741   1.375   4.758 -0.1764 -1.3529  0.3641
12118TIP3    H257846   2.844   1.360   4.648  1.2222  1.2702  1.2024
12119TIP3   OH257847   4.996   5.572   0.415  0.3764 -0.0159  0.3400
12119TIP3    H157848   4.942   5.535   0.344 -0.8736  1.4166  0.4839
12119TIP3    H257849   5.031   5.496   0.461 -1.4027 -1.0293  0.1238
12120TIP3   OH257850   2.651   1.403  11.415 -0.0135  0.0854 -0.5815
12120TIP3    H157851   2.592   1.328  11.416  1.9835 -1.5651  0.9540
12120TIP3    H257852   2.708   1.388  11.340  0.2311  0.1933 -0.4197
12121TIP3   OH257853   5.038   6.835   1.816  0.4282 -0.2839 -0.1791
12121TIP3    H157854   4.970   6.782   1.857  1.7918 -2.6202 -0.7699
12121TIP3    H257855   5.083   6.877   1.889 -1.0972  0.6715  0.2609
12122TIP3   OH257856   1.268   4.017  14.349  0.0165  0.2535  0.5359
12122TIP3    H157857   1.215   3.945  14.382  0.3854  0.1888  1.0042
12122TIP3    H257858   1.239   4.030  14.259  0.6474 -1.1432  0.1194
12123TIP3   OH257859   6.609   2.610   4.739  0.4318 -0.1444 -0.3637
12123TIP3    H157860   6.569   2.572   4.817 -0.9933 -1.1774 -1.5324
12123TIP3    H257861   6.696   2.638   4.767  0.1151 -0.8780  1.4716
12124TIP3   OH257862   1.805   1.287  14.297 -0.0912  0.2609  0.0384
12124TIP3    H157863   1.799   1.211  14.356  1.2456 -0.7262 -1.0129
12124TIP3    H257864   1.715   1.315  14.286 -0.6653 -1.3409  0.2923
12125TIP3   OH257865   6.258   5.983   1.983 -0.4030 -0.0312  0.3337
12125TIP3    H157866   6.191   5.984   1.915 -0.6939  1.0242  0.6148
12125TIP3    H257867   6.211   6.006   2.063  0.1585 -0.0131  0.6598
12126TIP3   OH257868   2.406   1.348   2.989 -0.6721 -0.1254  0.3608
12126TIP3    H157869   2.384   1.366   3.080 -0.8933 -0.2864  0.3402
12126TIP3    H257870   2.483   1.402   2.972 -1.4677  0.9973  0.2214
12127TIP3   OH257871   5.488   5.007   3.174  0.1188 -0.0287 -0.3744
12127TIP3    H157872   5.461   5.083   3.224  2.5073  1.7922 -1.6219
12127TIP3    H257873   5.582   4.998   3.192  0.8440  0.0077 -3.4811
12128TIP3   OH257874   2.137   3.677   5.405 -0.3049  0.7000 -0.2735
12128TIP3    H157875   2.060   3.733   5.402 -1.5355 -0.8337  1.0075
12128TIP3    H257876   2.188   3.702   5.327 -2.0872  1.7057 -1.1762
12129TIP3   OH257877   5.802   1.352  15.889 -0.0466  0.0959 -0.5136
12129TIP3    H157878   5.763   1.313  15.811 -0.0637 -1.7893  0.3806
12129TIP3    H257879   5.740   1.420  15.915  0.1363  1.0147 -2.2914
12130TIP3   OH257880   0.191   5.675   1.094 -0.3475  0.3104  0.0459
12130TIP3    H157881   0.234   5.721   1.022  0.1024  0.3514  0.3354
12130TIP3    H257882   0.183   5.585   1.064  0.7165  0.1146  0.3182
12131TIP3   OH257883   2.528   0.390  15.331 -0.3763 -0.1975  0.6421
12131TIP3    H157884   2.518   0.404  15.237 -0.3402  0.4181  0.7225
12131TIP3    H257885   2.454   0.335  15.356 -0.1776 -0.6716  0.1875
12132TIP3   OH257886   1.714   6.735   2.846  0.5236 -0.4203 -0.3863
12132TIP3    H157887   1.689   6.742   2.754 -0.9062  1.3427  0.0659
12132TIP3    H257888   1.712   6.642   2.865 -0.6591 -0.7158 -1.7689
12133TIP3   OH257889   4.360   4.264  10.994 -0.7223  0.1819 -0.4907
12133TIP3    H157890   4.359   4.251  10.899  1.4273 -0.0055 -0.5304
12133TIP3    H257891   4.416   4.341  11.007 -1.2746  0.4135  0.6191
12134TIP3   OH257892   6.138   4.161   3.062  1.0200 -0.1460  0.0299
12134TIP3    H157893   6.232   4.147   3.056  0.9386 -0.5303 -0.4050
12134TIP3    H257894   6.110   4.178   2.972  0.5989 -0.5373  0.0817
12135TIP3   OH257895   5.326   5.000  14.599  0.1836  0.4280 -0.0417
12135TIP3    H157896   5.313   5.032  14.688 -0.1225  2.2231 -0.6831
12135TIP3    H257897   5.247   4.950  14.579  0.3885 -0.2542  0.7701
12136TIP3   OH257898   6.060   6.310  13.072 -0.0710 -0.2161  0.2278
12136TIP3    H157899   6.123   6.377  13.100 -0.0950 -0.1426  0.1059
12136TIP3    H257900   5.977   6.358  13.065  0.0215 -0.1455 -0.3905
12137TIP3   OH257901   3.227   1.526  12.279  0.5298  0.0810  0.1434
12137TIP3    H157902   3.221   1.449  12.222  1.8608  1.0093 -1.3382
12137TIP3    H257903   3.150   1.578  12.257  0.2895 -0.2439  0.2198
12138TIP3   OH257904   3.836   1.950   6.909  0.1853  0.3020 -0.5726
12138TIP3    H157905   3.893   1.873   6.909 -1.6622 -1.1534 -1.3550
12138TIP3    H257906   3.867   2.004   6.837  0.7487 -0.3114 -0.7957
12139TIP3   OH257907   2.950   2.289   0.532  0.4915  0.1911  0.1269
12139TIP3    H157908   3.034   2.253   0.562 -0.4163 -1.0098  1.3627
12139TIP3    H257909   2.974   2.356   0.469  2.4229  0.7024  1.3223
12140TIP3   OH257910   4.084   6.371  12.933 -0.1690 -0.0159  0.4194
12140TIP3    H157911   4.147   6.399  12.999  0.2400  0.8980 -0.3361
12140TIP3    H257912   4.001   6.364  12.980  0.0082  1.1269  0.9201
12141TIP3   OH257913   3.207   0.974  10.446  0.2344  0.6344  0.3240
12141TIP3    H157914   3.156   1.021  10.511  0.4065  0.7026  0.4125
12141TIP3    H257915   3.166   0.994  10.362 -0.1796  0.2911  0.4414
12142TIP3   OH257916   6.761   3.168  14.505 -0.2126  0.3427  0.2774
12142TIP3    H157917   6.726   3.247  14.546 -2.1435 -0.1214 -0.3715
12142TIP3    H257918   6.713   3.161  14.423  0.4872 -1.1016 -0.0354
12143TIP3   OH257919   4.400   4.266   2.746  0.6220  0.3648  0.4994
12143TIP3    H157920   4.419   4.187   2.797 -2.1289  0.1189  1.2944
12143TIP3    H257921   4.337   4.237   2.679  2.3583  1.1852 -1.6070
12144TIP3   OH257922   3.575   3.924  11.715 -0.1308  0.3143 -0.1731
12144TIP3    H157923   3.562   4.017  11.733 -0.1162 -0.0472  1.8615
12144TIP3    H257924   3.669   3.912  11.720 -0.1542  0.1272 -0.1933
12145TIP3   OH257925   5.473   6.536  12.685 -0.1302 -0.8543 -0.4286
12145TIP3    H157926   5.395   6.511  12.635 -0.3455  1.2606 -1.2634
12145TIP3    H257927   5.544   6.486  12.644 -0.8789 -2.1616 -0.2020
12146TIP3   OH257928   0.521   4.345   2.833 -0.3442 -0.2380  0.6360
12146TIP3    H157929   0.442   4.350   2.886 -1.8649 -1.0453 -1.4570
12146TIP3    H257930   0.492   4.315   2.747  2.0690  0.5968 -0.5811
12147TIP3   OH257931   6.431   5.384  17.099 -0.0312  0.6037 -0.3677
12147TIP3    H157932   6.367   5.431  17.045  0.9821 -0.3844 -2.5823
12147TIP3    H257933   6.488   5.452  17.133 -1.4235  1.3700  0.5162
12148TIP3   OH257934   6.410   1.371   3.120  0.0855  0.3177 -0.1641
12148TIP3    H157935   6.364   1.294   3.087  0.9252  0.0906 -0.8128
12148TIP3    H257936   6.500   1.343   3.132  0.2947  1.0595  0.0762
12149TIP3   OH257937   4.534   1.143  11.070  0.0218 -0.2324 -0.0623
12149TIP3    H157938   4.486   1.060  11.064  0.2551 -0.3404 -0.4586
12149TIP3    H257939   4.623   1.122  11.043  0.6809 -0.3359  2.0237
12150TIP3   OH257940   1.497   0.247   3.158  0.5905 -0.3568  0.8854
12150TIP3    H157941   1.430   0.195   3.203  0.6079 -0.1710  1.1270
12150TIP3    H257942   1.549   0.182   3.109  0.4084 -0.5309  0.9209
12151TIP3   OH257943   6.203   4.506  12.835 -0.0194 -0.5889  0.1733
12151TIP3    H157944   6.143   4.433  12.852 -2.1172  0.8228 -0.7108
12151TIP3    H257945   6.191   4.565  12.909  0.3094 -0.3127  0.0089
12152TIP3   OH257946   6.173   1.115   2.490  0.1687 -0.2667 -0.4799
12152TIP3    H157947   6.196   1.024   2.468 -0.3456 -0.0746 -1.9658
12152TIP3    H257948   6.094   1.108   2.542  1.2653 -0.7451  1.1939
12153TIP3   OH257949   4.368   0.125   1.735  0.1475 -0.2620 -0.3079
12153TIP3    H157950   4.459   0.096   1.728  0.1423 -0.4045  0.2116
12153TIP3    H257951   4.316   0.047   1.715  0.1244  0.1043 -1.8223
12154TIP3   OH257952   5.895   6.003   1.377 -0.0254  0.1027  0.3721
12154TIP3    H157953   5.888   6.054   1.296  0.4468  0.7764  0.7510
12154TIP3    H257954   5.989   5.995   1.392 -0.0473  2.4833  2.3878
12155TIP3   OH257955   0.282   4.056  14.867 -0.0722 -0.2918 -0.3305
12155TIP3    H157956   0.342   4.049  14.942 -1.3339 -1.0076  0.6585
12155TIP3    H257957   0.263   4.149  14.859  0.6135 -0.1398 -0.1971
12156TIP3   OH257958   0.624   6.592   0.756  0.4599  0.3862  0.0585
12156TIP3    H157959   0.534   6.616   0.735  0.7474 -0.3896 -2.3158
12156TIP3    H257960   0.662   6.672   0.794 -0.8262  1.1469 -0.2047
12157TIP3   OH257961   3.469   3.028   2.915  0.3968  0.4151  0.2734
12157TIP3    H157962   3.548   3.074   2.886  0.6169 -0.0573  0.0991
12157TIP3    H257963   3.403   3.096   2.925  0.0708  0.5291 -2.1377
12158TIP3   OH257964   1.109   3.458  11.889  0.0608  0.3196  0.4596
12158TIP3    H157965   1.101   3.375  11.842  0.7814  1.1146 -1.1667
12158TIP3    H257966   1.107   3.434  11.981  1.1388 -1.6177  0.0389
12159TIP3   OH257967   1.360   0.472   4.380  0.1284 -0.1211  0.1287
12159TIP3    H157968   1.382   0.493   4.289  0.9313 -1.4880 -0.0193
12159TIP3    H257969   1.277   0.424   4.373  1.0714 -1.8273 -0.1179
12160TIP3   OH257970   2.189   2.095  13.686  0.6166  0.4589  0.1438
12160TIP3    H157971   2.232   2.018  13.650  0.0489  0.6024 -0.8907
12160TIP3    H257972   2.258   2.161  13.692  0.9967  0.0228  0.5643
12161TIP3   OH257973   4.534   2.358   2.426  0.2400  0.1784 -0.0026
12161TIP3    H157974   4.598   2.319   2.365 -0.4248  0.7618 -1.0908
12161TIP3    H257975   4.517   2.288   2.489 -0.0432 -0.9110 -1.2403
12162TIP3   OH257976   3.301   6.542  16.180 -0.2046  0.0368 -0.8086
12162TIP3    H157977   3.357   6.619  16.182  2.9865 -1.9725  3.4449
12162TIP3    H257978   3.235   6.558  16.247  0.0933 -0.6429 -0.3416
12163TIP3   OH257979   4.468   3.786   1.473  0.4228 -0.0362  0.3186
12163TIP3    H157980   4.396   3.741   1.518 -0.2074 -0.9157 -1.4762
12163TIP3    H257981   4.539   3.721   1.471  0.4870  0.0391  0.1518
12164TIP3   OH257982   5.000   2.800  11.637  0.3609  0.0293  0.8036
12164TIP3    H157983   5.063   2.748  11.588  0.3109 -0.7568  1.5533
12164TIP3    H257984   4.920   2.799  11.584  0.6540  0.1466  0.3606
12165TIP3   OH257985   3.089   2.811   4.836 -0.2312 -0.2542 -0.4844
12165TIP3    H157986   3.015   2.856   4.878 -0.6388 -1.3328 -0.0067
12165TIP3    H257987   3.161   2.822   4.899 -0.2309  0.0222 -0.5300
12166TIP3   OH257988   6.234   3.373  12.355 -0.2339 -0.2352 -0.1066
12166TIP3    H157989   6.250   3.464  12.380 -0.4772 -0.7110  1.9685
12166TIP3    H257990   6.228   3.326  12.438 -1.9811 -1.8454 -1.0768
12167TIP3   OH257991   1.905   1.860  12.715 -0.5485 -0.2959 -0.0047
12167TIP3    H157992   1.919   1.953  12.699  3.6799 -0.5791  0.6662
12167TIP3    H257993   1.866   1.856  12.803 -0.6199  0.8353  0.0253
12168TIP3   OH257994   2.692   6.635   4.852 -0.0886  0.2785 -0.0708
12168TIP3    H157995   2.667   6.646   4.944  0.0821  1.7181 -0.1795
12168TIP3    H257996   2.771   6.687   4.842  0.6136 -0.8899 -0.7468
12169TIP3   OH257997   6.852   2.836   5.692  0.2426 -0.4296  0.5774
12169TIP3    H157998   6.891   2.920   5.717 -0.6509  0.4532 -0.8382
12169TIP3    H257999   6.870   2.828   5.598 -0.6163 -1.3089  0.4657
12170TIP3   OH258000   0.127   5.283  14.635  0.5485 -0.0281  0.1681
12170TIP3    H158001   0.148   5.291  14.728  2.2457  0.0414 -0.1776
12170TIP3    H258002   0.152   5.368  14.597  0.9147 -0.4272 -0.5110
12171TIP3   OH258003   4.741   1.422   1.497 -0.3419 -0.0444 -0.2918
12171TIP3    H158004   4.785   1.429   1.412 -0.6416 -0.2142 -0.4624
12171TIP3    H258005   4.650   1.400   1.475 -0.7756  1.3337  0.0083
12172TIP3   OH258006   4.403   1.491  11.291  0.2506 -0.2386 -0.1354
12172TIP3    H158007   4.409   1.398  11.311  0.6592 -0.5574 -1.6085
12172TIP3    H258008   4.472   1.506  11.226 -0.7691  0.7627 -1.0327
12173TIP3   OH258009   3.634   0.510  13.360 -0.6641  0.3454  0.4160
12173TIP3    H158010   3.688   0.450  13.412  0.9350  0.0997 -1.3853
12173TIP3    H258011   3.658   0.490  13.269 -3.0726  0.9730 -0.4309
12174TIP3   OH258012   4.101   4.664  15.180 -0.1205 -0.3540  0.3059
12174TIP3    H158013   4.151   4.658  15.261  0.0976  1.1019  0.3066
12174TIP3    H258014   4.048   4.744  15.190 -0.6186 -0.5405 -0.6985
12175TIP3   OH258015   5.740   2.965   4.989  0.4820 -0.2986  0.1324
12175TIP3    H158016   5.711   2.951   4.898 -0.6304  1.4420  0.1804
12175TIP3    H258017   5.677   2.917   5.042  0.7218 -0.7406  0.0216
12176TIP3   OH258018   3.590   3.478   0.210  0.2870 -0.5401  0.0297
12176TIP3    H158019   3.502   3.455   0.178  0.0060 -1.5606  1.4318
12176TIP3    H258020   3.650   3.433   0.151 -0.2271 -2.9087  1.2302
12177TIP3   OH258021   4.446   0.009   0.184 -0.4370 -0.2540  0.9036
12177TIP3    H158022   4.517   0.055   0.139 -0.7911 -2.0549 -1.7171
12177TIP3    H258023   4.482  -0.079   0.201 -1.6798 -0.8596  0.4862
12178TIP3   OH258024   6.432   3.774  12.598 -0.0725 -0.6622  0.5027
12178TIP3    H158025   6.392   3.764  12.512 -0.1548 -1.2340  0.6046
12178TIP3    H258026   6.510   3.828  12.582 -1.0257  0.7380  0.3541
12179TIP3   OH258027   4.566   2.529  14.661 -0.5389 -0.5219 -0.5905
12179TIP3    H158028   4.575   2.454  14.602  4.3193 -0.5030 -0.2168
12179TIP3    H258029   4.550   2.603  14.602 -0.1922 -1.1294 -1.4757
12180TIP3   OH258030   4.454   6.600  16.990 -0.4079  0.1357 -0.8605
12180TIP3    H158031   4.456   6.691  16.964 -0.3062 -0.0510 -1.5170
12180TIP3    H258032   4.404   6.599  17.072  1.9788  1.1486  0.7062
12181TIP3   OH258033   3.972   1.675   5.630  0.0624  0.0336  0.1554
12181TIP3    H158034   4.057   1.662   5.588 -0.5441 -1.0927 -0.7488
12181TIP3    H258035   3.987   1.747   5.692  1.7008 -0.2347  0.1048
12182TIP3   OH258036   0.202   5.407   2.645  0.3967 -0.2632  0.4757
12182TIP3    H158037   0.141   5.367   2.707  0.6668 -0.1243  0.8355
12182TIP3    H258038   0.287   5.368   2.666  0.4133 -0.5398 -0.0965
12183TIP3   OH258039   1.516   3.060   5.977  0.4297 -0.1605  0.3179
12183TIP3    H158040   1.571   3.073   6.055 -0.7643 -1.1571  1.3806
12183TIP3    H258041   1.427   3.078   6.009  0.1519  2.2598 -1.5485
12184TIP3   OH258042   1.820   3.739  16.314 -0.3517 -0.1880 -0.2200
12184TIP3    H158043   1.911   3.729  16.340 -0.3103  1.1724  0.2244
12184TIP3    H258044   1.814   3.693  16.230  0.5417 -0.9688  0.1314
12185TIP3   OH258045   2.458   3.174  15.833 -0.7091  0.2006 -0.2983
12185TIP3    H158046   2.493   3.204  15.749 -0.1550 -2.3948 -1.0836
12185TIP3    H258047   2.484   3.242  15.895  1.8023  0.6152 -1.6534
12186TIP3   OH258048   3.507   3.320  14.396 -0.3659 -0.6522 -0.4033
12186TIP3    H158049   3.591   3.285  14.426 -0.4562 -1.7921 -1.4059
12186TIP3    H258050   3.530   3.392  14.339 -0.1529  0.4677  1.0353
12187TIP3   OH258051   4.309   1.563  15.282  0.5770 -0.5842  0.0840
12187TIP3    H158052   4.320   1.657  15.268 -2.5164 -0.1968 -0.3870
12187TIP3    H258053   4.299   1.554  15.377 -2.7306  0.1616 -0.0871
12188TIP3   OH258054   1.919   3.297  15.959 -0.0851 -0.1457 -0.2866
12188TIP3    H158055   1.832   3.296  15.920 -0.4347 -0.2941  0.4771
12188TIP3    H258056   1.931   3.208  15.993  0.1164  0.0407  0.1363
12189TIP3   OH258057   2.645   0.257  11.859  0.1724 -0.3204 -0.0463
12189TIP3    H158058   2.648   0.349  11.885 -0.5914 -0.2162 -0.3120
12189TIP3    H258059   2.571   0.251  11.799  0.3987 -1.0508 -0.2637
12190TIP3   OH258060   6.723   3.233  11.581  0.0586  0.1820  0.0809
12190TIP3    H158061   6.713   3.139  11.566  1.1133  0.0468  0.1733
12190TIP3    H258062   6.678   3.274  11.507  0.1728 -0.3971 -0.3153
12191TIP3   OH258063   3.417   3.569  13.203 -0.2664 -0.0579  0.1493
12191TIP3    H158064   3.349   3.510  13.171 -1.8733  2.8331 -2.4221
12191TIP3    H258065   3.453   3.609  13.123  1.5365  1.5534  1.6569
12192TIP3   OH258066   2.880   5.130  12.260  0.0559 -0.3982  0.5885
12192TIP3    H158067   2.959   5.184  12.261 -0.4851  0.4114  1.3028
12192TIP3    H258068   2.911   5.042  12.244  1.3019 -0.3663  2.5342
12193TIP3   OH258069   3.743   4.410  13.652 -0.2762 -0.3221 -0.3329
12193TIP3    H158070   3.707   4.343  13.595 -0.2039  1.4430 -2.6096
12193TIP3    H258071   3.838   4.400  13.646 -0.2695 -1.0173  0.6614
12194TIP3   OH258072   1.596   6.626   0.912  0.7198 -0.1992  0.3423
12194TIP3    H158073   1.543   6.635   0.833 -2.2313 -1.4614  2.0290
12194TIP3    H258074   1.654   6.703   0.910  0.1510  0.2874 -2.5289
12195TIP3   OH258075   2.198   6.842  13.159  0.1577 -0.4605 -1.3477
12195TIP3    H158076   2.278   6.790  13.158 -0.3984 -1.7924  2.6580
12195TIP3    H258077   2.128   6.778  13.175 -0.8769  1.1590  1.2742
12196TIP3   OH258078   2.916   6.770   4.823  0.0464 -0.3849  0.1986
12196TIP3    H158079   2.985   6.742   4.762  1.1696 -0.3508  1.3963
12196TIP3    H258080   2.957   6.838   4.876 -1.2552  0.3722  0.2673
12197TIP3   OH258081   2.422   0.485   5.122 -0.0577 -0.2713  0.3431
12197TIP3    H158082   2.463   0.402   5.150  0.0826 -0.3602 -0.1106
12197TIP3    H258083   2.422   0.480   5.026 -1.2010 -0.2958  0.3398
12198TIP3   OH258084   4.965   1.926  14.013  0.0575  0.1258  0.1035
12198TIP3    H158085   4.990   1.975  13.935  0.2637  0.0091  0.0967
12198TIP3    H258086   4.874   1.899  13.996 -0.4121  1.3506  0.5313
12199TIP3   OH258087   6.224   5.248  12.428 -0.1521  0.7752  0.4654
12199TIP3    H158088   6.184   5.168  12.393  1.8971 -0.1792  0.1889
12199TIP3    H258089   6.287   5.218  12.493 -0.4832  2.2816  1.5408
12200TIP3   OH258090   5.356   6.565   0.940 -0.0212  0.4979 -0.0372
12200TIP3    H158091   5.443   6.525   0.937  0.3864  1.4026 -1.3612
12200TIP3    H258092   5.300   6.503   0.892  0.5280  1.2634 -1.7491
12201TIP3   OH258093   0.425   1.019  11.093  0.3682 -0.1341  0.0087
12201TIP3    H158094   0.377   1.098  11.069  1.0628 -0.1797 -1.6492
12201TIP3    H258095   0.403   1.005  11.185 -0.2604  1.6348  0.1718
12202TIP3   OH258096   6.699   3.755   5.059 -0.5998 -0.1725 -0.0446
12202TIP3    H158097   6.607   3.742   5.081 -0.6311  0.2064  0.0463
12202TIP3    H258098   6.742   3.676   5.092 -0.9245 -0.4606 -0.2998
12203TIP3   OH258099   3.923   2.269  17.058 -0.3293  0.1827  0.0033
12203TIP3    H158100   3.851   2.217  17.024 -2.0279  3.0390 -1.1678
12203TIP3    H258101   3.894   2.360  17.047  2.5961  1.4332  1.4597
12204TIP3   OH258102   6.627   3.703   3.064  0.1786 -0.4441  0.0564
12204TIP3    H158103   6.564   3.647   3.110  0.7215 -0.1063  1.2539
12204TIP3    H258104   6.666   3.646   2.998 -2.1430 -0.3783 -1.5063
12205TIP3   OH258105   6.662   0.236  10.415  0.4792 -0.3762  0.0930
12205TIP3    H158106   6.584   0.273  10.373 -0.7206 -0.0370  2.4453
12205TIP3    H258107   6.708   0.192  10.345 -0.6714  1.3083 -1.8365
12206TIP3   OH258108   5.209   4.651  16.718 -0.0337 -0.1569  0.0368
12206TIP3    H158109   5.287   4.595  16.710 -0.1873 -0.5907  1.3542
12206TIP3    H258110   5.140   4.601  16.675  0.7031  0.9470 -2.6176
12207TIP3   OH258111   5.227   1.338   3.983 -0.1021 -0.1676  0.1924
12207TIP3    H158112   5.185   1.422   4.004  0.0491 -0.4205  1.5834
12207TIP3    H258113   5.273   1.354   3.901 -2.4494  0.2915 -1.1253
12208TIP3   OH258114   4.895   2.705   3.437 -0.6417  0.3318  0.2581
12208TIP3    H158115   4.818   2.650   3.426 -0.3287 -0.1805  0.5277
12208TIP3    H258116   4.875   2.760   3.513 -1.2566  1.1315 -0.4711
12209TIP3   OH258117   5.747   4.284   0.685 -0.5545  0.3391 -0.1385
12209TIP3    H158118   5.817   4.226   0.654 -0.9799  0.2635 -0.9836
12209TIP3    H258119   5.779   4.318   0.769 -0.3928 -1.2987  0.5070
12210TIP3   OH258120   6.017   5.251  12.993 -0.0473 -0.7810  0.5299
12210TIP3    H158121   5.946   5.304  13.030  0.3319 -0.0814  0.2910
12210TIP3    H258122   5.991   5.161  13.008 -0.6827 -0.5228  1.0199
12211TIP3   OH258123   0.696   5.303   3.841  0.0925 -0.3119 -0.6157
12211TIP3    H158124   0.730   5.233   3.896  0.7528 -0.1782 -0.8463
12211TIP3    H258125   0.674   5.260   3.759 -0.1634 -0.3700 -0.5190
12212TIP3   OH258126   5.123   1.207   6.382 -1.0775 -0.6532 -0.6817
12212TIP3    H158127   5.150   1.173   6.468 -1.8516 -1.8309 -0.8752
12212TIP3    H258128   5.085   1.293   6.401  0.3811 -0.1015 -0.0893
12213TIP3   OH258129   0.194   1.628   1.209 -0.0195  0.3178  0.0867
12213TIP3    H158130   0.231   1.643   1.122 -0.2105 -1.3857 -0.3188
12213TIP3    H258131   0.108   1.670   1.207  0.4426  1.2784 -0.1366
12214TIP3   OH258132   4.010   2.590  16.877 -1.0351  0.4895 -0.2857
12214TIP3    H158133   4.060   2.669  16.855 -2.4240  2.3067  2.4216
12214TIP3    H258134   3.993   2.547  16.793  1.5390  1.9332 -1.6602
12215TIP3   OH258135   2.903   1.298  16.011  0.0464 -0.3573  0.4187
12215TIP3    H158136   2.864   1.379  16.044 -0.8203 -0.8727  0.6977
12215TIP3    H258137   2.977   1.327  15.958 -0.7182  0.6614 -0.1312
12216TIP3   OH258138   0.233   4.725  16.587 -0.6698  0.3209  0.4269
12216TIP3    H158139   0.217   4.815  16.558 -2.6647 -0.0705  0.1755
12216TIP3    H258140   0.314   4.730  16.638 -0.6086  2.2117  0.2002
12217TIP3   OH258141   1.139   1.592  10.935 -0.4789  0.2188  0.0506
12217TIP3    H158142   1.192   1.523  10.974  0.2760  0.4165 -0.5894
12217TIP3    H258143   1.180   1.673  10.965 -0.9949  0.3878  0.3126
12218TIP3   OH258144   5.051   1.450  12.072 -0.4402  0.2688  0.2283
12218TIP3    H158145   5.142   1.441  12.042  0.0139 -0.2900  1.6842
12218TIP3    H258146   5.058   1.482  12.162 -1.6485 -0.5670  0.6480
12219TIP3   OH258147   1.168   5.997   2.012 -0.2236  0.3171 -0.1749
12219TIP3    H158148   1.240   6.045   1.971  0.7721 -0.2513  0.8209
12219TIP3    H258149   1.197   5.985   2.103 -2.5761  2.0001  0.8843
12220TIP3   OH258150   5.547   1.561  13.483  0.4114  0.2095 -0.7670
12220TIP3    H158151   5.556   1.527  13.394 -0.5700 -0.0057 -0.8024
12220TIP3    H258152   5.453   1.576  13.493  0.7842  3.5134 -0.9794
12221TIP3   OH258153   1.792   2.648  10.888 -0.9964  0.0385  0.4368
12221TIP3    H158154   1.885   2.641  10.912 -0.1503 -0.2725 -2.5342
12221TIP3    H258155   1.749   2.582  10.943  0.8096 -0.9679  0.7379
12222TIP3   OH258156   3.743   5.670  14.876  0.2142  0.1517 -0.2888
12222TIP3    H158157   3.726   5.623  14.957  0.3607 -1.8827 -1.3894
12222TIP3    H258158   3.676   5.739  14.874 -0.1274 -0.1073  1.2664
12223TIP3   OH258159   1.513   3.540   3.722 -0.6321 -0.3124 -0.3455
12223TIP3    H158160   1.608   3.551   3.715 -0.2601 -0.3558  3.1397
12223TIP3    H258161   1.500   3.446   3.715 -0.2915 -0.4095  0.3088
12224TIP3   OH258162   5.636   0.414  11.826 -0.4511  0.0819  0.6036
12224TIP3    H158163   5.724   0.375  11.821 -0.5775 -0.3090  1.2957
12224TIP3    H258164   5.613   0.432  11.735 -0.1396 -0.9094  0.3166
12225TIP3   OH258165   0.626   6.657  15.839  0.4399 -0.3026  0.5614
12225TIP3    H158166   0.678   6.698  15.769 -1.8276  0.3668 -0.8567
12225TIP3    H258167   0.631   6.564  15.820  2.0715 -0.3805  1.1957
12226TIP3   OH258168   3.064   5.153  10.690  0.2354 -0.4805  0.2768
12226TIP3    H158169   3.046   5.070  10.645  1.0754  0.2327 -1.4497
12226TIP3    H258170   3.107   5.207  10.625 -0.5404  1.4514  1.2898
12227TIP3   OH258171   3.639   5.947   3.831  0.3641 -0.1138  0.4614
12227TIP3    H158172   3.644   5.874   3.894 -0.7184 -0.9147 -0.3444
12227TIP3    H258173   3.729   5.955   3.798  1.1068  0.7132  2.4851
12228TIP3   OH258174   4.110   2.258  13.780  0.5694 -0.2913  0.2240
12228TIP3    H158175   4.033   2.315  13.783  0.9836  0.2890 -0.0826
12228TIP3    H258176   4.160   2.288  13.704 -0.1932 -2.3672 -1.1949
12229TIP3   OH258177   6.403   4.006  14.867 -0.3303 -0.2792  0.4129
12229TIP3    H158178   6.445   4.028  14.783  0.8218  0.2581  1.1096
12229TIP3    H258179   6.355   3.925  14.849  1.7861 -1.4625 -0.1858
12230TIP3   OH258180   5.475   2.032   2.047 -0.2529  0.0069  0.3209
12230TIP3    H158181   5.505   2.009   2.135  0.9227  1.8262  0.4704
12230TIP3    H258182   5.520   1.970   1.990  1.3517  0.6308  0.8212
12231TIP3   OH258183   1.227   0.423   0.606 -0.4891  0.2618  0.0952
12231TIP3    H158184   1.133   0.436   0.598 -0.6170 -1.6975 -2.7591
12231TIP3    H258185   1.237   0.347   0.664 -0.5167  1.3522  1.6035
12232TIP3   OH258186   4.836   2.132  14.493 -0.4163 -0.4275  0.0608
12232TIP3    H158187   4.758   2.084  14.464 -1.2074  1.4112 -1.0346
12232TIP3    H258188   4.807   2.181  14.569 -0.3747  0.3348 -0.4035
12233TIP3   OH258189   2.404   1.645  12.986  0.7225 -0.3616  0.5378
12233TIP3    H158190   2.404   1.696  13.067  1.0648  1.9634 -0.8344
12233TIP3    H258191   2.316   1.606  12.982  1.2108 -1.8712  2.7513
12234TIP3   OH258192   5.240   5.274   2.464  0.0766  0.0974 -0.2041
12234TIP3    H158193   5.202   5.294   2.379 -1.1295 -1.1082  0.0136
12234TIP3    H258194   5.173   5.223   2.510  1.0661 -0.1112  1.0999
12235TIP3   OH258195   5.948   1.704  13.456  0.1739  0.1678  0.0680
12235TIP3    H158196   5.941   1.614  13.489  0.9188  0.0623 -0.0425
12235TIP3    H258197   5.932   1.759  13.532 -0.3035 -0.0499  0.1339
12236TIP3   OH258198   0.044   2.429  12.973 -0.4135  0.7658 -0.8595
12236TIP3    H158199  -0.044   2.451  13.002 -0.5070 -0.8858  0.2233
12236TIP3    H258200   0.032   2.391  12.886 -0.8884 -0.2226 -0.3768
12237TIP3   OH258201   3.514   6.492   3.175  0.4120 -0.3951  0.4752
12237TIP3    H158202   3.566   6.523   3.101 -0.3124 -1.3070 -0.4502
12237TIP3    H258203   3.425   6.523   3.156 -0.3820 -3.0372 -0.5727
12238TIP3   OH258204   4.104   6.468  13.531 -0.3686  0.0808  0.0879
12238TIP3    H158205   4.064   6.555  13.525 -0.8785 -0.0865  0.8493
12238TIP3    H258206   4.192   6.479  13.495 -0.1136  1.1219  0.9797
12239TIP3   OH258207   6.234   4.121   4.997 -0.2268  0.1604  0.3336
12239TIP3    H158208   6.191   4.145   4.915  0.6059 -1.2930 -0.5774
12239TIP3    H258209   6.167   4.135   5.064 -1.9821 -1.4634 -0.9662
12240TIP3   OH258210   0.361   3.640  12.628  0.4054 -0.0161 -0.5311
12240TIP3    H158211   0.346   3.592  12.546  0.6939 -2.6060  0.8069
12240TIP3    H258212   0.286   3.618  12.683  0.7135  0.8225  0.2547
12241TIP3   OH258213   1.676   3.490   3.464 -0.0730 -0.2805 -0.5417
12241TIP3    H158214   1.655   3.506   3.372  0.4327  0.4714 -0.5374
12241TIP3    H258215   1.594   3.458   3.502 -1.2445  2.3788 -0.5567
12242TIP3   OH258216   0.233   4.790   2.039  0.6063 -0.4092 -0.1881
12242TIP3    H158217   0.231   4.814   1.946 -2.3333  0.0016 -0.1174
12242TIP3    H258218   0.215   4.696   2.039 -2.1778  0.0138 -0.0759
12243TIP3   OH258219   1.274   4.321  12.274 -0.1575 -0.4019  0.5307
12243TIP3    H158220   1.232   4.238  12.251  0.5435 -0.6947  0.2715
12243TIP3    H258221   1.354   4.322  12.222 -0.4999  0.7674  0.0096
12244TIP3   OH258222   6.775   0.217  10.673 -0.6043  0.1899 -0.1745
12244TIP3    H158223   6.792   0.306  10.704 -0.3486 -0.3587  1.3670
12244TIP3    H258224   6.733   0.228  10.588  0.0167  1.7602 -0.3102
12245TIP3   OH258225   3.041   6.640   6.115 -0.3960  0.4458 -0.0186
12245TIP3    H158226   3.063   6.671   6.203 -0.8551 -1.7707  0.9330
12245TIP3    H258227   2.945   6.646   6.112 -0.3258  1.5339 -0.8137
12246TIP3   OH258228   3.675   1.259  13.446  0.7566 -0.2566 -0.3991
12246TIP3    H158229   3.736   1.297  13.510 -0.2886  0.8222 -0.0162
12246TIP3    H258230   3.725   1.189  13.405  1.6033 -0.7115  1.3143
12247TIP3   OH258231   5.701   6.542  16.294  0.5273  0.4422 -0.1936
12247TIP3    H158232   5.751   6.578  16.368 -0.3404 -1.7266  1.5925
12247TIP3    H258233   5.760   6.548  16.219  0.8702  4.2663  0.1723
12248TIP3   OH258234   5.867   6.416   4.230  0.0778  0.6401  0.2307
12248TIP3    H158235   5.927   6.347   4.200  0.2639  1.7826 -2.1845
12248TIP3    H258236   5.924   6.490   4.252 -0.2455  0.5990  1.3028
12249TIP3   OH258237   2.798   0.788   3.695  0.0002 -0.2639 -0.6406
12249TIP3    H158238   2.818   0.863   3.751  0.2709 -1.0384  0.3303
12249TIP3    H258239   2.714   0.756   3.727 -0.2714 -0.1785 -1.2666
12250TIP3   OH258240   3.621   6.517  16.189 -0.0025 -0.0321  0.1025
12250TIP3    H158241   3.612   6.429  16.227 -0.5794  0.3627  0.9137
12250TIP3    H258242   3.617   6.576  16.265 -1.9929  0.8413 -0.6000
12251TIP3   OH258243   2.508   1.109   0.768  0.0061  0.3473 -0.8671
12251TIP3    H158244   2.438   1.046   0.781 -0.1228  0.5618 -0.5128
12251TIP3    H258245   2.553   1.079   0.689  1.4371 -1.5478  0.5767
12252TIP3   OH258246   0.788   6.076  14.342 -0.0093 -0.2016  0.0438
12252TIP3    H158247   0.737   6.004  14.380  1.9652  0.0808  3.6962
12252TIP3    H258248   0.756   6.154  14.387  2.0989  0.2426  0.9066
12253TIP3   OH258249   1.176   4.453   2.980 -0.8012  0.0348 -0.1164
12253TIP3    H158250   1.096   4.496   3.011 -0.7107 -1.6443  2.8197
12253TIP3    H258251   1.246   4.513   3.004 -0.9632  0.0393  0.3609
12254TIP3   OH258252   0.388   0.628   3.546  0.1270  0.0896  0.4444
12254TIP3    H158253   0.429   0.555   3.592  0.9200  0.5316  0.4578
12254TIP3    H258254   0.383   0.600   3.455 -0.0776 -0.2007  0.5452
12255TIP3   OH258255   2.408   6.068  16.996  0.2005  0.0203  0.0151
12255TIP3    H158256   2.338   6.033  16.942  0.4255  0.5373 -0.6214
12255TIP3    H258257   2.392   6.163  16.998  1.0780  0.1868 -0.4237
12256TIP3   OH258258   0.773   5.098   4.793  0.4922 -0.3099  0.6818
12256TIP3    H158259   0.738   5.151   4.721 -0.2348  1.7158  2.4163
12256TIP3    H258260   0.696   5.070   4.842  0.9904 -1.5582  0.7898
12257TIP3   OH258261   4.032   4.967  14.848  0.1301 -0.1767  0.3844
12257TIP3    H158262   4.005   5.051  14.813 -1.3257 -0.0492  1.7222
12257TIP3    H258263   4.019   4.975  14.943  2.1448 -1.1311  0.8029
12258TIP3   OH258264   4.520   1.861  12.195 -0.4365  0.0077  0.0925
12258TIP3    H158265   4.478   1.778  12.169 -0.4242 -0.3480  1.1645
12258TIP3    H258266   4.495   1.922  12.126 -1.9016 -0.4500  0.1705
12259TIP3   OH258267   0.407   1.147   3.227  0.0303  0.4294 -0.1955
12259TIP3    H158268   0.449   1.078   3.279 -2.1794 -0.3650  0.6426
12259TIP3    H258269   0.460   1.225   3.244  2.4702 -0.9248 -0.9832
12260TIP3   OH258270   4.190   6.099   2.390  0.0394  0.2400 -0.1176
12260TIP3    H158271   4.162   6.051   2.311  0.7788  1.4531 -1.1494
12260TIP3    H258272   4.146   6.183   2.384  0.5858  0.5732  0.4492
12261TIP3   OH258273   3.145   2.021  16.693  0.0418 -0.6689  0.6140
12261TIP3    H158274   3.057   2.009  16.657 -0.6211  0.8455  1.6146
12261TIP3    H258275   3.203   2.004  16.619 -1.1645  0.0022 -0.5478
12262TIP3   OH258276   5.002   5.757  15.450  0.5188 -0.4135 -0.3675
12262TIP3    H158277   5.086   5.731  15.413  1.1731  0.4117  0.4722
12262TIP3    H258278   4.954   5.675  15.461  1.2632 -0.9102 -0.7555
12263TIP3   OH258279   4.218   2.682  14.794 -0.3241  0.4189  0.5152
12263TIP3    H158280   4.279   2.720  14.731 -0.6708 -0.2646 -0.2501
12263TIP3    H258281   4.176   2.610  14.747 -1.0030  0.2503  1.3475
12264TIP3   OH258282   0.309   2.131   3.041  0.1085  0.2856 -0.1336
12264TIP3    H158283   0.294   2.040   3.069 -0.5744  0.6503  0.7261
12264TIP3    H258284   0.317   2.126   2.946  0.1815 -0.6906 -0.0868
12265TIP3   OH258285   5.423   5.641  13.982 -0.1910  0.1716  0.5928
12265TIP3    H158286   5.439   5.573  13.917 -0.0094  1.0901 -0.3521
12265TIP3    H258287   5.505   5.692  13.984 -1.2611  2.1292 -0.9148
12266TIP3   OH258288   6.557   6.696  11.359  0.2293 -0.6595 -0.3052
12266TIP3    H158289   6.638   6.675  11.404  0.5518  1.0717 -0.0255
12266TIP3    H258290   6.573   6.669  11.268  1.1084 -0.3836 -0.2448
12267TIP3   OH258291   4.613   0.846   2.845  0.1033  0.2567  0.4016
12267TIP3    H158292   4.578   0.885   2.765 -0.9224  0.3215  0.8740
12267TIP3    H258293   4.603   0.914   2.911  2.2634  0.7472  0.3101
12268TIP3   OH258294   0.028   1.845   3.522 -0.3521  0.1346  0.9380
12268TIP3    H158295  -0.037   1.780   3.495  1.5808 -1.6960  0.4578
12268TIP3    H258296  -0.019   1.901   3.585 -2.9333  0.1657 -0.8612
12269TIP3   OH258297   6.412   2.290  16.166 -0.0608 -0.0474  0.8891
12269TIP3    H158298   6.494   2.243  16.151  1.9136  3.0600  0.9474
12269TIP3    H258299   6.383   2.316  16.078 -0.2193  0.0538  0.9707
12270TIP3   OH258300   5.090   0.135  14.690  0.4053 -0.0860  0.1674
12270TIP3    H158301   5.061   0.218  14.652 -1.8686 -1.3891 -1.1675
12270TIP3    H258302   5.129   0.160  14.774 -2.2973  2.1939  0.9339
12271TIP3   OH258303   5.573   6.531   2.756  0.1737 -0.8441 -0.0901
12271TIP3    H158304   5.612   6.464   2.701  0.0277 -1.0404  0.0437
12271TIP3    H258305   5.566   6.490   2.842 -0.9864 -1.0645 -0.2762
12272TIP3   OH258306   0.578   3.839   5.284 -0.0389 -0.5310 -0.4367
12272TIP3    H158307   0.657   3.831   5.230  1.5790  0.1488  1.7305
12272TIP3    H258308   0.581   3.928   5.318 -0.9455 -0.9721  0.8692
12273TIP3   OH258309   2.404   2.661   0.085 -0.1837  0.3904 -0.3102
12273TIP3    H158310   2.375   2.721   0.153 -0.8390 -1.6327  1.2750
12273TIP3    H258311   2.323   2.631   0.043 -0.1453 -1.6167  0.9342
12274TIP3   OH258312   5.716   3.325   4.051  0.2116 -0.2973  0.5655
12274TIP3    H158313   5.791   3.347   4.105 -1.6686  1.7528  2.5924
12274TIP3    H258314   5.680   3.246   4.090  0.6599 -0.6214  0.3210
12275TIP3   OH258315   1.963   5.599  12.867  0.2477 -0.0664 -0.0477
12275TIP3    H158316   1.905   5.540  12.819  0.1867 -0.5254  0.5824
12275TIP3    H258317   2.038   5.545  12.892  0.8104  0.4445 -0.5791
12276TIP3   OH258318   1.056   6.136   0.101 -0.4905 -0.3764 -0.3696
12276TIP3    H158319   1.029   6.045   0.087  0.2400 -0.9979  1.8701
12276TIP3    H258320   1.128   6.131   0.164 -0.9995  1.7935  0.5021
12277TIP3   OH258321   0.493   1.775   1.125  0.3677 -0.0758 -0.3298
12277TIP3    H158322   0.415   1.803   1.077  0.7115  0.0369 -0.8335
12277TIP3    H258323   0.565   1.816   1.078  0.8398 -1.3008 -0.7064
12278TIP3   OH258324   5.068   4.705  13.057 -0.3488 -0.0971  0.0697
12278TIP3    H158325   5.123   4.733  13.130 -0.1291  1.1063 -0.5335
12278TIP3    H258326   5.087   4.611  13.048  0.0208 -0.1420  1.2012
12279TIP3   OH258327   1.339   2.599   5.700  0.0011 -0.3427 -0.2124
12279TIP3    H158328   1.379   2.681   5.730 -2.8333  0.1849  2.7931
12279TIP3    H258329   1.248   2.622   5.681 -0.3024 -2.3888 -1.5980
12280TIP3   OH258330   1.775   4.064   3.852  0.2728 -0.9622  0.1098
12280TIP3    H158331   1.859   4.069   3.897 -0.4010  0.9634  1.2170
12280TIP3    H258332   1.714   4.111   3.908 -0.6303  1.5534 -2.7248
12281TIP3   OH258333   6.394   4.153  11.674  0.0429  0.2808 -0.2485
12281TIP3    H158334   6.387   4.157  11.578  1.2302  0.5332 -0.3411
12281TIP3    H258335   6.487   4.142  11.690 -0.0425  1.0971  0.9116
12282TIP3   OH258336   5.492   5.808  16.370  0.4264 -0.2895 -0.2498
12282TIP3    H158337   5.560   5.854  16.419 -0.5508 -0.5490  1.4286
12282TIP3    H258338   5.414   5.814  16.425 -2.0880  3.1911 -3.6679
12283TIP3   OH258339   0.265   0.628  16.636 -0.5578  0.1662 -0.7234
12283TIP3    H158340   0.345   0.577  16.619 -0.0717  0.7001 -0.0629
12283TIP3    H258341   0.286   0.716  16.605  0.0117  0.9348  1.7095
12284TIP3   OH258342   1.682   0.809   5.972 -0.0419  0.2036  0.0975
12284TIP3    H158343   1.762   0.764   5.999 -1.2859 -1.0501  1.8790
12284TIP3    H258344   1.635   0.826   6.053 -1.7595  0.6099 -0.9301
12285TIP3   OH258345   4.638   5.777  11.744 -0.4298  0.0327 -0.2202
12285TIP3    H158346   4.551   5.759  11.778  0.7383 -2.5787  1.7111
12285TIP3    H258347   4.697   5.724  11.798  2.2177  0.4544 -2.4512
12286TIP3   OH258348   6.219   4.249   4.177 -0.2201  0.1127  0.0689
12286TIP3    H158349   6.155   4.296   4.125 -1.7831  0.5207  2.2181
12286TIP3    H258350   6.170   4.218   4.254  1.7915 -1.0039  0.9978
12287TIP3   OH258351   2.923   1.267  12.517 -0.4105 -0.3425 -0.9624
12287TIP3    H158352   2.929   1.349  12.467 -0.2642  0.3062  0.0931
12287TIP3    H258353   3.005   1.221  12.496  0.6144  0.8440  0.2283
12288TIP3   OH258354   2.295   1.143  14.034  0.3607 -0.0909 -0.5188
12288TIP3    H158355   2.290   1.189  14.117  1.0008  0.8534 -0.9792
12288TIP3    H258356   2.382   1.164  14.000  0.3653 -0.9960 -1.1279
12289TIP3   OH258357   5.545   4.895  12.673 -0.2167  0.5048 -0.0257
12289TIP3    H158358   5.598   4.844  12.734  1.0338  2.7580  0.8788
12289TIP3    H258359   5.523   4.833  12.603  0.0570 -1.5964  1.6370
12290TIP3   OH258360   6.593   0.867  15.669  0.2787 -0.4329  0.7358
12290TIP3    H158361   6.628   0.880  15.581 -1.7267 -0.2464 -0.0950
12290TIP3    H258362   6.657   0.812  15.713  2.1403  0.8365 -0.2748
12291TIP3   OH258363   0.129   6.470   3.502  0.2575  0.6071 -0.0598
12291TIP3    H158364   0.214   6.428   3.490  0.4688  1.1317 -0.4195
12291TIP3    H258365   0.142   6.559   3.470 -0.5943  0.5147 -0.6670
12292TIP3   OH258366   0.744   2.835  15.891 -0.1311  0.8195  0.6584
12292TIP3    H158367   0.759   2.760  15.834 -1.1137 -0.4588  2.0138
12292TIP3    H258368   0.649   2.843  15.895 -0.0734  1.0345  1.9059
12293TIP3   OH258369   2.017   6.083  11.809 -0.3278 -0.7983 -0.7756
12293TIP3    H158370   1.992   6.172  11.787  0.7402 -0.3670 -0.3074
12293TIP3    H258371   2.096   6.066  11.757 -1.1669 -1.8968 -1.7461
12294TIP3   OH258372   0.302   4.063  15.313 -0.3818  0.0701  0.6040
12294TIP3    H158373   0.208   4.055  15.323 -0.5087  0.4206 -0.2159
12294TIP3    H258374   0.316   4.061  15.218  0.3436  0.9396  0.6812
12295TIP3   OH258375   2.917   3.863  15.304 -0.4824  0.2940  0.1944
12295TIP3    H158376   2.870   3.916  15.368 -0.5340 -0.0286  0.4229
12295TIP3    H258377   2.966   3.927  15.252 -2.7806  0.8791 -1.4297
12296TIP3   OH258378   6.416   5.195  11.718 -0.2053  0.3532  0.4277
12296TIP3    H158379   6.335   5.146  11.704 -0.3773  0.5022  0.9016
12296TIP3    H258380   6.414   5.221  11.810  2.4285 -3.3843  1.7697
12297TIP3   OH258381   0.553   1.355   3.297  0.3554 -0.5429  0.2226
12297TIP3    H158382   0.592   1.380   3.381  2.1244  0.6156 -0.8629
12297TIP3    H258383   0.554   1.435   3.245  0.3508 -1.4650 -1.2823
12298TIP3   OH258384   2.962   4.638  16.741  0.5084 -0.6734  0.7531
12298TIP3    H158385   3.019   4.650  16.817  1.5588 -0.5768 -0.0263
12298TIP3    H258386   3.012   4.675  16.668 -1.1507  0.7064  0.2601
12299TIP3   OH258387   6.784   3.737  12.250  0.1463  0.6568 -0.3786
12299TIP3    H158388   6.742   3.661  12.293  2.0511  0.0748  0.5490
12299TIP3    H258389   6.803   3.706  12.161 -0.0222  0.4189 -0.3352
12300TIP3   OH258390   2.223   1.235   2.186 -0.3317  0.3320 -0.2053
12300TIP3    H158391   2.235   1.140   2.178  1.4324  0.6334 -1.9803
12300TIP3    H258392   2.287   1.262   2.252 -0.4306  0.3507 -0.1173
12301TIP3   OH258393   0.768   1.342   6.347 -0.1220  0.9465  0.0938
12301TIP3    H158394   0.847   1.387   6.377  0.1584 -0.5103  1.6506
12301TIP3    H258395   0.698   1.377   6.402  0.4108 -1.8082  2.7343
12302TIP3   OH258396   6.564   5.862  11.269 -0.5247  0.3455 -0.0219
12302TIP3    H158397   6.538   5.770  11.260  1.3372 -0.5153  2.2372
12302TIP3    H258398   6.529   5.889  11.354 -0.9142  1.7200 -0.5880
12303TIP3   OH258399   4.311   3.463  11.046 -0.1382  0.2406 -0.0011
12303TIP3    H158400   4.268   3.409  10.979  0.8984 -0.8064  0.1365
12303TIP3    H258401   4.279   3.427  11.129 -0.8797  1.0759  0.0846
12304TIP3   OH258402   0.215   0.517  14.372 -0.6182  0.4612 -0.3560
12304TIP3    H158403   0.126   0.495  14.399 -0.5559  0.8086  0.1348
12304TIP3    H258404   0.271   0.470  14.434 -0.4784  1.8187  0.5819
12305TIP3   OH258405   4.947   4.072  16.532  0.2778  0.3569 -0.1347
12305TIP3    H158406   4.882   4.108  16.593  0.2338  2.3550 -1.2843
12305TIP3    H258407   5.018   4.136  16.532  0.9082 -0.3133 -1.1400
12306TIP3   OH258408   3.846   1.318   6.269  0.0802 -0.2322 -0.0734
12306TIP3    H158409   3.927   1.354   6.303 -0.6258  0.9367  0.4583
12306TIP3    H258410   3.791   1.395   6.253 -1.8038 -1.0611  1.8708
12307TIP3   OH258411   0.028   0.195  10.973  0.1578 -0.1987  0.4672
12307TIP3    H158412   0.120   0.218  10.956  0.5940 -1.3173  1.1891
12307TIP3    H258413   0.004   0.248  11.049 -0.4181  1.5138 -0.8508
12308TIP3   OH258414   6.659   2.505   4.016  0.0950 -0.1598  0.4759
12308TIP3    H158415   6.602   2.448   4.068 -0.7113  0.5102  0.3375
12308TIP3    H258416   6.698   2.446   3.951  0.4873 -0.8463  1.3218
12309TIP3   OH258417   5.003   3.232  15.832  0.2415 -0.3715 -0.2990
12309TIP3    H158418   5.074   3.202  15.777 -0.3785  0.6975 -1.7547
12309TIP3    H258419   4.939   3.160  15.831 -0.0321 -0.1367 -1.5102
12310TIP3   OH258420   4.724   4.224   3.279 -0.0434  0.0809 -0.4247
12310TIP3    H158421   4.705   4.244   3.188  1.4453 -0.3592 -0.8682
12310TIP3    H258422   4.735   4.310   3.321 -1.6023  0.3093 -0.4197
12311TIP3   OH258423   4.344   3.437   0.403  0.2666 -0.5372 -0.0833
12311TIP3    H158424   4.299   3.413   0.484  0.8620 -1.3537  0.0176
12311TIP3    H258425   4.279   3.425   0.334  0.4978 -2.3888 -0.0264
12312TIP3   OH258426   0.149   4.218   2.032 -0.0609  0.6141  0.3513
12312TIP3    H158427   0.178   4.235   1.942 -0.6457  3.5438  0.6251
12312TIP3    H258428   0.230   4.214   2.083  0.1924  0.5587 -0.0482
12313TIP3   OH258429   3.679   5.646   5.332  0.0534  0.5344 -0.3739
12313TIP3    H158430   3.616   5.659   5.403  0.3404 -3.3545  0.8336
12313TIP3    H258431   3.759   5.617   5.376  1.3397  1.2394 -2.1370
12314TIP3   OH258432   2.086   5.407   0.951 -0.7322  0.2837 -0.0463
12314TIP3    H158433   2.013   5.381   1.007 -0.5878  0.7456  0.3637
12314TIP3    H258434   2.129   5.325   0.929  0.5128  0.2201  2.3182
12315TIP3   OH258435   5.805   3.430   3.553 -0.5372 -0.7295 -0.6057
12315TIP3    H158436   5.792   3.377   3.631 -1.2191 -1.0572 -0.9359
12315TIP3    H258437   5.721   3.473   3.538  0.3639  1.6075  0.4696
12316TIP3   OH258438   2.916   4.124   4.473  0.4849 -0.0724  0.4709
12316TIP3    H158439   2.918   4.068   4.551 -0.2607 -0.3342  0.3180
12316TIP3    H258440   2.989   4.185   4.485  0.7669 -0.5114  1.0681
12317TIP3   OH258441   0.036   1.876   5.471 -0.1788 -0.1216 -0.2877
12317TIP3    H158442   0.117   1.839   5.506  0.2477  1.6185  0.7214
12317TIP3    H258443  -0.030   1.856   5.538 -0.3903 -0.7531 -0.6804
12318TIP3   OH258444   1.178   6.030  13.207 -0.2096  0.2920  0.1668
12318TIP3    H158445   1.206   6.060  13.294  0.7359  0.2724 -0.1153
12318TIP3    H258446   1.260   6.006  13.163 -0.6368  0.7506 -0.8976
12319TIP3   OH258447   6.456   5.419  12.403  0.3730 -0.7806 -0.3753
12319TIP3    H158448   6.533   5.367  12.381 -0.5011 -2.1120 -0.4104
12319TIP3    H258449   6.382   5.359  12.392 -0.7294  0.6028 -0.8539
12320TIP3   OH258450   2.358   4.830   1.290  0.5713 -0.6872  0.5021
12320TIP3    H158451   2.302   4.781   1.349  0.5891 -2.5397 -0.9156
12320TIP3    H258452   2.438   4.777   1.283  1.0399  0.0856 -0.2554
12321TIP3   OH258453   2.284   2.187  14.792 -0.4611 -0.0637 -0.4158
12321TIP3    H158454   2.229   2.251  14.838 -0.6304 -0.7626  0.3856
12321TIP3    H258455   2.254   2.191  14.701 -0.3310  1.1292 -0.4213
12322TIP3   OH258456   4.657   3.390   5.432  0.0368 -0.4072  0.1896
12322TIP3    H158457   4.662   3.486   5.432  0.6304 -0.4271 -1.1089
12322TIP3    H258458   4.748   3.362   5.424 -0.2278 -1.0727 -0.5143
12323TIP3   OH258459   6.460   2.754  13.701  0.0605  0.3282  0.2719
12323TIP3    H158460   6.471   2.697  13.625 -1.5417 -1.2695  1.1679
12323TIP3    H258461   6.366   2.769  13.706  0.4093  2.7524  0.3309
12324TIP3   OH258462   4.637   2.633   4.675 -0.0199 -0.1640 -0.1444
12324TIP3    H158463   4.573   2.562   4.679  0.0117 -0.2907 -1.6046
12324TIP3    H258464   4.715   2.598   4.717 -0.3380 -0.6301  0.0643
12325TIP3   OH258465   2.715   4.337   5.740 -0.8316 -0.2373 -0.3000
12325TIP3    H158466   2.653   4.276   5.702 -0.7306  0.3406 -1.4434
12325TIP3    H258467   2.797   4.288   5.744 -0.6878 -0.1302 -1.4460
12326TIP3   OH258468   0.362   4.952  13.286  0.6243 -0.6802  0.7169
12326TIP3    H158469   0.382   4.921  13.197  0.2759 -1.1977  0.8142
12326TIP3    H258470   0.361   5.047  13.278 -0.3247 -0.7352 -0.0384
12327TIP3   OH258471   1.206   1.620  16.514 -0.0612 -0.3391 -0.0849
12327TIP3    H158472   1.236   1.710  16.500  2.5009 -1.4556 -2.8627
12327TIP3    H258473   1.221   1.604  16.607 -0.0341  1.9006  0.3493
12328TIP3   OH258474   6.290   4.632  15.967 -0.0677 -0.8641  0.2306
12328TIP3    H158475   6.232   4.568  15.927 -0.0951 -0.7130  0.0299
12328TIP3    H258476   6.378   4.595  15.954 -0.0801 -0.8426  0.0789
12329TIP3   OH258477   3.596   5.229  15.871  0.0960 -0.6683 -0.2235
12329TIP3    H158478   3.528   5.201  15.809  0.1648 -1.0221 -0.1447
12329TIP3    H258479   3.640   5.148  15.895 -0.1005 -0.5650  0.4908
12330TIP3   OH258480   4.708   0.374   4.306 -0.5368  0.1474 -0.2653
12330TIP3    H158481   4.641   0.306   4.315 -0.7373  0.5324  1.4626
12330TIP3    H258482   4.669   0.439   4.247 -1.1274 -0.2776 -0.3514
12331TIP3   OH258483   4.192   2.397   1.473  0.3033  0.8954  0.2514
12331TIP3    H158484   4.205   2.470   1.533  0.4126 -0.3266  1.7662
12331TIP3    H258485   4.151   2.437   1.396 -1.5101  2.2566  1.8161
12332TIP3   OH258486   6.771   2.567   2.876 -0.0548  0.1089  0.2522
12332TIP3    H158487   6.800   2.620   2.950 -0.3955 -0.4441  0.7934
12332TIP3    H258488   6.818   2.485   2.886 -1.8153 -0.8483  1.2130
12333TIP3   OH258489   2.762   0.182  14.835  0.5146 -0.1957  0.5960
12333TIP3    H158490   2.672   0.150  14.823  0.5770  0.1606 -1.1207
12333TIP3    H258491   2.754   0.277  14.836  0.9505 -0.1164 -0.7280
12334TIP3   OH258492   2.020   5.288   5.754 -0.4654 -0.0246 -0.9026
12334TIP3    H158493   2.105   5.269   5.794 -0.1849  0.3416 -1.3090
12334TIP3    H258494   1.968   5.209   5.767  0.1524 -0.4864 -1.2041
12335TIP3   OH258495   3.655   1.263  14.906 -0.4505  0.4773  0.5061
12335TIP3    H158496   3.578   1.208  14.892  0.1415 -0.5589  1.1702
12335TIP3    H258497   3.720   1.229  14.844 -0.7029  1.7403 -0.4787
12336TIP3   OH258498   5.169   1.198   0.133 -0.0330 -0.6990  0.5716
12336TIP3    H158499   5.242   1.148   0.170 -0.0880 -0.2803  1.2582
12336TIP3    H258500   5.188   1.201   0.039  0.9742 -0.3799  0.7747
12337TIP3   OH258501   6.730   1.639   3.467 -0.1979 -0.5608  0.1026
12337TIP3    H158502   6.787   1.574   3.509  2.0454 -0.7269 -2.8881
12337TIP3    H258503   6.647   1.594   3.455  0.2761 -1.7388  1.0176
12338TIP3   OH258504   3.520   3.371   5.287 -0.7699  0.3288  0.5523
12338TIP3    H158505   3.452   3.322   5.242  1.0013 -0.5245 -1.3676
12338TIP3    H258506   3.524   3.332   5.375 -1.6744 -0.6387  0.1853
12339TIP3   OH258507   5.573   0.057   5.426  0.0990  0.1498  0.7627
12339TIP3    H158508   5.615   0.038   5.510  0.0132 -0.3837  0.6938
12339TIP3    H258509   5.611   0.140   5.398  2.2698 -1.0190 -0.0004
12340TIP3   OH258510   5.193   6.304   1.151 -0.0105  0.3349  0.2189
12340TIP3    H158511   5.266   6.357   1.185  0.1445  1.6281 -1.8785
12340TIP3    H258512   5.116   6.337   1.196  0.1768  1.9962 -0.5793
12341TIP3   OH258513   5.438   2.939   5.907 -0.0126  0.1184  0.6281
12341TIP3    H158514   5.444   2.848   5.877  0.3590  0.4786 -0.4254
12341TIP3    H258515   5.527   2.973   5.897 -0.6379  1.3113 -1.3480
12342TIP3   OH258516   0.641   3.138   5.771  0.6222 -0.0282  0.4155
12342TIP3    H158517   0.595   3.191   5.836  1.1313  0.5714  0.2950
12342TIP3    H258518   0.627   3.185   5.688  1.5085  0.2006  0.3902
12343TIP3   OH258519   5.401   6.237  13.391  0.1512  0.3184  0.0764
12343TIP3    H158520   5.419   6.190  13.309 -0.6781 -3.8366  1.9992
12343TIP3    H258521   5.311   6.268  13.381 -0.7800 -2.1408  0.1065
12344TIP3   OH258522   4.254   0.035  11.531  0.1726  0.3066 -0.3480
12344TIP3    H158523   4.278   0.016  11.621  2.2331  0.6032 -0.7888
12344TIP3    H258524   4.205  -0.042  11.502  1.4864 -0.8085  0.3311
12345TIP3   OH258525   0.017   5.483  10.754 -0.1888 -0.4231 -0.0909
12345TIP3    H158526  -0.074   5.458  10.771 -0.0021 -0.8005  0.3862
12345TIP3    H258527   0.062   5.464  10.836  0.3427 -0.3459 -0.3642
12346TIP3   OH258528   6.778   1.683   3.959  0.1445 -0.7660  0.3490
12346TIP3    H158529   6.769   1.595   3.922 -0.7086  0.1933 -1.8864
12346TIP3    H258530   6.701   1.731   3.929  0.5552  0.7701  1.5585
12347TIP3   OH258531   3.520   5.383   0.316  0.4529  0.2318  0.1707
12347TIP3    H158532   3.567   5.451   0.365  0.8249  0.1769 -0.1027
12347TIP3    H258533   3.461   5.431   0.258  0.8338  0.3289 -0.1406
12348TIP3   OH258534   4.014   1.271   2.141 -0.4192  0.0219 -0.5347
12348TIP3    H158535   3.949   1.342   2.144  0.1944  0.5723  0.2183
12348TIP3    H258536   4.090   1.310   2.098 -0.4647 -0.5245 -1.1264
12349TIP3   OH258537   4.652   6.631   5.457 -0.2181  0.3157 -0.4235
12349TIP3    H158538   4.675   6.713   5.501 -0.9167  0.5423 -0.4724
12349TIP3    H258539   4.581   6.594   5.509 -0.1384 -0.0862 -0.5981
12350TIP3   OH258540   2.596   5.053   3.612 -0.1154 -0.1739  0.6562
12350TIP3    H158541   2.573   4.991   3.543 -0.2637 -0.3456  0.8581
12350TIP3    H258542   2.690   5.043   3.623 -0.1094 -0.2289  0.5553
12351TIP3   OH258543   4.071   2.220  15.979  0.8144  0.2000  0.0499
12351TIP3    H158544   4.021   2.177  15.910  0.0381  0.0080  0.7182
12351TIP3    H258545   4.159   2.228  15.943  0.3411  0.4279 -1.0994
12352TIP3   OH258546   4.847   4.008   3.181  0.0921 -0.3488 -0.6010
12352TIP3    H158547   4.823   4.091   3.223  1.2721 -0.0100 -0.5545
12352TIP3    H258548   4.937   4.023   3.150 -0.5677 -0.7239 -2.8539
12353TIP3   OH258549   1.383   6.077   1.825  0.3049  1.0690  0.0070
12353TIP3    H158550   1.404   6.051   1.735  0.2665 -2.1675  0.8024
12353TIP3    H258551   1.455   6.042   1.877 -1.7424 -0.9976  1.6515
12354TIP3   OH258552   2.900   3.513  10.585  0.2012 -0.4266  0.1459
12354TIP3    H158553   2.979   3.521  10.640  1.7574  1.0704 -2.1387
12354TIP3    H258554   2.828   3.512  10.648  2.0088 -3.0066  2.4312
12355TIP3   OH258555   5.821   6.556   1.634  0.6876 -0.5123  0.4274
12355TIP3    H158556   5.893   6.597   1.682  0.2379 -0.1086  0.7668
12355TIP3    H258557   5.777   6.629   1.590 -1.1047 -0.3444  2.3264
12356TIP3   OH258558   5.114   4.147   2.340  0.1519  0.1147  0.4647
12356TIP3    H158559   5.066   4.216   2.385  0.7331  0.3360  0.7586
12356TIP3    H258560   5.079   4.065   2.376  0.4522  0.2834  1.1587
12357TIP3   OH258561   1.604   5.999   3.176 -0.1994  0.0105 -0.1020
12357TIP3    H158562   1.668   6.030   3.112  0.6506  0.5831  0.9971
12357TIP3    H258563   1.556   5.931   3.129  2.5028 -1.8767 -0.4076
12358TIP3   OH258564   0.923   4.586   3.510  0.1550 -0.9922  0.2091
12358TIP3    H158565   0.912   4.525   3.437 -1.3106 -1.4015  0.7355
12358TIP3    H258566   0.944   4.531   3.585  0.3373 -0.7102  0.3670
12359TIP3   OH258567   1.415   1.043   4.738 -0.4029  0.3430  0.6943
12359TIP3    H158568   1.423   0.952   4.767 -2.4570  0.0613  0.5339
12359TIP3    H258569   1.478   1.051   4.667  0.7601 -0.5498  1.5756
12360TIP3   OH258570   5.723   4.627  15.095  0.2264  0.2051 -0.4656
12360TIP3    H158571   5.781   4.703  15.092  1.0987 -0.3472  1.0653
12360TIP3    H258572   5.740   4.588  15.181 -1.0143 -1.0839 -0.7761
12361TIP3   OH258573   3.736   2.624  13.695 -0.7667 -0.1376  0.6420
12361TIP3    H158574   3.782   2.683  13.635 -1.0740  0.6611  1.1667
12361TIP3    H258575   3.666   2.585  13.643  0.8700 -1.9014 -0.3693
12362TIP3   OH258576   0.098   0.743   4.747 -0.6277  0.5812  0.3795
12362TIP3    H158577   0.185   0.732   4.785  0.1201  0.9011 -1.2102
12362TIP3    H258578   0.042   0.762   4.823  0.9221  1.8115  1.2693
12363TIP3   OH258579   0.257   4.989   5.377 -0.8822  0.4226 -0.0931
12363TIP3    H158580   0.222   4.903   5.354  1.4039 -0.6184  0.0131
12363TIP3    H258581   0.253   4.992   5.472  0.1123 -0.1126 -0.0152
12364TIP3   OH258582   1.079   3.772   2.622 -0.2543 -0.6934 -0.2932
12364TIP3    H158583   1.163   3.745   2.583  0.3924  0.2462  0.4133
12364TIP3    H258584   1.094   3.765   2.716 -1.5344 -2.1365 -0.1512
12365TIP3   OH258585   1.760   0.240   2.084  0.1604 -0.2245 -0.1731
12365TIP3    H158586   1.719   0.172   2.031 -0.8123  0.6532 -0.5740
12365TIP3    H258587   1.781   0.197   2.167 -0.4586 -0.9981 -0.4098
12366TIP3   OH258588   4.354   6.845   3.563 -0.2426  1.2765  0.1718
12366TIP3    H158589   4.293   6.780   3.601 -1.0769  2.2000  0.4511
12366TIP3    H258590   4.399   6.882   3.639 -0.3032  1.5551  0.0690
12367TIP3   OH258591   1.277   6.086   1.133 -0.5275  0.2120  0.0205
12367TIP3    H158592   1.204   6.142   1.160 -1.6946 -0.3116 -1.8581
12367TIP3    H258593   1.261   6.003   1.178 -1.8248 -0.3007 -1.3327
12368TIP3   OH258594   5.276   2.503   0.460 -0.3680 -0.2403 -0.0978
12368TIP3    H158595   5.215   2.526   0.389 -0.7936 -1.5051 -0.1629
12368TIP3    H258596   5.276   2.407   0.462 -0.2721 -0.2317  1.5411
12369TIP3   OH258597   1.860   2.092   4.525  0.2469  0.4486  0.0963
12369TIP3    H158598   1.908   2.076   4.444  0.2645 -0.9927  0.3629
12369TIP3    H258599   1.768   2.080   4.501  0.3826 -3.4263  0.9130
12370TIP3   OH258600   3.313   3.701  14.911  0.3087 -0.1754 -0.0705
12370TIP3    H158601   3.231   3.746  14.926  0.1851 -0.0944 -0.9386
12370TIP3    H258602   3.288   3.610  14.894  0.3118  0.0325 -1.2558
12371TIP3   OH258603   4.419   4.351  16.166  0.3799  0.7767 -0.1017
12371TIP3    H158604   4.489   4.304  16.213  0.4640  1.1663  0.1661
12371TIP3    H258605   4.465   4.399  16.097  0.4998  1.7909  0.6639
12372TIP3   OH258606   5.752   0.209  11.075  0.2768 -0.6795  0.3686
12372TIP3    H158607   5.725   0.125  11.038 -0.8562  0.4181 -1.4551
12372TIP3    H258608   5.729   0.274  11.008 -0.1025  1.2572  2.2544
12373TIP3   OH258609   5.205   5.938  16.125  0.2659 -0.1689 -0.4239
12373TIP3    H158610   5.221   6.012  16.067  2.9274 -0.0395  0.3327
12373TIP3    H258611   5.192   5.977  16.211 -0.5610 -0.5091 -0.3816
12374TIP3   OH258612   4.165   1.062   2.889 -0.3825  0.0346 -0.2382
12374TIP3    H158613   4.075   1.032   2.880 -0.6557  0.8680 -0.3714
12374TIP3    H258614   4.200   1.012   2.963 -1.0607 -0.0382  0.0426
12375TIP3   OH258615   1.997   5.872  15.761  0.0925 -0.4357 -0.5120
12375TIP3    H158616   2.003   5.917  15.677 -0.1259  0.6452  0.0247
12375TIP3    H258617   1.989   5.943  15.825  1.8025 -1.1500  0.5818
12376TIP3   OH258618   4.011   2.539  15.200  0.5590  0.3977  1.1769
12376TIP3    H158619   3.929   2.503  15.168  1.6274  0.9840 -2.8096
12376TIP3    H258620   3.985   2.613  15.255 -1.5699  0.1827  0.5545
12377TIP3   OH258621   2.875   5.608  11.411 -0.4345  0.2393  0.2194
12377TIP3    H158622   2.909   5.530  11.368  0.3816  0.0809  1.1367
12377TIP3    H258623   2.850   5.665  11.338 -1.6417 -1.1004 -0.4683
12378TIP3   OH258624   2.729   0.923   6.016  0.2899 -0.2000  0.7497
12378TIP3    H158625   2.724   1.006   5.969  1.3765 -0.3323  0.3625
12378TIP3    H258626   2.698   0.858   5.954  2.0862 -0.4261  0.0121
12379TIP3   OH258627   6.554   3.089   3.424  0.2053 -0.8257 -0.0153
12379TIP3    H158628   6.499   3.083   3.345  0.1961 -0.6472 -0.0222
12379TIP3    H258629   6.542   3.004   3.467  0.8701 -1.2565 -0.6393
12380TIP3   OH258630   4.937   5.139   3.002  0.9000  0.3273  0.8860
12380TIP3    H158631   4.962   5.083   2.929  1.0133  0.6343  0.6894
12380TIP3    H258632   4.846   5.115   3.020  0.1317  1.7702 -0.7778
12381TIP3   OH258633   0.739   3.940  15.062 -0.0158  0.2697  0.3356
12381TIP3    H158634   0.806   3.930  15.130  0.1241 -0.7422  0.0698
12381TIP3    H258635   0.699   3.853  15.055  0.7324  0.0477 -1.6696
12382TIP3   OH258636   5.710   2.149   4.982  0.0381 -0.4511  0.0636
12382TIP3    H158637   5.635   2.177   4.930 -0.3813 -0.2063  0.7942
12382TIP3    H258638   5.684   2.163   5.072  1.1728  0.1625  0.3149
12383TIP3   OH258639   6.511   2.230   5.896  0.5153 -0.3201 -0.1325
12383TIP3    H158640   6.437   2.273   5.939  0.7288 -0.2384  0.1558
12383TIP3    H258641   6.565   2.197   5.968 -0.0383 -1.7508 -0.3381
12384TIP3   OH258642   2.366   1.543  13.796 -0.7808  0.3845 -0.3001
12384TIP3    H158643   2.292   1.567  13.851 -1.7028 -0.0607 -1.3097
12384TIP3    H258644   2.340   1.459  13.757  0.5917 -0.1773 -0.0635
12385TIP3   OH258645   4.544   4.571   5.418 -0.4218 -0.6968 -0.0004
12385TIP3    H158646   4.568   4.659   5.392 -0.0788 -1.1997 -1.4518
12385TIP3    H258647   4.451   4.578   5.442 -0.3855  0.0525 -0.0581
12386TIP3   OH258648   6.380   1.943  13.860 -0.0856  0.0505 -0.1614
12386TIP3    H158649   6.405   1.881  13.928 -3.5945  0.7700  2.0186
12386TIP3    H258650   6.370   1.889  13.781  2.3575 -1.0930  0.2025
12387TIP3   OH258651   6.108   4.432   1.085 -0.3497  0.1161 -0.0808
12387TIP3    H158652   6.125   4.397   1.172  1.0509  4.2738  1.5526
12387TIP3    H258653   6.186   4.409   1.034 -0.6586 -1.3211  0.0450
12388TIP3   OH258654   1.867   4.516  14.650 -0.4697  0.5247 -0.2887
12388TIP3    H158655   1.927   4.468  14.707 -1.0433  0.0519 -0.0639
12388TIP3    H258656   1.909   4.600  14.636 -0.3370  0.6821  0.9098
12389TIP3   OH258657   4.179   3.646  11.687 -0.0791  0.0855 -0.3840
12389TIP3    H158658   4.251   3.673  11.745  1.2598 -1.9781 -0.9527
12389TIP3    H258659   4.141   3.570  11.731 -1.6172  0.8470 -0.3507
12390TIP3   OH258660   5.976   0.468  13.146 -0.0037 -0.0785  0.1604
12390TIP3    H158661   5.881   0.462  13.134  0.2234 -2.7066 -0.8469
12390TIP3    H258662   5.995   0.562  13.139 -2.3160  0.3590 -1.2688
12391TIP3   OH258663   2.813   0.052   4.020 -0.2569  0.4239  0.2947
12391TIP3    H158664   2.859   0.111   4.080 -0.4619  1.4299 -0.5020
12391TIP3    H258665   2.851   0.072   3.934  0.6012 -1.5538  0.1657
12392TIP3   OH258666   1.809   5.139   3.934 -0.1004  0.1235  0.1918
12392TIP3    H158667   1.887   5.174   3.977  0.5048 -0.6702 -0.2452
12392TIP3    H258668   1.836   5.121   3.844 -0.4996 -1.0997  0.3035
12393TIP3   OH258669   0.754   4.546  13.781  0.0949 -0.6366  0.2120
12393TIP3    H158670   0.693   4.591  13.724  2.5950  0.0729 -2.1231
12393TIP3    H258671   0.821   4.612  13.802  0.0711 -1.3163  2.7797
12394TIP3   OH258672   2.349   1.077  12.687  0.5958 -0.1770  0.3791
12394TIP3    H158673   2.368   1.075  12.781  0.0039  1.4118  0.5781
12394TIP3    H258674   2.325   1.168  12.670  0.3906 -0.5061 -1.2633
12395TIP3   OH258675   2.180   1.506   0.564  0.2434 -0.3900  0.0121
12395TIP3    H158676   2.167   1.583   0.619 -1.1140 -1.9234  1.9834
12395TIP3    H258677   2.191   1.541   0.476  2.5356  2.1931  1.1764
12396TIP3   OH258678   2.864   6.326   6.079 -0.5036  0.2331  0.5467
12396TIP3    H158679   2.924   6.325   6.153  0.4260 -0.1812 -0.1981
12396TIP3    H258680   2.833   6.235   6.071 -0.4472  0.2321  0.3135
12397TIP3   OH258681   6.622   5.752  11.617 -0.2106 -0.0737 -0.3323
12397TIP3    H158682   6.693   5.689  11.607 -0.8571 -1.0832  1.1081
12397TIP3    H258683   6.544   5.699  11.630 -0.7403  0.9970  1.2088
12398TIP3   OH258684   0.851   5.592  16.810 -0.5766 -0.2136 -0.2992
12398TIP3    H158685   0.905   5.547  16.874 -0.1819 -0.2822 -0.6780
12398TIP3    H258686   0.818   5.669  16.857  1.2040  0.7524 -0.5315
12399TIP3   OH258687   2.636   3.554  14.471 -0.0078 -0.2271 -0.1166
12399TIP3    H158688   2.607   3.535  14.560  0.8590  0.2042  0.2693
12399TIP3    H258689   2.730   3.541  14.473  0.1804  0.8938 -0.6703
12400TIP3   OH258690   0.832   3.853  16.928 -0.2178 -0.1943  0.2050
12400TIP3    H158691   0.777   3.786  16.886 -1.4611 -0.1908  1.7202
12400TIP3    H258692   0.794   3.936  16.900 -0.6062 -0.1856  0.7312
12401TIP3   OH258693   3.644   4.063   5.358 -0.7668  0.3187  0.0054
12401TIP3    H158694   3.670   4.136   5.302 -1.1095  1.8159  1.7122
12401TIP3    H258695   3.696   4.075   5.438 -1.7892 -0.5578  0.8284
12402TIP3   OH258696   3.984   3.061   2.494 -0.3961  0.3051  0.3570
12402TIP3    H158697   4.008   2.972   2.519  1.2621  0.9291  1.0805
12402TIP3    H258698   4.057   3.092   2.440 -1.4542  0.8749 -0.8069
12403TIP3   OH258699   0.905   3.055  14.916  0.4160 -0.1424  0.0370
12403TIP3    H158700   0.821   3.011  14.899  0.1246 -0.3249  1.7663
12403TIP3    H258701   0.900   3.135  14.863 -0.9879  0.0012  0.3285
12404TIP3   OH258702   3.174   4.985   5.279  0.1147 -0.1754  0.0403
12404TIP3    H158703   3.188   4.890   5.288 -1.4373 -0.3363  1.2714
12404TIP3    H258704   3.084   4.994   5.251 -0.3283  0.9501  1.6430
12405TIP3   OH258705   2.565   5.008  13.110  0.2840 -0.3308 -0.0585
12405TIP3    H158706   2.627   5.009  13.037 -1.5364 -0.0294 -1.6768
12405TIP3    H258707   2.526   5.096  13.110 -0.3300 -0.5849  0.7599
12406TIP3   OH258708   4.837   0.861   1.218  0.9547 -0.1723  0.5267
12406TIP3    H158709   4.860   0.837   1.128  2.5974  3.3087 -0.1512
12406TIP3    H258710   4.914   0.834   1.269  0.8399 -0.4154  0.5739
12407TIP3   OH258711   1.461   5.982   4.674 -0.4551  0.0170  0.6164
12407TIP3    H158712   1.376   5.949   4.703 -0.4004  0.2418  1.0545
12407TIP3    H258713   1.453   6.077   4.679  0.1291  0.0373  1.6246
12408TIP3   OH258714   0.154   0.855  11.145  0.7028 -0.3148 -0.4068
12408TIP3    H158715   0.108   0.938  11.158  0.8393 -0.2522 -0.3251
12408TIP3    H258716   0.201   0.840  11.226 -0.1387 -0.9944 -0.0332
12409TIP3   OH258717   4.645   1.905   2.360 -0.1157  0.3009 -0.0061
12409TIP3    H158718   4.626   1.873   2.449  1.8631 -0.5413  0.1651
12409TIP3    H258719   4.604   1.842   2.302  2.3666 -1.8254  0.3475
12410TIP3   OH258720   6.380   5.763   3.613  0.2418 -0.0475 -0.0703
12410TIP3    H158721   6.322   5.805   3.550 -1.2293  0.1552  1.3519
12410TIP3    H258722   6.322   5.731   3.682  1.8138  0.0048  1.3473
12411TIP3   OH258723   6.478   3.911   3.446  0.3823 -0.3012 -0.0525
12411TIP3    H158724   6.388   3.920   3.475  0.8140  1.9923  0.8695
12411TIP3    H258725   6.476   3.934   3.353  0.2100  1.6977  0.3937
12412TIP3   OH258726   6.792   0.556  14.436 -0.2418  0.3070 -0.0693
12412TIP3    H158727   6.746   0.619  14.492  0.5408  0.1641  0.7642
12412TIP3    H258728   6.731   0.539  14.364 -0.8962  1.2052  0.2497
12413TIP3   OH258729   5.290   4.214  15.128 -0.2140 -1.0289 -0.0157
12413TIP3    H158730   5.246   4.271  15.191  0.0515 -1.1975  0.3281
12413TIP3    H258731   5.240   4.133  15.131 -0.2150 -1.0290 -0.0385
12414TIP3   OH258732   4.784   4.482   3.373  0.6618  0.9206  0.2951
12414TIP3    H158733   4.736   4.545   3.320 -0.0378 -0.2842 -0.5581
12414TIP3    H258734   4.787   4.521   3.460 -0.4039  1.7938 -0.0401
12415TIP3   OH258735   1.285   1.633   0.972 -0.0671 -0.2664 -0.8375
12415TIP3    H158736   1.296   1.619   1.066 -0.3309  0.4700 -0.6950
12415TIP3    H258737   1.206   1.584   0.949 -0.3755  0.0977 -0.5516
12416TIP3   OH258738   4.779   3.590  15.348  0.3406  0.6620 -0.2132
12416TIP3    H158739   4.856   3.552  15.305  0.1124 -1.0589  0.8069
12416TIP3    H258740   4.810   3.673  15.384  2.0773 -0.4959  1.1299
12417TIP3   OH258741   3.095   1.190   0.185  0.1310  0.2320 -0.3037
12417TIP3    H158742   3.053   1.111   0.219 -1.9183  0.9030 -1.0981
12417TIP3    H258743   3.092   1.179   0.090  1.8646  0.2952 -0.3920
12418TIP3   OH258744   5.035   4.867   0.317 -1.0000 -0.0497  0.5067
12418TIP3    H158745   4.948   4.860   0.280 -1.3800  0.6626  1.2450
12418TIP3    H258746   5.022   4.859   0.412 -0.3025  0.3548  0.6484
12419TIP3   OH258747   3.421   5.614  14.790 -0.5125 -0.5705 -0.6324
12419TIP3    H158748   3.469   5.544  14.833  0.1405  0.5887  0.5857
12419TIP3    H258749   3.344   5.570  14.753  0.2693 -2.0484 -0.6019
12420TIP3   OH258750   1.451   4.428   4.418 -0.1664 -0.2398 -0.2108
12420TIP3    H158751   1.526   4.427   4.477  1.2441 -1.3953 -1.9070
12420TIP3    H258752   1.375   4.437   4.475  1.0569 -2.0891  1.8308
12421TIP3   OH258753   4.909   1.304  13.922 -0.4808 -0.2480 -0.2054
12421TIP3    H158754   4.878   1.247  13.852  0.5896 -0.3100 -0.6535
12421TIP3    H258755   4.897   1.252  14.002  1.2368 -1.4737 -0.6879
12422TIP3   OH258756   2.364   2.538   4.461 -0.2985 -0.2297 -0.1316
12422TIP3    H158757   2.306   2.585   4.521 -0.8251 -1.0323  0.0014
12422TIP3    H258758   2.448   2.584   4.467 -0.2056 -0.5473  1.5542
12423TIP3   OH258759   4.968   0.996   6.286 -0.4428 -0.7716  0.2389
12423TIP3    H158760   5.004   0.938   6.353  1.0332 -1.6121 -1.2291
12423TIP3    H258761   5.010   1.081   6.303 -1.3211 -0.5305  1.3412
12424TIP3   OH258762   2.772   3.304   6.108 -0.2039 -0.4622  0.7106
12424TIP3    H158763   2.677   3.296   6.107 -0.3417  1.0055 -0.3564
12424TIP3    H258764   2.803   3.214   6.093 -1.4229 -0.8875  0.6287
12425TIP3   OH258765   1.161   4.099  12.542  0.5383 -0.5542 -0.1837
12425TIP3    H158766   1.228   4.034  12.522  1.2572  0.8183 -2.7538
12425TIP3    H258767   1.084   4.070  12.494  0.1774 -0.6783  0.4748
12426TIP3   OH258768   1.113   1.306  10.437 -0.5232 -0.1690 -0.2356
12426TIP3    H158769   1.033   1.275  10.395 -0.1927 -0.0837 -0.9369
12426TIP3    H258770   1.165   1.227  10.452 -0.4922 -0.1596 -0.2957
12427TIP3   OH258771   0.057   0.078   0.812  0.0577  0.4840 -0.4978
12427TIP3    H158772   0.080  -0.014   0.817 -1.5147  0.0465 -0.7077
12427TIP3    H258773   0.040   0.104   0.903  0.6984  0.6349 -0.4159
12428TIP3   OH258774   1.550   2.236  16.275 -0.3262 -0.1904 -0.1809
12428TIP3    H158775   1.483   2.201  16.215 -0.5920  1.1894 -0.7393
12428TIP3    H258776   1.502   2.259  16.354 -0.6782  1.4273 -0.8272
12429TIP3   OH258777   1.664   5.984  15.898 -0.0918 -0.5812 -0.1867
12429TIP3    H158778   1.578   6.023  15.883 -0.5529 -1.2402  0.6380
12429TIP3    H258779   1.726   6.055  15.881 -0.8462  0.1506  0.0697
12430TIP3   OH258780   5.984   4.872  16.840  0.1697  0.0676 -0.0098
12430TIP3    H158781   6.028   4.806  16.893  0.0557  0.3099  0.3857
12430TIP3    H258782   5.927   4.821  16.782 -0.0257 -0.1764  0.3924
12431TIP3   OH258783   6.112   0.148  13.476 -0.1579 -0.2669 -0.0877
12431TIP3    H158784   6.084   0.123  13.388 -2.0758 -1.0162  0.6702
12431TIP3    H258785   6.053   0.100  13.534  1.3377 -0.1277  1.6327
12432TIP3   OH258786   4.409   4.871  13.909  0.5606 -0.1387 -0.6204
12432TIP3    H158787   4.357   4.804  13.953 -0.8141  0.3757 -1.4172
12432TIP3    H258788   4.497   4.834  13.903 -0.1703 -1.8534 -1.0372
12433TIP3   OH258789   1.500   5.557   0.850 -0.4165 -0.0721  0.0462
12433TIP3    H158790   1.495   5.601   0.935 -1.6176 -0.8707  0.4118
12433TIP3    H258791   1.542   5.621   0.793 -1.2448  1.2010  0.7977
12434TIP3   OH258792   6.718   3.944   4.866 -0.2165 -0.5737  0.0208
12434TIP3    H158793   6.650   4.010   4.884  0.3213  0.2638 -0.9424
12434TIP3    H258794   6.701   3.875   4.930 -2.9922 -1.1557 -1.1843
12435TIP3   OH258795   0.975   6.731  14.233  0.3304 -0.1791 -0.5022
12435TIP3    H158796   0.969   6.808  14.178 -1.9566 -0.6491 -0.9979
12435TIP3    H258797   0.973   6.657  14.172  1.3903 -0.6659  0.0223
12436TIP3   OH258798   6.338   6.237   1.691 -0.2401  0.0192  0.3789
12436TIP3    H158799   6.316   6.144   1.690 -0.7785  0.1425 -1.0308
12436TIP3    H258800   6.320   6.264   1.782  0.1759 -1.2880  0.8825
12437TIP3   OH258801   5.183   6.001   5.888 -0.3217 -0.2985  0.2543
12437TIP3    H158802   5.219   5.989   5.976 -0.3743 -0.1792  0.2915
12437TIP3    H258803   5.260   6.005   5.831 -0.3068 -1.1618  0.1965
12438TIP3   OH258804   4.714   6.317  12.296 -0.1831  0.5461 -0.0934
12438TIP3    H158805   4.754   6.231  12.310 -0.1519  0.8272  1.8199
12438TIP3    H258806   4.746   6.344  12.209 -0.5027 -1.4970 -0.9150
12439TIP3   OH258807   3.880   2.117  15.368  0.0479 -0.6943 -0.3490
12439TIP3    H158808   3.876   2.022  15.367 -0.1415 -0.7087  0.8759
12439TIP3    H258809   3.804   2.145  15.317  0.4583 -1.1808 -1.2684
12440TIP3   OH258810   6.723   5.436  14.521 -0.0240 -0.0461 -0.2457
12440TIP3    H158811   6.629   5.457  14.522  0.4703  2.4267 -0.6169
12440TIP3    H258812   6.747   5.440  14.429  0.4715 -0.6396 -0.1456
12441TIP3   OH258813   0.338   1.906  12.162  0.2577 -0.3361 -0.5209
12441TIP3    H158814   0.400   1.848  12.118  0.1395  0.2819 -1.5459
12441TIP3    H258815   0.359   1.993  12.128  0.3735  0.2115  0.9171
12442TIP3   OH258816   6.540   4.730  14.494  0.4094  0.6798  0.8113
12442TIP3    H158817   6.569   4.658  14.550 -0.8482  0.0539  0.6757
12442TIP3    H258818   6.619   4.782  14.480  1.7608 -1.6057 -0.5564
12443TIP3   OH258819   0.733   5.738   2.489  0.1096  0.9185 -0.5162
12443TIP3    H158820   0.694   5.662   2.533  1.5918 -0.7046 -1.8325
12443TIP3    H258821   0.658   5.786   2.454 -0.9004  0.3248  0.7435
12444TIP3   OH258822   3.956   2.233   3.553  0.2452 -0.9764 -0.0291
12444TIP3    H158823   3.911   2.271   3.629  0.9443 -0.7009  0.2564
12444TIP3    H258824   4.008   2.161   3.590  1.2584 -0.3014 -0.1052
12445TIP3   OH258825   0.110   1.654   2.668 -0.7006 -0.5199 -0.5452
12445TIP3    H158826   0.040   1.684   2.611 -0.4967  2.1964  0.4901
12445TIP3    H258827   0.066   1.623   2.747 -0.8017  0.1677 -0.3261
12446TIP3   OH258828   4.125   2.078   5.065  0.3429  0.5275 -0.1474
12446TIP3    H158829   4.124   2.097   4.971  1.1359 -0.0319 -0.2816
12446TIP3    H258830   4.217   2.086   5.090  0.4152 -1.0193  0.2027
12447TIP3   OH258831   1.959   3.938   4.825 -0.5722  0.1922  0.3522
12447TIP3    H158832   1.877   3.979   4.797 -0.1479  0.6039 -0.2847
12447TIP3    H258833   2.006   3.920   4.744  0.3105  0.6570  0.7540
12448TIP3   OH258834   0.972   0.345   3.750  0.1008  0.0035  0.0485
12448TIP3    H158835   0.918   0.406   3.700 -1.5151 -1.9905 -0.7674
12448TIP3    H258836   0.909   0.286   3.792  1.5918 -1.4192  0.3961
12449TIP3   OH258837   2.066   1.794  15.792  0.4761  0.2059 -0.0723
12449TIP3    H158838   2.021   1.717  15.826  0.6670 -0.2447 -0.8261
12449TIP3    H258839   2.151   1.795  15.836  1.4741 -1.4159 -1.8322
12450TIP3   OH258840   5.637   0.811   2.877  0.2036  0.0574 -0.3087
12450TIP3    H158841   5.545   0.819   2.902 -0.0963 -1.7856 -0.6797
12450TIP3    H258842   5.685   0.824   2.959 -0.4718 -0.3578  0.1652
12451TIP3   OH258843   5.737   1.818   4.301  0.3354 -0.1654  0.1057
12451TIP3    H158844   5.646   1.804   4.328  0.8051 -3.3692  0.4206
12451TIP3    H258845   5.789   1.789   4.376  1.5970 -1.2266 -1.1171
12452TIP3   OH258846   4.563   1.711   0.335  0.1675 -0.4170 -0.0795
12452TIP3    H158847   4.633   1.747   0.280  0.1939  0.8354  0.7394
12452TIP3    H258848   4.567   1.617   0.319 -0.0180 -0.0798 -2.4337
12453TIP3   OH258849   5.674   6.678  12.927  0.7664 -0.1144  0.4562
12453TIP3    H158850   5.632   6.627  12.996  2.1433 -1.5743  0.2992
12453TIP3    H258851   5.613   6.674  12.854  0.7767 -1.5302  0.4835
12454TIP3   OH258852   5.868   2.491   4.097  0.3560 -0.1657 -0.5827
12454TIP3    H158853   5.951   2.448   4.081  0.9012 -0.0286  1.6033
12454TIP3    H258854   5.890   2.571   4.145 -1.0772 -0.7122  1.1080
12455TIP3   OH258855   6.607   3.692  11.939  0.0695  0.5715 -0.2779
12455TIP3    H158856   6.524   3.740  11.947 -0.7892 -1.1179  1.8681
12455TIP3    H258857   6.586   3.617  11.883 -0.2326 -0.5128  1.2290
12456TIP3   OH258858   3.068   0.222   2.066  0.2574 -0.4195  0.3842
12456TIP3    H158859   3.080   0.254   1.977 -1.1711 -0.2358  0.2301
12456TIP3    H258860   3.150   0.242   2.110  0.8613 -0.2215 -0.8064
12457TIP3   OH258861   6.490   4.860   0.281 -0.3818 -0.0064 -0.2028
12457TIP3    H158862   6.433   4.862   0.358 -0.6900 -1.1214 -0.3843
12457TIP3    H258863   6.498   4.952   0.255 -0.3394  0.3856  1.1034
12458TIP3   OH258864   0.722   1.643   1.464  0.6496  0.0867 -0.3420
12458TIP3    H158865   0.674   1.726   1.464 -0.9707 -0.7787  0.9689
12458TIP3    H258866   0.803   1.662   1.512  0.4633  0.9839 -0.3653
12459TIP3   OH258867   0.724   1.750   0.183  0.2804 -0.4899  0.1288
12459TIP3    H158868   0.700   1.668   0.141  1.1230 -0.9901  0.5926
12459TIP3    H258869   0.647   1.774   0.235  0.7186 -2.0391  1.5694
12460TIP3   OH258870   6.263   1.321   2.658  0.3273  0.0085 -0.1294
12460TIP3    H158871   6.245   1.246   2.601  0.7322 -1.2704  1.3696
12460TIP3    H258872   6.178   1.364   2.667 -0.2898 -1.2459  0.3148
12461TIP3   OH258873   4.836   3.215   2.374 -0.3764 -0.4455  0.4020
12461TIP3    H158874   4.855   3.307   2.355  0.5462 -0.2731  1.9456
12461TIP3    H258875   4.913   3.167   2.342  0.3854 -0.3417  1.9687
12462TIP3   OH258876   5.851   0.428   1.680 -0.3065  0.1345 -0.5139
12462TIP3    H158877   5.942   0.458   1.670  0.0294 -1.2090 -1.9399
12462TIP3    H258878   5.847   0.393   1.770  0.2365  1.2814 -0.0280
12463TIP3   OH258879   0.947   6.593  15.325 -0.1442  0.0253 -0.2870
12463TIP3    H158880   0.975   6.620  15.237 -0.4792  0.8432 -0.1496
12463TIP3    H258881   0.932   6.499  15.317 -0.8600  0.2098 -1.2943
12464TIP3   OH258882   2.329   6.657  14.985  0.3979 -0.4646 -0.0706
12464TIP3    H158883   2.245   6.615  15.005 -0.5063  0.9696 -0.6405
12464TIP3    H258884   2.389   6.623  15.050 -0.4378 -2.0978 -0.1000
12465TIP3   OH258885   4.662   6.057   0.141  0.3583  0.0835 -0.1239
12465TIP3    H158886   4.581   6.092   0.177  1.1712  2.2845 -0.2736
12465TIP3    H258887   4.705   6.014   0.214 -1.3492 -2.0116 -0.2712
12466TIP3   OH258888   2.475   4.838  14.741  0.6322  0.4706 -0.5150
12466TIP3    H158889   2.382   4.845  14.762  0.2832 -2.6396 -0.4887
12466TIP3    H258890   2.517   4.820  14.825  1.3855  2.2897 -0.4565
12467TIP3   OH258891   0.006   3.559   1.236 -0.0661 -0.2464 -0.3996
12467TIP3    H158892   0.019   3.572   1.142  0.0125  1.3957 -0.1936
12467TIP3    H258893   0.060   3.626   1.277 -2.9248  1.5855  0.6891
12468TIP3   OH258894   2.870   5.705   0.461  0.2810  0.6443 -0.6711
12468TIP3    H158895   2.841   5.780   0.408  0.3733  1.0102 -0.2088
12468TIP3    H258896   2.965   5.709   0.459  0.2896  1.0190  0.0110
12469TIP3   OH258897   2.921   0.951   4.235 -0.5812 -0.3022  0.5518
12469TIP3    H158898   2.972   0.892   4.180 -1.9559 -0.2738 -0.8186
12469TIP3    H258899   2.932   1.037   4.195 -0.6647 -0.0756  1.0120
12470TIP3   OH258900   6.298   6.208  13.395 -1.0024  0.1639 -0.0651
12470TIP3    H158901   6.302   6.298  13.361 -0.9401  0.9873  1.9668
12470TIP3    H258902   6.243   6.161  13.332  0.6804  1.0383 -2.3174
12471TIP3   OH258903   2.047   6.320   5.241  0.5945  0.1945 -0.0097
12471TIP3    H158904   2.014   6.287   5.324  2.0017  2.6333  1.6468
12471TIP3    H258905   2.142   6.318   5.251  0.8715 -0.9425 -2.2460
12472TIP3   OH258906   6.028   4.031  15.844  0.3052 -0.1953 -0.0950
12472TIP3    H158907   6.042   4.035  15.939  1.9320  1.0189 -0.3470
12472TIP3    H258908   6.109   4.065  15.806 -0.1093 -1.1233 -1.9522
12473TIP3   OH258909   2.869   1.695   5.012  0.3927 -1.0490 -0.3910
12473TIP3    H158910   2.865   1.600   5.003  0.3108 -1.0243 -0.6141
12473TIP3    H258911   2.912   1.725   4.932 -3.5144 -0.5239 -2.5251
12474TIP3   OH258912   1.692   6.466  10.418 -0.0799 -0.8508  0.1564
12474TIP3    H158913   1.609   6.492  10.377  0.2200 -0.4510 -0.2094
12474TIP3    H258914   1.667   6.442  10.508 -0.3696  0.9201  0.6048
12475TIP3   OH258915   2.353   2.157  11.582  0.0284 -0.1780 -0.2384
12475TIP3    H158916   2.357   2.066  11.551 -1.9362 -1.0997  1.9520
12475TIP3    H258917   2.346   2.209  11.501  1.1018 -1.9409 -1.5409
12476TIP3   OH258918   4.388   2.840   0.127 -0.0256  0.2370  0.0469
12476TIP3    H158919   4.482   2.844   0.106 -0.0354  0.6412  0.0900
12476TIP3    H258920   4.368   2.746   0.124  1.2008 -0.2909  3.6748
12477TIP3   OH258921   1.084   3.420   2.954  0.2022  0.4933 -0.6080
12477TIP3    H158922   0.990   3.412   2.966  0.7135 -3.1821  2.6089
12477TIP3    H258923   1.109   3.493   3.011 -0.6274  1.8353 -1.8735
12478TIP3   OH258924   5.891   2.876   0.481 -0.2610 -0.2229 -0.2315
12478TIP3    H158925   5.907   2.789   0.519  0.3194 -0.7608 -1.6611
12478TIP3    H258926   5.795   2.881   0.474 -0.3187 -0.5875  0.1906
12479TIP3   OH258927   5.097   4.500   1.215 -0.3443 -0.4403 -0.0452
12479TIP3    H158928   5.074   4.409   1.232 -1.7525  0.0160  0.6097
12479TIP3    H258929   5.068   4.516   1.125  2.2579 -1.3262 -1.1428
12480TIP3   OH258930   6.022   4.126   3.746 -0.5331  0.3865 -0.3124
12480TIP3    H158931   6.036   4.072   3.824  2.8386  2.6061  0.8003
12480TIP3    H258932   6.074   4.083   3.678 -0.1670  0.6577 -0.2059
12481TIP3   OH258933   3.825   6.684  12.645  0.3586  0.0006  0.3864
12481TIP3    H158934   3.894   6.695  12.711 -0.3791  1.1218  1.0034
12481TIP3    H258935   3.757   6.747  12.670 -1.8246 -2.4218  0.9603
12482TIP3   OH258936   4.224   5.366  15.724 -0.2478 -0.1647  0.1597
12482TIP3    H158937   4.253   5.404  15.641 -1.2503  1.0083  0.3158
12482TIP3    H258938   4.210   5.273  15.705  1.6370 -0.3685 -0.4060
12483TIP3   OH258939   0.424   2.556  14.055 -0.3006  0.7013 -0.3787
12483TIP3    H158940   0.437   2.462  14.066  2.5595  1.1512  1.0446
12483TIP3    H258941   0.432   2.570  13.961 -1.9930 -0.5520 -0.7695
12484TIP3   OH258942   5.018   2.952  15.321 -0.1803 -0.4455  0.6667
12484TIP3    H158943   5.031   2.865  15.359  0.9147  0.2363  1.9520
12484TIP3    H258944   5.082   2.957  15.251 -1.1127 -1.1131 -0.2728
12485TIP3   OH258945   4.280   4.493   1.655  0.2442  0.1871 -0.2118
12485TIP3    H158946   4.234   4.563   1.702 -2.3758 -0.6866 -1.2687
12485TIP3    H258947   4.236   4.413   1.684 -2.4144 -0.3371 -4.7422
12486TIP3   OH258948   3.137   0.291   3.736  0.3927  0.2282 -0.6066
12486TIP3    H158949   3.145   0.356   3.666  0.0297 -1.3938 -2.2345
12486TIP3    H258950   3.226   0.259   3.749  0.5460  0.8954  0.0863
12487TIP3   OH258951   3.994   0.397  13.397 -0.3815  0.1864  0.2525
12487TIP3    H158952   4.001   0.452  13.318 -0.0996 -1.4215 -0.8788
12487TIP3    H258953   4.071   0.420  13.449  0.5590 -0.2304 -0.9283
12488TIP3   OH258954   0.156   0.073  12.190  0.7081 -0.3465 -0.8050
12488TIP3    H158955   0.218   0.089  12.261 -0.0560 -0.3883 -0.1102
12488TIP3    H258956   0.076   0.043  12.234  0.9772 -2.7743 -1.8214
12489TIP3   OH258957   5.911   3.765   0.419  0.3223  0.6741 -0.0637
12489TIP3    H158958   5.926   3.675   0.389 -1.5710  0.1577  0.4068
12489TIP3    H258959   5.816   3.776   0.416  0.2569  1.6830  2.5612
12490TIP3   OH258960   1.815   5.819   0.499  0.4577  0.2217  0.0038
12490TIP3    H158961   1.896   5.800   0.547  0.4711 -2.8063 -1.0173
12490TIP3    H258962   1.845   5.843   0.411  0.2714  1.3434  0.2278
12491TIP3   OH258963   6.766   2.604  13.626 -0.2088 -0.8475  0.1624
12491TIP3    H158964   6.816   2.684  13.642 -0.2496 -0.9226  0.6819
12491TIP3    H258965   6.680   2.635  13.597  0.2699 -0.7213 -1.1796
12492TIP3   OH258966   1.711   2.968  11.582  0.6044  0.0271 -0.2481
12492TIP3    H158967   1.731   2.925  11.666 -1.0789  1.3072  0.8762
12492TIP3    H258968   1.725   2.900  11.516 -2.9021 -2.6936  1.4838
12493TIP3   OH258969   3.531   4.714   5.241 -0.3723  0.3144 -0.0818
12493TIP3    H158970   3.588   4.668   5.302 -2.7329 -1.7212  0.7535
12493TIP3    H258971   3.501   4.791   5.290 -0.6852 -0.2252  0.5917
12494TIP3   OH258972   1.917   3.583  14.275 -0.3545 -0.2516  0.2644
12494TIP3    H158973   1.871   3.613  14.197  0.5113  2.7391  0.7761
12494TIP3    H258974   1.997   3.542  14.242 -1.6886 -2.4285 -0.4772
12495TIP3   OH258975   3.088   0.912  14.168 -0.0171  0.2367 -0.1613
12495TIP3    H158976   2.998   0.923  14.137  1.1687 -0.5867 -4.7044
12495TIP3    H258977   3.084   0.838  14.228 -2.1369 -1.4573 -2.1832
12496TIP3   OH258978   3.633   4.517   5.389  0.1118 -0.0353 -0.2984
12496TIP3    H158979   3.559   4.464   5.419  0.6736 -1.6681 -1.6048
12496TIP3    H258980   3.703   4.497   5.452 -0.5326  1.5548  0.9709
12497TIP3   OH258981   0.009   0.791   2.789 -0.3585  0.4110  0.0240
12497TIP3    H158982   0.049   0.731   2.853  0.5464  0.7049 -0.2459
12497TIP3    H258983   0.068   0.866   2.787 -0.6118  0.5988 -0.8377
12498TIP3   OH258984   3.753   3.264  11.653  0.8311  0.0639 -0.6968
12498TIP3    H158985   3.678   3.256  11.713  0.3498  0.2075 -1.2677
12498TIP3    H258986   3.825   3.292  11.709  1.0316 -2.1613  0.2795
12499TIP3   OH258987   2.782   4.589  11.986 -0.0202  0.4957  0.7327
12499TIP3    H158988   2.824   4.670  11.959 -1.4852  1.0214 -0.0870
12499TIP3    H258989   2.830   4.520  11.940  0.6931  0.9577  0.7745
12500TIP3   OH258990   0.575   4.148   3.205  0.0233  0.5673 -0.5884
12500TIP3    H158991   0.561   4.241   3.191  1.5969  0.7065 -1.4766
12500TIP3    H258992   0.593   4.140   3.299  3.1751  1.7086 -0.9728
12501TIP3   OH258993   3.449   5.142   1.953 -0.2002  0.0210 -0.2641
12501TIP3    H158994   3.463   5.162   2.046 -0.9223  0.5735 -0.2609
12501TIP3    H258995   3.509   5.201   1.907 -0.3267  0.2335 -0.1619
12502TIP3   OH258996   6.098   2.185   1.470 -0.2737 -0.0233 -0.5638
12502TIP3    H158997   6.143   2.111   1.432  0.9970 -0.4703  1.6218
12502TIP3    H258998   6.167   2.251   1.484 -0.2420 -0.5546  2.4391
12503TIP3   OH258999   5.610   1.362  11.460 -0.0768 -0.3306  0.3170
12503TIP3    H159000   5.525   1.371  11.501 -0.5291 -0.8545 -0.4808
12503TIP3    H259001   5.592   1.323  11.374  0.7655  1.3585 -0.6796
12504TIP3   OH259002   5.765   3.595   4.254  0.6957  0.0694 -0.1401
12504TIP3    H159003   5.768   3.603   4.158  0.1885  0.2260 -0.1462
12504TIP3    H259004   5.689   3.540   4.270  1.5576 -1.0921  0.1170
12505TIP3   OH259005   4.665   4.793  13.927  0.4940 -0.0111  0.7161
12505TIP3    H159006   4.722   4.785  14.003  1.3184  2.6988  0.4825
12505TIP3    H259007   4.724   4.790  13.852 -0.1060 -0.7973  0.2578
12506TIP3   OH259008   6.729   1.779  16.444 -0.1251  0.1452  0.0582
12506TIP3    H159009   6.788   1.718  16.401  0.9248  0.2922  1.2291
12506TIP3    H259010   6.669   1.723  16.494 -0.8862  0.0053 -0.9738
12507TIP3   OH259011   4.758   6.564   4.832 -0.1170  0.1005 -0.0624
12507TIP3    H159012   4.686   6.611   4.790  1.6741  2.3464 -0.7897
12507TIP3    H259013   4.778   6.492   4.772 -0.6792  0.4335 -0.6596
12508TIP3   OH259014   1.802   4.584  10.142  0.2482 -0.0996 -0.1049
12508TIP3    H159015   1.728   4.631  10.181  0.7913  0.1775  0.6184
12508TIP3    H259016   1.771   4.495  10.130 -1.0407  0.5503 -2.1267
12509TIP3   OH259017   5.439   5.048   2.280  0.2854 -0.0428  0.2313
12509TIP3    H159018   5.386   4.981   2.322  0.1776  0.2818  0.6245
12509TIP3    H259019   5.506   5.069   2.344  2.7298 -2.5065 -1.3239
12510TIP3   OH259020   0.029   0.910  12.731  0.0407  0.3561  0.4368
12510TIP3    H159021   0.106   0.897  12.674 -0.5789 -1.1174 -0.1012
12510TIP3    H259022   0.064   0.956  12.808  0.6818  3.7712 -1.6607
12511TIP3   OH259023   0.741   2.470   4.628 -0.2170  0.4986 -0.1803
12511TIP3    H159024   0.675   2.426   4.574 -0.1800  1.2582 -0.8737
12511TIP3    H259025   0.810   2.493   4.566  0.0422  0.9796  0.2820
12512TIP3   OH259026   5.862   6.380  14.173  0.1511 -0.1722 -0.6736
12512TIP3    H159027   5.884   6.445  14.106 -1.1502  2.2021  1.0322
12512TIP3    H259028   5.766   6.378  14.172  0.1040 -0.0643  1.0655
12513TIP3   OH259029   1.102   0.512   1.439  0.1004  0.3132 -1.0951
12513TIP3    H159030   1.070   0.440   1.384  0.6751 -1.3220  0.6222
12513TIP3    H259031   1.036   0.581   1.428 -0.3550 -0.3505 -2.9489
12514TIP3   OH259032   6.228   1.247   0.969 -0.1452  0.6042 -0.4221
12514TIP3    H159033   6.172   1.323   0.952 -0.8710  0.6966  2.0384
12514TIP3    H259034   6.168   1.174   0.980  0.4834 -0.1243 -1.5591
12515TIP3   OH259035   1.649   5.443  16.502 -0.5130 -0.5454  0.1968
12515TIP3    H159036   1.582   5.497  16.543  0.0229  0.1630  0.1523
12515TIP3    H259037   1.654   5.474  16.412  0.8005  0.3428  0.5468
12516TIP3   OH259038   4.484   1.580   6.416  0.5130 -0.3062 -0.0111
12516TIP3    H159039   4.488   1.667   6.456 -2.1594  0.7480 -1.7628
12516TIP3    H259040   4.431   1.528   6.477 -0.2129  0.1209 -0.2752
12517TIP3   OH259041   4.941   3.051   1.707  0.2986 -0.5381 -0.1328
12517TIP3    H159042   4.964   3.054   1.800  0.9017  1.2749 -0.3090
12517TIP3    H259043   5.019   3.081   1.661 -0.4035 -0.1957 -1.1394
12518TIP3   OH259044   5.508   2.982   0.951 -0.0169  0.1160  0.1093
12518TIP3    H159045   5.571   2.929   0.903  2.5748 -0.0667  3.3748
12518TIP3    H259046   5.529   3.073   0.927  0.1312 -0.0278 -0.3109
12519TIP3   OH259047   1.235   2.525  16.790 -0.6984  0.1185  0.5793
12519TIP3    H159048   1.261   2.559  16.875  1.1785  1.2490 -0.3813
12519TIP3    H259049   1.221   2.604  16.736  0.0425 -0.5822 -0.6751
12520TIP3   OH259050   5.788   0.578   1.414  0.0770 -0.3359  0.5182
12520TIP3    H159051   5.797   0.667   1.447 -0.8739  0.6211 -1.6551
12520TIP3    H259052   5.711   0.543   1.458  1.8927 -1.1301  3.3718
12521TIP3   OH259053   1.365   5.264  14.116  0.1235 -0.3445 -0.3470
12521TIP3    H159054   1.390   5.267  14.024  0.2368  0.7792 -0.2926
12521TIP3    H259055   1.271   5.278  14.116 -0.2441 -2.4390 -0.4039
12522TIP3   OH259056   2.093   6.845   2.292 -0.1440 -0.0580 -0.2037
12522TIP3    H159057   2.129   6.756   2.296  0.2272  0.1213  0.5902
12522TIP3    H259058   2.163   6.898   2.255  0.4461  0.2802  1.2907
12523TIP3   OH259059   1.892   2.340  14.628  0.2339 -0.0518 -0.1805
12523TIP3    H159060   1.861   2.391  14.554 -1.7703  0.4862  0.9553
12523TIP3    H259061   1.856   2.252  14.613  0.1384 -0.0389 -0.0277
12524TIP3   OH259062   3.953   0.826   3.243  0.2741 -0.2083  0.0351
12524TIP3    H159063   3.946   0.920   3.223  0.0845 -0.7409 -2.6660
12524TIP3    H259064   3.993   0.788   3.166 -1.2991 -2.6412  0.3323
12525TIP3   OH259065   4.953   2.429   0.416 -0.5086 -0.3138  0.0512
12525TIP3    H159066   4.919   2.507   0.460  0.6071 -0.0622  0.5084
12525TIP3    H259067   4.994   2.462   0.336 -2.5822 -0.7738 -1.3012
12526TIP3   OH259068   1.124   0.584   2.162  0.4902  0.4590 -0.1581
12526TIP3    H159069   1.176   0.549   2.234  0.1865  0.2307 -0.0472
12526TIP3    H259070   1.098   0.672   2.191 -0.1584  0.1252  0.2792
12527TIP3   OH259071   0.513   3.835   1.771  0.0845 -0.4054 -0.5886
12527TIP3    H159072   0.496   3.916   1.724 -3.4911 -2.5126 -3.4133
12527TIP3    H259073   0.581   3.791   1.720 -0.9872 -0.9562 -1.5834
12528TIP3   OH259074   5.238   0.080   2.037  0.4252  0.7077  0.0919
12528TIP3    H159075   5.293   0.002   2.042  2.4352  2.1084  1.1997
12528TIP3    H259076   5.179   0.072   2.112  0.5423  0.1897  0.1323
12529TIP3   OH259077   2.325   3.391   0.626 -0.9075  0.3766 -0.3077
12529TIP3    H159078   2.345   3.480   0.655 -0.2589 -0.1449  0.9019
12529TIP3    H259079   2.401   3.339   0.651 -1.0118 -0.4328 -1.5387
12530TIP3   OH259080   5.118   6.831  15.150  0.2116  0.2364  0.2827
12530TIP3    H159081   5.103   6.925  15.163  1.0927  0.5491 -0.8584
12530TIP3    H259082   5.200   6.813  15.195  1.1501  0.4756 -1.2862
12531TIP3   OH259083   6.292   0.675  13.829  0.4440 -0.2478 -0.0681
12531TIP3    H159084   6.303   0.764  13.861 -0.9872 -0.7840  2.1813
12531TIP3    H259085   6.379   0.648  13.798  1.2261  1.3840  0.6405
12532TIP3   OH259086   2.865   6.307   0.434  0.0831  0.1708 -0.0061
12532TIP3    H159087   2.885   6.264   0.517  0.0385  0.3487  0.0970
12532TIP3    H259088   2.943   6.359   0.414  0.5750 -0.7799 -0.6677
12533TIP3   OH259089   5.296   4.228  16.186 -0.1115  0.1502  0.4900
12533TIP3    H159090   5.334   4.300  16.137 -1.1211  0.9603  0.8624
12533TIP3    H259091   5.344   4.227  16.269  0.3239 -0.0130  0.2384
12534TIP3   OH259092   1.875   4.857   5.570  0.3476  0.3670 -0.2687
12534TIP3    H159093   1.884   4.767   5.599  0.6806  1.2216  2.6641
12534TIP3    H259094   1.924   4.908   5.635  1.0935  2.5852 -2.4340
12535TIP3   OH259095   1.279   5.553  14.875 -0.5078  0.1046 -0.3375
12535TIP3    H159096   1.347   5.619  14.862  1.4846 -2.0477 -1.7469
12535TIP3    H259097   1.327   5.470  14.883 -2.8867 -1.2664  0.9977
12536TIP3   OH259098   5.842   3.097   1.549 -0.6425  0.0091  0.1635
12536TIP3    H159099   5.836   3.153   1.626  1.3340  2.1448 -1.1101
12536TIP3    H259100   5.868   3.156   1.478  1.6987 -2.4902 -1.2577
12537TIP3   OH259101   2.305   6.271  11.002 -0.3200  0.3651  0.4048
12537TIP3    H159102   2.367   6.202  10.979  0.1509  0.8311  0.2411
12537TIP3    H259103   2.293   6.319  10.920  1.3858  2.0652  1.0789
12538TIP3   OH259104   6.598   6.251   4.455 -0.4675  0.0827  0.2728
12538TIP3    H159105   6.646   6.197   4.517 -0.3293 -0.3575 -0.2157
12538TIP3    H259106   6.662   6.274   4.388 -1.2683 -1.7591 -1.1939
12539TIP3   OH259107   6.309   4.858   5.388  0.0903 -0.2343 -0.4674
12539TIP3    H159108   6.241   4.919   5.416 -1.1165 -1.4899 -0.5613
12539TIP3    H259109   6.390   4.896   5.422 -0.9266  0.0053  1.8637
12540TIP3   OH259110   5.184   3.104   0.263  0.2153 -0.0095  0.3121
12540TIP3    H159111   5.256   3.149   0.218 -0.9433  0.8546 -0.7510
12540TIP3    H259112   5.219   3.018   0.285  1.6360  0.4669  0.0184
12541TIP3   OH259113   6.337   1.616  12.432 -0.0545  0.5453 -0.0742
12541TIP3    H159114   6.322   1.700  12.389 -0.5043  0.4769 -0.0545
12541TIP3    H259115   6.378   1.639  12.515 -0.2698  0.7554 -0.0242
12542TIP3   OH259116   4.539   3.758   2.716  0.4030 -0.1230  0.2067
12542TIP3    H159117   4.503   3.732   2.800  1.5467 -0.3629  0.6470
12542TIP3    H259118   4.618   3.808   2.739  0.9502 -0.5382 -0.7276
12543TIP3   OH259119   5.908   4.596   6.032 -0.0708  0.3669  0.9782
12543TIP3    H159120   5.927   4.510   5.996  1.7560  1.4886 -1.0215
12543TIP3    H259121   5.925   4.587   6.126  0.0207 -1.4349  0.8232
12544TIP3   OH259122   1.992   3.883  15.711 -0.7315 -0.0051 -0.0359
12544TIP3    H159123   1.992   3.966  15.758 -2.1602  0.6129 -1.0704
12544TIP3    H259124   2.080   3.847  15.725  0.3350  2.2471 -0.5768
12545TIP3   OH259125   0.048   1.984  12.583 -0.4086  0.0058  0.1244
12545TIP3    H159126   0.102   1.927  12.529 -0.5705 -0.7932  0.7896
12545TIP3    H259127  -0.024   2.010  12.526 -0.9460 -1.3773  0.1522
12546TIP3   OH259128   1.893   4.695   3.250  0.4019 -0.3163  0.0272
12546TIP3    H159129   1.946   4.720   3.326 -0.6647  0.4283  0.5578
12546TIP3    H259130   1.940   4.732   3.176  1.1500 -0.5443  0.3723
12547TIP3   OH259131   1.796   6.249  12.098 -0.3752  0.0962  0.1965
12547TIP3    H159132   1.839   6.210  12.174 -0.2355 -1.1565 -0.4909
12547TIP3    H259133   1.777   6.174  12.041 -0.0557  1.0520 -1.2112
12548TIP3   OH259134   4.686   2.242   2.963  0.0671 -0.0859  0.2056
12548TIP3    H159135   4.611   2.189   2.938 -0.1587  0.5037 -0.4086
12548TIP3    H259136   4.756   2.214   2.904 -0.0293  0.2290 -0.0634
12549TIP3   OH259137   0.595   4.302  13.036  0.0217  0.6861 -0.7612
12549TIP3    H159138   0.551   4.368  13.090 -0.2615 -0.8287  0.9347
12549TIP3    H259139   0.528   4.236  13.020  1.3682 -1.3101  1.2500
12550TIP3   OH259140   5.493   2.619   0.858  0.0170  0.1428  0.2190
12550TIP3    H159141   5.515   2.690   0.797  2.1498 -2.5773 -2.5147
12550TIP3    H259142   5.412   2.583   0.824 -0.5416  0.6040  1.0224
12551TIP3   OH259143   3.006   5.086   0.674 -0.0637  0.1241  0.0470
12551TIP3    H159144   2.994   5.170   0.719  1.0997 -0.0830  0.7813
12551TIP3    H259145   3.101   5.079   0.662 -0.2356 -0.5809 -1.0115
12552TIP3   OH259146   6.678   3.918   0.051  0.3953  0.7289 -0.0261
12552TIP3    H159147   6.709   3.869   0.127 -0.5503 -0.1622 -0.1949
12552TIP3    H259148   6.656   3.851  -0.014 -0.7237  1.3689 -0.3395
12553TIP3   OH259149   3.893   3.804  11.256 -0.3962  0.6311  0.4925
12553TIP3    H159150   3.871   3.800  11.163 -1.3752  1.2322  0.6827
12553TIP3    H259151   3.835   3.739  11.297  2.0457 -1.7826  0.3694
12554TIP3   OH259152   1.753   1.305   2.956  0.0057 -0.0654  0.9444
12554TIP3    H159153   1.834   1.340   2.995  0.3966 -1.3736  1.3411
12554TIP3    H259154   1.683   1.338   3.012  0.2640  0.9392  0.6976
12555TIP3   OH259155   5.406   1.304  13.750 -0.9847 -0.3377 -0.1076
12555TIP3    H159156   5.342   1.336  13.814 -0.2930  0.0912  0.3921
12555TIP3    H259157   5.383   1.349  13.669 -1.9697 -1.0075 -0.2118
12556TIP3   OH259158   5.214   1.564  12.409 -0.1898 -0.0931 -0.0107
12556TIP3    H159159   5.143   1.501  12.411 -0.1712 -0.1085  0.2454
12556TIP3    H259160   5.184   1.636  12.464  0.5769 -0.7413  1.2990
12557TIP3   OH259161   2.834   0.344   4.137  0.0023  0.3458  0.0380
12557TIP3    H159162   2.808   0.375   4.224  1.0775 -0.7736  0.7926
12557TIP3    H259163   2.798   0.409   4.077 -0.0200  1.6327  1.3716
12558TIP3   OH259164   2.135   5.007  10.734 -0.4945  0.3582  0.5163
12558TIP3    H159165   2.136   5.102  10.737  2.8058  0.4431  0.7282
12558TIP3    H259166   2.196   4.984  10.663 -1.5918 -1.6193  0.1312
12559TIP3   OH259167   6.028   6.501   5.033  0.3262  0.3529  0.1959
12559TIP3    H159168   5.983   6.580   5.002  1.0991  1.7307  2.2875
12559TIP3    H259169   6.119   6.515   5.009  0.7441  0.9228  1.9604
12560TIP3   OH259170   5.523   3.665  16.598 -0.2384 -0.4526 -0.2523
12560TIP3    H159171   5.611   3.698  16.615 -0.4969  0.5800 -0.8202
12560TIP3    H259172   5.465   3.727  16.643 -0.7123 -0.6635 -0.5629
12561TIP3   OH259173   2.890   0.226   4.827 -0.2111 -0.0713  0.3882
12561TIP3    H159174   2.912   0.268   4.744 -0.1715 -0.1690  0.3497
12561TIP3    H259175   2.794   0.221   4.826 -0.3356  1.6332  1.1775
12562TIP3   OH259176   5.836   6.774  15.512  0.0113 -0.3750 -0.3792
12562TIP3    H159177   5.847   6.812  15.598  0.8399  1.4147 -1.2284
12562TIP3    H259178   5.744   6.747  15.509 -0.9782  2.6238 -0.0917
12563TIP3   OH259179   4.827   0.285   2.225  0.4020 -0.2142  0.0496
12563TIP3    H159180   4.839   0.206   2.278  0.9589 -0.5568 -0.5772
12563TIP3    H259181   4.820   0.253   2.135 -1.2588  0.3039 -0.0380
12564TIP3   OH259182   1.013   3.549   2.085  0.3585 -0.0115 -0.0200
12564TIP3    H159183   0.963   3.597   2.020 -1.7452  0.0904  1.5746
12564TIP3    H259184   1.004   3.457   2.059  1.8495  0.1915 -1.3674
12565TIP3   OH259185   5.058   0.137   4.746  0.1322 -0.0009  0.3063
12565TIP3    H159186   5.109   0.210   4.712 -0.1535 -0.1456 -0.4566
12565TIP3    H259187   5.098   0.116   4.830  0.8257  0.3988  0.0804
12566TIP3   OH259188   5.830   1.145  16.530  0.2186  0.6386  0.2040
12566TIP3    H159189   5.823   1.062  16.577  0.0315  0.3294 -0.3682
12566TIP3    H259190   5.813   1.212  16.597 -0.9436  0.1704  0.3960
12567TIP3   OH259191   3.294   2.316   5.487 -0.0685 -0.6646 -0.3062
12567TIP3    H159192   3.380   2.330   5.449 -0.8193  1.5173 -1.4316
12567TIP3    H259193   3.269   2.228   5.460  1.0747 -0.6540 -1.4921
12568TIP3   OH259194   3.295   5.118  14.774  0.0811 -0.0176  0.1230
12568TIP3    H159195   3.289   5.159  14.860 -0.0933 -2.4439  1.3639
12568TIP3    H259196   3.378   5.149  14.738  0.1391  1.0608  1.1282
12569TIP3   OH259197   6.652   2.784  14.716 -0.5420  0.6724 -0.7224
12569TIP3    H159198   6.664   2.692  14.737 -0.5718  0.7366 -0.4158
12569TIP3    H259199   6.559   2.792  14.695 -1.2687  1.1694  2.1598
12570TIP3   OH259200   5.180   4.964   3.299 -0.4449 -0.3218 -0.1809
12570TIP3    H159201   5.119   4.890   3.300  0.7572 -1.4589 -2.9457
12570TIP3    H259202   5.264   4.926   3.327 -0.5157  0.8273  1.7715
12571TIP3   OH259203   4.049   5.384  12.457  0.8559 -0.1257  0.1301
12571TIP3    H159204   4.039   5.449  12.388 -3.5867 -1.0996 -0.4468
12571TIP3    H259205   4.049   5.300  12.411  0.0809 -0.7226  1.1786
12572TIP3   OH259206   6.004   3.733  10.327  0.0453  0.0342 -0.5661
12572TIP3    H159207   5.988   3.642  10.351  0.6614 -0.6488 -2.5775
12572TIP3    H259208   6.088   3.732  10.281  0.7328  1.8618  0.5518
12573TIP3   OH259209   6.329   5.629   4.077 -0.1450  0.1861  0.8464
12573TIP3    H159210   6.273   5.611   4.153 -1.1169 -0.3716  0.0311
12573TIP3    H259211   6.417   5.607   4.106 -0.1668  2.0631  2.4894
12574TIP3   OH259212   4.773   4.146   1.027 -0.0581  0.0072 -0.1266
12574TIP3    H159213   4.706   4.082   1.051  1.8832 -2.1666 -0.0986
12574TIP3    H259214   4.749   4.173   0.938 -1.2940 -0.2597  0.1092
12575TIP3   OH259215   6.206   2.977   4.994 -0.2982  0.2217  0.4444
12575TIP3    H159216   6.234   2.927   5.071 -0.7934  2.0254  1.8814
12575TIP3    H259217   6.257   3.058   4.999 -0.7582  0.6000 -0.8208
12576TIP3   OH259218   4.684   4.800   5.639  0.0748  0.3319  0.2224
12576TIP3    H159219   4.644   4.883   5.665 -0.7128  0.8009 -2.1983
12576TIP3    H259220   4.691   4.806   5.544 -0.8852 -2.7580 -0.1513
12577TIP3   OH259221   0.628   3.778  13.678 -0.0450 -0.4609  0.3484
12577TIP3    H159222   0.537   3.807  13.663 -0.6020 -1.7602  1.0419
12577TIP3    H259223   0.681   3.837  13.625 -1.1404  1.4935  1.2996
12578TIP3   OH259224   6.167   2.471   0.144 -0.1291 -0.0007 -0.6342
12578TIP3    H159225   6.078   2.475   0.108 -0.3554 -0.7988 -0.1922
12578TIP3    H259226   6.158   2.506   0.233  0.4181  1.9289 -1.2874
12579TIP3   OH259227   0.761   5.502  15.707 -0.2065 -0.0065  0.3993
12579TIP3    H159228   0.722   5.588  15.690  0.6835  0.3777  0.2397
12579TIP3    H259229   0.743   5.451  15.628  0.9854  0.6898 -0.3519
12580TIP3   OH259230   2.624   6.652  16.642 -0.1434 -0.7346  0.2924
12580TIP3    H159231   2.558   6.589  16.612  0.2084  0.0472 -2.4262
12580TIP3    H259232   2.687   6.657  16.570 -0.6517  3.3581 -0.1222
12581TIP3   OH259233   2.739   4.242  13.231 -0.3573 -0.1407 -0.3337
12581TIP3    H159234   2.833   4.249  13.247 -0.3472  0.0882 -0.4904
12581TIP3    H259235   2.732   4.201  13.146 -0.4122 -1.2955  0.2151
12582TIP3   OH259236   3.775   3.701  12.785 -0.0719  0.5307  0.2855
12582TIP3    H159237   3.710   3.648  12.831  1.0503 -0.6044  0.6132
12582TIP3    H259238   3.770   3.787  12.828 -0.0334 -0.0993  1.6165
12583TIP3   OH259239   1.943   0.034  14.885  1.1087  0.7289 -0.2139
12583TIP3    H159240   1.875   0.101  14.878 -0.3718 -0.2662  2.8885
12583TIP3    H259241   1.907  -0.041  14.837  0.7004  0.7012  0.1277
12584TIP3   OH259242   3.766   4.288   4.943 -0.5334 -0.5548  0.0348
12584TIP3    H159243   3.716   4.245   4.873 -0.5997 -3.0828  1.5287
12584TIP3    H259244   3.855   4.254   4.934  0.4170  1.9289 -0.9902
12585TIP3   OH259245   2.804   3.324  14.172  0.5326 -0.4050  0.1746
12585TIP3    H159246   2.729   3.309  14.115 -0.5405 -0.5440  1.5748
12585TIP3    H259247   2.876   3.280  14.128 -0.2031 -0.3392 -1.1640
12586TIP3   OH259248   4.119   0.756  13.386  0.2963 -0.7881  0.2911
12586TIP3    H159249   4.044   0.812  13.365  1.3550  1.5984  2.2665
12586TIP3    H259250   4.195   0.810  13.363  1.3804 -1.5449  1.9333
12587TIP3   OH259251   0.441   0.006  13.834  0.0986 -0.2298  0.6748
12587TIP3    H159252   0.372  -0.035  13.886  0.0604 -0.5347  0.3845
12587TIP3    H259253   0.449  -0.049  13.756  0.6962 -0.2161  0.7223
12588TIP3   OH259254   3.869   2.750   0.291 -0.1674  0.2201  0.1334
12588TIP3    H159255   3.912   2.666   0.276  0.3913  0.2804  1.2462
12588TIP3    H259256   3.891   2.803   0.214  1.7934  0.2438  0.6556
12589TIP3   OH259257   4.611   0.414  12.073 -0.6515  0.4621 -0.1996
12589TIP3    H159258   4.565   0.498  12.066  1.5572  1.9983  2.0984
12589TIP3    H259259   4.674   0.415  12.002 -0.1786  1.0916  0.2191
12590TIP3   OH259260   5.930   1.594  10.428  0.3948 -0.4909  0.3229
12590TIP3    H159261   5.909   1.501  10.432  0.3655 -0.4559  1.0142
12590TIP3    H259262   5.854   1.634  10.386  1.1503 -1.0031 -1.6516
12591TIP3   OH259263   2.743   3.268   2.393 -0.4133  0.1002  0.2984
12591TIP3    H159264   2.790   3.212   2.455 -0.7022  1.0315  1.3910
12591TIP3    H259265   2.765   3.357   2.419 -2.7504  0.5706  0.8596
12592TIP3   OH259266   5.554   1.355   5.978 -0.0201 -0.1131 -0.7432
12592TIP3    H159267   5.516   1.318   6.058 -0.0162  1.1574 -0.1321
12592TIP3    H259268   5.490   1.335   5.910 -0.6089 -0.1524 -0.1901
12593TIP3   OH259269   5.590   4.348  11.481 -0.4106 -0.0004  0.0688
12593TIP3    H159270   5.606   4.377  11.391 -0.5106 -0.6177 -0.1540
12593TIP3    H259271   5.575   4.429  11.530 -2.7448  0.2320 -0.9313
12594TIP3   OH259272   5.220   1.350   4.477 -0.2918 -0.2089 -0.3023
12594TIP3    H159273   5.267   1.364   4.395  0.6083 -2.2562 -0.2056
12594TIP3    H259274   5.286   1.363   4.545 -0.3144 -1.2283 -0.0651
12595TIP3   OH259275   5.019   3.515  13.440  0.5046  0.5117 -0.2859
12595TIP3    H159276   4.972   3.597  13.453 -0.6643 -0.0113 -1.0135
12595TIP3    H259277   5.049   3.490  13.528  0.7828  1.6356 -0.0410
12596TIP3   OH259278   1.252   4.928  13.187 -0.2580 -0.3352  0.6811
12596TIP3    H159279   1.344   4.903  13.184 -0.6803 -1.8637 -0.8842
12596TIP3    H259280   1.254   5.023  13.197  1.4938 -0.2806  0.2039
12597TIP3   OH259281   5.297   4.525  16.420  0.0708 -0.1318  0.2150
12597TIP3    H159282   5.346   4.468  16.361  1.4926  0.0979  1.1438
12597TIP3    H259283   5.217   4.546  16.371  0.3847 -1.3826 -0.8959
12598TIP3   OH259284   1.056   3.644   0.624 -0.0296 -0.2918  0.8063
12598TIP3    H159285   1.146   3.613   0.609 -0.1206  0.4307 -1.9393
12598TIP3    H259286   1.068   3.732   0.661  0.4920  0.2735 -0.6095
12599TIP3   OH259287   2.686   1.782   2.543  0.0326  0.0364  0.2430
12599TIP3    H159288   2.602   1.737   2.536 -1.8521  3.2689  0.1009
12599TIP3    H259289   2.726   1.772   2.457 -1.1753  0.1620 -0.3515
12600TIP3   OH259290   5.450   4.063  15.626  0.3321 -0.2778  0.0208
12600TIP3    H159291   5.388   3.993  15.646 -1.4806  1.2086 -0.0446
12600TIP3    H259292   5.516   4.022  15.570 -1.8280 -1.5052 -1.7898
12601TIP3   OH259293   4.018   0.913  11.857  0.2960 -0.3167  0.2156
12601TIP3    H159294   4.030   0.854  11.932 -0.1865 -1.1635 -0.3570
12601TIP3    H259295   4.049   0.998  11.889  1.6795 -1.0104  0.8390
12602TIP3   OH259296   0.990   1.544   4.018 -0.0219 -0.5235  0.0621
12602TIP3    H159297   0.961   1.466   4.064  0.5685 -1.5037 -1.1710
12602TIP3    H259298   0.910   1.595   4.004 -0.6265 -1.5526 -0.3024
12603TIP3   OH259299   5.450   5.793   2.457  0.3031 -0.2929  0.0432
12603TIP3    H159300   5.484   5.715   2.413 -0.0609 -0.4412  0.0221
12603TIP3    H259301   5.360   5.770   2.481 -0.4280  0.7689 -1.5570
12604TIP3   OH259302   4.110   3.484  15.458 -0.2157 -0.1078  0.2328
12604TIP3    H159303   4.149   3.466  15.543 -1.1851 -0.0884  0.7020
12604TIP3    H259304   4.098   3.398  15.418 -0.8288 -0.2131  0.6221
12605TIP3   OH259305   5.105   2.770   0.423 -0.2078 -0.0666  0.1363
12605TIP3    H159306   5.185   2.748   0.376 -0.2184  1.2985 -0.5818
12605TIP3    H259307   5.134   2.790   0.512 -0.0068 -1.2954  0.3662
12606TIP3   OH259308   0.203   3.314  16.755 -0.2765 -0.1612  0.3408
12606TIP3    H159309   0.244   3.268  16.682  1.0262  1.4827 -0.0233
12606TIP3    H259310   0.132   3.257  16.783 -0.1512 -1.2950 -1.5427
12607TIP3   OH259311   1.283   4.617   1.215 -0.0071 -0.0673 -0.5418
12607TIP3    H159312   1.346   4.655   1.277 -0.4855  0.7472 -0.5409
12607TIP3    H259313   1.338   4.578   1.147  0.5351 -1.2774  0.5445
12608TIP3   OH259314   4.060   2.652   3.939  0.2562 -0.2206 -0.6649
12608TIP3    H159315   4.154   2.638   3.954  0.0309 -0.5450  0.5746
12608TIP3    H259316   4.028   2.568   3.908  0.0983 -0.6165  0.4986
12609TIP3   OH259317   6.394   0.699   2.454 -0.5866 -0.0075  0.1232
12609TIP3    H159318   6.391   0.720   2.548 -2.6891  2.2099 -0.3354
12609TIP3    H259319   6.484   0.715   2.428 -0.3384  0.9128  1.4514
12610TIP3   OH259320   2.204   3.258   3.764 -0.2746 -0.0978 -0.4060
12610TIP3    H159321   2.208   3.165   3.745 -0.0546  0.2653 -2.3804
12610TIP3    H259322   2.296   3.286   3.770 -0.3347  0.1094 -0.4278
12611TIP3   OH259323   6.008   3.181  15.956  0.3361  0.5655 -0.2413
12611TIP3    H159324   6.074   3.148  16.017  0.7817  0.0316 -0.9925
12611TIP3    H259325   5.969   3.256  16.001  0.5885  0.1298  0.7332
12612TIP3   OH259326   0.693   5.979   3.436  0.9826 -0.2738  0.2512
12612TIP3    H159327   0.730   5.958   3.522  0.8641 -3.0700 -0.2945
12612TIP3    H259328   0.758   5.946   3.373 -0.0517 -0.5061 -0.7229
12613TIP3   OH259329   0.263   5.542   6.095  0.0693  0.2802  0.3113
12613TIP3    H159330   0.301   5.458   6.068  1.1015  1.4050 -2.0506
12613TIP3    H259331   0.169   5.525   6.103  0.1587 -0.9503 -0.8442
12614TIP3   OH259332   0.685   6.171   4.177 -0.5305  0.2304 -0.1370
12614TIP3    H159333   0.707   6.123   4.257  2.3760  2.9719  0.9363
12614TIP3    H259334   0.608   6.222   4.199  0.2568  0.9720  0.9969
12615TIP3   OH259335   4.822   4.129   5.030 -0.1305 -0.1396 -0.5732
12615TIP3    H159336   4.911   4.158   5.009 -0.0351 -1.2640 -1.9122
12615TIP3    H259337   4.773   4.210   5.043  1.2941  0.5059  1.2630
12616TIP3   OH259338   5.009   0.278   6.031  0.0991 -0.6667  0.0908
12616TIP3    H159339   4.948   0.243   6.096 -0.2102  0.2231  0.2921
12616TIP3    H259340   4.973   0.363   6.007  0.8580 -0.4598 -0.3508
12617TIP3   OH259341   5.111   2.801  16.378  0.0076  0.3045  0.5077
12617TIP3    H159342   5.054   2.762  16.312  1.2256 -0.3322 -0.1909
12617TIP3    H259343   5.115   2.735  16.447  0.3750  0.1032  0.2914
12618TIP3   OH259344   4.837   2.667   0.658  0.4627  0.3533 -0.0023
12618TIP3    H159345   4.887   2.683   0.737  1.5496  0.7948 -0.7617
12618TIP3    H259346   4.746   2.678   0.685  0.8605  1.4864  0.9512
12619TIP3   OH259347   3.977   1.492   4.976  0.1175  0.2015 -0.5632
12619TIP3    H159348   3.945   1.411   5.016  0.1197  0.3348 -0.2955
12619TIP3    H259349   3.907   1.519   4.916  0.2037 -0.1094 -0.8075
12620TIP3   OH259350   4.047   5.402   5.325 -0.2317  0.2733 -0.3160
12620TIP3    H159351   3.972   5.343   5.320  0.8852 -1.2665  0.0965
12620TIP3    H259352   4.011   5.485   5.357 -1.6994 -0.5192  0.1732
12621TIP3   OH259353   3.891   5.429   5.909 -0.4113 -0.1530 -0.3854
12621TIP3    H159354   3.884   5.464   5.998 -0.6781  0.5249 -0.6616
12621TIP3    H259355   3.872   5.336   5.918  2.2464 -0.6830  0.6732
12622TIP3   OH259356   1.756   5.583  12.378 -0.0850  0.0727  0.1594
12622TIP3    H159357   1.831   5.569  12.436  2.4218  0.9067 -2.6721
12622TIP3    H259358   1.727   5.672  12.397  0.7086  0.3453  0.0935
12623TIP3   OH259359   1.274   1.333  10.785 -0.7086  0.2824 -0.3261
12623TIP3    H159360   1.187   1.294  10.787  0.2723 -2.1021 -1.3870
12623TIP3    H259361   1.297   1.343  10.878 -1.4380 -0.6656 -0.0255
12624TIP3   OH259362   6.591   2.093   1.188 -0.6173  0.9843  0.8714
12624TIP3    H159363   6.552   2.051   1.111  0.6893  0.3991  0.5090
12624TIP3    H259364   6.554   2.045   1.262 -0.4595  0.3203  0.5280
12625TIP3   OH259365   0.005   2.327  14.574 -0.1146  0.0781  0.5724
12625TIP3    H159366   0.021   2.366  14.488  0.3495  1.6567  1.3328
12625TIP3    H259367   0.063   2.375  14.633 -0.3274 -1.0655  1.7556
12626TIP3   OH259368   1.360   6.448   1.063 -0.6014 -0.0220 -0.1431
12626TIP3    H159369   1.446   6.479   1.091 -0.7281 -0.8947  1.3592
12626TIP3    H259370   1.302   6.523   1.075 -0.8223 -0.5301  2.9952
12627TIP3   OH259371   3.672   4.523  14.062 -0.1584  0.4009 -0.3326
12627TIP3    H159372   3.705   4.590  14.002  0.7831 -0.6335 -0.9868
12627TIP3    H259373   3.638   4.454  14.006 -0.2064 -0.1235  0.3305
12628TIP3   OH259374   4.771   5.757  15.040  0.5219  0.0826 -0.1835
12628TIP3    H159375   4.850   5.718  15.077  1.9747  1.3162 -1.8526
12628TIP3    H259376   4.775   5.735  14.947 -0.9463  0.4544 -0.3534
12629TIP3   OH259377   1.003   4.571  13.474  0.4872 -0.0220  0.1401
12629TIP3    H159378   1.040   4.498  13.425  2.1045  1.4366 -0.9112
12629TIP3    H259379   0.912   4.577  13.444 -0.2167 -2.5578  1.4594
12630TIP3   OH259380   1.819   3.986   2.369  0.5424 -0.3831  0.1915
12630TIP3    H159381   1.911   3.979   2.341  0.5825 -1.7884  0.5805
12630TIP3    H259382   1.771   4.004   2.288  0.9276 -1.9594 -0.4247
12631TIP3   OH259383   3.386   3.359   4.877  0.2239 -0.4687 -0.2823
12631TIP3    H159384   3.415   3.288   4.820  0.4930 -0.9563  0.4423
12631TIP3    H259385   3.467   3.403   4.903  0.2457 -1.1460  0.8628
12632TIP3   OH259386   1.756   0.084   2.317  0.0662 -0.4996 -0.1123
12632TIP3    H159387   1.744   0.137   2.395  1.2754 -0.8894  0.3718
12632TIP3    H259388   1.849   0.061   2.318  0.3054  0.1626 -2.1080
12633TIP3   OH259389   3.179   5.010  13.234  0.2361 -0.0512  0.8480
12633TIP3    H159390   3.156   5.088  13.183  0.3613 -0.9012 -0.5509
12633TIP3    H259391   3.153   5.032  13.323  1.8218  2.2421  0.8164
12634TIP3   OH259392   5.976   2.993  11.273 -0.3855  0.1904  0.3896
12634TIP3    H159393   5.989   2.956  11.360  0.7073  0.5464  0.3892
12634TIP3    H259394   5.881   2.993  11.261 -0.5598  0.2770  1.6400
12635TIP3   OH259395   6.744   0.382  15.828 -0.8237  0.0422  0.6707
12635TIP3    H159396   6.786   0.327  15.894 -0.9174 -1.0975 -0.1840
12635TIP3    H259397   6.650   0.367  15.840 -0.8812 -3.9040 -2.5805
12636TIP3   OH259398   6.418   5.557  15.883  0.0040 -0.2181  0.0801
12636TIP3    H159399   6.411   5.602  15.967  0.3689 -0.1397  0.0711
12636TIP3    H259400   6.356   5.484  15.889 -1.1021  0.6846 -0.1677
12637TIP3   OH259401   6.210   3.146  14.774 -0.5384  0.0013  0.3978
12637TIP3    H159402   6.241   3.124  14.862  0.7626 -0.8268 -0.2361
12637TIP3    H259403   6.234   3.070  14.720  1.1492  1.5441 -1.2114
12638TIP3   OH259404   1.718   3.808   2.960 -0.2046 -0.8893 -0.1801
12638TIP3    H159405   1.644   3.859   2.994 -0.5618 -1.0032 -0.7631
12638TIP3    H259406   1.685   3.770   2.879  0.4306 -1.1211 -0.3352
12639TIP3   OH259407   1.929   1.539   5.337  0.2768 -0.1768  0.0390
12639TIP3    H159408   1.896   1.593   5.265 -1.7742 -1.2397  0.1025
12639TIP3    H259409   1.899   1.584   5.416  0.6748 -0.1479  0.1762
12640TIP3   OH259410   5.132   1.439  14.359 -0.1016 -0.4835  0.1064
12640TIP3    H159411   5.185   1.489  14.422 -0.5111 -0.7972  0.7069
12640TIP3    H259412   5.043   1.468  14.375 -0.1558 -0.1520 -0.7259
12641TIP3   OH259413   6.610   1.228  16.360 -0.3369  0.3708 -0.0457
12641TIP3    H159414   6.608   1.134  16.340 -1.8794  0.6517 -1.3518
12641TIP3    H259415   6.519   1.255  16.360 -0.0270  1.6100  1.8233
12642TIP3   OH259416   0.542   6.368   0.945  0.1803  0.1801 -0.3412
12642TIP3    H159417   0.452   6.372   0.913  0.1785 -1.1354 -0.5390
12642TIP3    H259418   0.591   6.425   0.885 -0.2397 -0.4002 -1.2653
12643TIP3   OH259419   5.776   1.685   5.325 -0.4570 -0.3183  0.2222
12643TIP3    H159420   5.738   1.754   5.380  0.4695  0.7118 -0.3917
12643TIP3    H259421   5.868   1.709   5.315  0.0483 -1.9980  0.4975
12644TIP3   OH259422   6.311   4.502   3.336  0.3584 -0.0983 -0.5788
12644TIP3    H159423   6.235   4.512   3.393  1.7151  0.3410  1.2329
12644TIP3    H259424   6.338   4.592   3.316  1.6378 -0.2189  0.5322
12645TIP3   OH259425   6.835   6.174  11.828 -0.2570 -0.3813 -0.0682
12645TIP3    H159426   6.880   6.179  11.913 -0.6884  1.7929  0.0904
12645TIP3    H259427   6.774   6.101  11.838 -0.5549  0.0451  1.6567
12646TIP3   OH259428   0.954   0.268   0.299  0.5680 -1.0831  0.0164
12646TIP3    H159429   0.979   0.188   0.252 -0.4602 -1.8569  0.7173
12646TIP3    H259430   0.958   0.242   0.392 -1.2939 -0.8288  0.2107
12647TIP3   OH259431   6.756   4.629  16.569  0.2221 -0.5852 -0.0433
12647TIP3    H159432   6.815   4.615  16.643 -0.9204  1.0366  1.2329
12647TIP3    H259433   6.687   4.563  16.581  0.3044 -0.6568  0.0356
12648TIP3   OH259434   2.598   4.560   2.244  0.3398  0.1124  0.4153
12648TIP3    H159435   2.548   4.642   2.243  1.0844  0.6679 -2.9978
12648TIP3    H259436   2.534   4.493   2.219 -0.4399 -0.6337  3.8677
12649TIP3   OH259437   0.527   2.542  13.759 -0.3673 -0.2715 -0.5304
12649TIP3    H159438   0.447   2.508  13.718 -0.8857  1.2577 -0.8468
12649TIP3    H259439   0.540   2.628  13.719 -0.3252  0.8685  1.7984
12650TIP3   OH259440   4.211   5.842   0.857 -0.7456  0.1807 -0.6672
12650TIP3    H159441   4.294   5.824   0.902  0.6347  1.7655 -2.4342
12650TIP3    H259442   4.147   5.850   0.928 -0.0510 -3.7250  0.6754
12651TIP3   OH259443   6.101   4.579   3.467  0.3556 -0.7008 -0.1860
12651TIP3    H159444   6.132   4.604   3.554 -0.9114 -0.0209  0.0918
12651TIP3    H259445   6.015   4.540   3.482 -0.3252  0.3360 -1.2041
12652TIP3   OH259446   3.733   5.011  12.868  0.2567  0.9541 -0.3171
12652TIP3    H159447   3.657   5.022  12.926  0.5784 -2.7368  1.0740
12652TIP3    H259448   3.792   5.083  12.892 -1.9680  2.8301 -0.1364
12653TIP3   OH259449   0.211   5.966  16.017 -0.3563 -0.1505  0.2785
12653TIP3    H159450   0.182   6.025  16.087 -0.5259 -2.0480  1.8992
12653TIP3    H259451   0.140   5.970  15.953 -0.9122  0.5156  0.9036
12654TIP3   OH259452   5.073   4.760  12.431 -0.0603 -0.3486 -0.0251
12654TIP3    H159453   4.978   4.764  12.427 -0.0025  0.8026 -0.5053
12654TIP3    H259454   5.096   4.805  12.512  0.0522 -1.3529  0.5218
12655TIP3   OH259455   3.029   5.131  11.849 -0.1051 -0.5698  0.7122
12655TIP3    H159456   2.972   5.178  11.910  1.3219  0.1915  1.5240
12655TIP3    H259457   2.969   5.087  11.789 -1.5955 -1.5075  2.7627
12656TIP3   OH259458   2.550   0.892  11.392  0.0477 -0.3447 -0.3933
12656TIP3    H159459   2.528   0.902  11.299 -2.3592 -0.0492  0.1355
12656TIP3    H259460   2.563   0.982  11.423 -1.6536 -0.2060  0.0404
12657TIP3   OH259461   2.545   0.598  14.507 -0.1163 -0.1040 -0.2600
12657TIP3    H159462   2.499   0.520  14.537 -2.3218  1.5016  0.8299
12657TIP3    H259463   2.563   0.581  14.415 -0.9177 -1.7064 -0.1616
12658TIP3   OH259464   4.355   0.913  16.071 -0.2015 -0.0692 -0.3615
12658TIP3    H159465   4.415   0.872  16.008 -1.6218  0.9137 -2.4768
12658TIP3    H259466   4.298   0.842  16.100  2.6174 -1.3573  2.7625
12659TIP3   OH259467   0.568   0.720  16.890 -0.5119  0.1584 -0.5789
12659TIP3    H159468   0.490   0.690  16.936 -1.4404  2.0270 -0.8257
12659TIP3    H259469   0.571   0.667  16.811  0.5556 -2.4167  1.0366
12660TIP3   OH259470   1.038   6.293   3.400 -1.0606 -0.2446 -0.3145
12660TIP3    H159471   1.028   6.269   3.308 -1.4674  1.2554 -0.6782
12660TIP3    H259472   1.110   6.356   3.401 -2.3558  1.2821  0.0942
12661TIP3   OH259473   0.481   2.807  15.900 -0.4635  0.6660  0.0628
12661TIP3    H159474   0.466   2.748  15.826 -0.8214  0.9979 -0.1338
12661TIP3    H259475   0.406   2.866  15.898 -1.0139  0.0429  1.3045
12662TIP3   OH259476   2.368   3.641  17.101 -0.0660 -0.2767 -0.1922
12662TIP3    H159477   2.391   3.730  17.074  2.0693 -0.8260 -0.4077
12662TIP3    H259478   2.439   3.616  17.161 -1.4275 -1.3070  1.0569
12663TIP3   OH259479   2.148   4.986  15.648  0.1705 -0.7400 -0.7928
12663TIP3    H159480   2.106   5.042  15.713  0.1216 -0.7669 -0.8014
12663TIP3    H259481   2.188   4.915  15.700  0.1918 -0.7229 -0.7856
12664TIP3   OH259482   6.315   4.566  12.054 -0.4408 -0.1434 -0.4327
12664TIP3    H159483   6.336   4.539  12.144  0.9548  1.2884 -0.2848
12664TIP3    H259484   6.330   4.488  12.001  1.5180 -0.2622  0.2315
12665TIP3   OH259485   2.296   5.258   1.194  0.0132  0.1700  0.2199
12665TIP3    H159486   2.258   5.344   1.214 -0.5584 -0.1789  0.6734
12665TIP3    H259487   2.242   5.224   1.123 -1.0984 -0.6840  1.4245
12666TIP3   OH259488   5.020   5.564   5.352  0.3659  0.3981 -0.4922
12666TIP3    H159489   5.111   5.535   5.362  0.0391 -0.9524 -1.2222
12666TIP3    H259490   5.024   5.636   5.289  1.0388  1.1409  0.3554
12667TIP3   OH259491   0.980   6.502  16.516  0.0022  0.5033 -0.0029
12667TIP3    H159492   0.889   6.483  16.538  0.2102 -2.4170 -1.2884
12667TIP3    H259493   0.980   6.515  16.421  1.0974 -0.9782 -0.2368
12668TIP3   OH259494   4.197   3.343   1.934 -0.6943  0.0279  0.0737
12668TIP3    H159495   4.171   3.291   1.857 -0.0665  2.1523 -1.6970
12668TIP3    H259496   4.276   3.301   1.966  0.6643  0.6469 -2.2272
12669TIP3   OH259497   2.389   5.376   0.284 -0.1907 -0.6934  0.3138
12669TIP3    H159498   2.448   5.428   0.229  0.0992 -1.0019  0.3343
12669TIP3    H259499   2.418   5.394   0.373 -1.3799  0.7076  0.4601
12670TIP3   OH259500   3.417   5.890  17.105 -0.1310 -0.7784  0.3164
12670TIP3    H159501   3.505   5.926  17.112 -0.1502 -0.6274 -0.2199
12670TIP3    H259502   3.383   5.924  17.023 -1.1307  0.1359  1.0716
12671TIP3   OH259503   1.992   0.637   0.398 -0.1903  0.8509 -0.3014
12671TIP3    H159504   1.973   0.649   0.305  1.0935  0.6035 -0.6208
12671TIP3    H259505   2.084   0.610   0.400 -0.4579 -0.0490  0.9884
12672TIP3   OH259506   5.590   1.634   3.677  0.0519 -0.3883  0.1680
12672TIP3    H159507   5.623   1.675   3.757 -2.6176  1.0967  0.6270
12672TIP3    H259508   5.667   1.628   3.621  2.2361 -2.3252  3.0680
12673TIP3   OH259509   0.068   3.757  13.192 -0.3365 -0.1792  0.1930
12673TIP3    H159510   0.089   3.759  13.099 -1.2657 -0.6322 -0.0446
12673TIP3    H259511   0.033   3.669  13.207  0.1048 -0.2281  1.0464
12674TIP3   OH259512   3.702   2.667   1.145 -0.2240  0.2958 -0.1517
12674TIP3    H159513   3.669   2.578   1.159 -0.2603  0.2119 -0.7536
12674TIP3    H259514   3.740   2.665   1.057  2.1792  0.1502  0.8215
12675TIP3   OH259515   4.166   6.649  10.624  0.3318  0.5016 -0.3422
12675TIP3    H159516   4.176   6.720  10.688  2.1764  2.5956 -2.7269
12675TIP3    H259517   4.086   6.671  10.576 -0.6353 -0.6566  0.6602
12676TIP3   OH259518   3.152   6.567  13.879 -0.7152  0.1145  0.0868
12676TIP3    H159519   3.204   6.641  13.909  0.1330 -0.2068 -0.5268
12676TIP3    H259520   3.160   6.569  13.783 -0.1501 -1.1186  0.0858
12677TIP3   OH259521   6.137   0.009   1.247 -0.9252  0.0912  0.2069
12677TIP3    H159522   6.198   0.072   1.285 -0.1571  0.0241 -0.8664
12677TIP3    H259523   6.087  -0.025   1.321  2.0972 -1.8146  1.5311
12678TIP3   OH259524   4.339   3.195   5.847 -0.1766  0.0410  0.4377
12678TIP3    H159525   4.253   3.228   5.873  0.5414  0.6315  2.2407
12678TIP3    H259526   4.330   3.174   5.754 -2.0563  0.7577  0.4179
12679TIP3   OH259527   4.537   1.461  16.738  0.3138  0.2365  0.2144
12679TIP3    H159528   4.590   1.495  16.666 -0.1837 -0.6666 -0.6133
12679TIP3    H259529   4.588   1.478  16.816  2.2026 -1.2800 -0.6158
12680TIP3   OH259530   5.990   1.018  12.765 -0.1276  0.1934  0.7112
12680TIP3    H159531   5.901   0.988  12.748  0.2306  0.1180 -1.2228
12680TIP3    H259532   6.043   0.939  12.763  0.3218  0.5070 -0.7926
12681TIP3   OH259533   3.827   2.861  13.137 -0.4930  0.0419  0.2703
12681TIP3    H159534   3.846   2.767  13.135  1.8029  0.4554 -1.2253
12681TIP3    H259535   3.763   2.874  13.067  0.7232 -0.1679 -0.9162
12682TIP3   OH259536   5.860   1.065   3.246 -0.3895  0.0738 -0.5059
12682TIP3    H159537   5.856   1.146   3.195  0.8516 -0.2513 -1.1322
12682TIP3    H259538   5.795   1.008   3.206 -0.5799  0.4096 -0.6811
12683TIP3   OH259539   2.857   3.185   2.664  0.4253  0.1684  0.2070
12683TIP3    H159540   2.787   3.161   2.725 -1.6573  0.4717 -1.9221
12683TIP3    H259541   2.928   3.124   2.684 -0.6343 -0.5275  2.1029
12684TIP3   OH259542   4.591   3.271   5.998 -0.1516  0.2219 -0.1820
12684TIP3    H159543   4.521   3.248   5.936  0.2937 -0.1008 -0.5781
12684TIP3    H259544   4.649   3.328   5.947 -0.7585  1.4926  0.5127
12685TIP3   OH259545   3.212   3.974  17.098 -0.3317  0.2304 -0.4855
12685TIP3    H159546   3.187   4.066  17.085  1.8626  0.7711 -1.3790
12685TIP3    H259547   3.307   3.977  17.112 -0.3873 -1.8134  0.7140
12686TIP3   OH259548   4.237   5.689   3.690  0.0457 -0.0872 -0.3685
12686TIP3    H159549   4.161   5.679   3.633  0.0953  2.3594 -0.9609
12686TIP3    H259550   4.230   5.778   3.725  3.1789  0.6713 -1.3032
12687TIP3   OH259551   4.173   3.750  13.495 -0.3103 -0.3809 -0.6587
12687TIP3    H159552   4.166   3.706  13.579  0.4172  0.6183 -0.0399
12687TIP3    H259553   4.116   3.701  13.436 -0.0602 -1.6899  0.1651
12688TIP3   OH259554   4.366   4.740  14.816 -0.3090  0.0197  0.5831
12688TIP3    H159555   4.462   4.742  14.813 -0.2158 -1.4105  1.7018
12688TIP3    H259556   4.339   4.824  14.778  1.3507 -0.0558 -0.8696
12689TIP3   OH259557   4.002   5.140  11.575 -0.3174 -0.4613 -0.1210
12689TIP3    H159558   4.060   5.186  11.514  2.4327 -1.0218  1.8684
12689TIP3    H259559   4.036   5.050  11.577 -0.6353 -0.5859  1.7599
12690TIP3   OH259560   3.814   6.818   2.868  0.4218  0.0852 -1.2892
12690TIP3    H159561   3.832   6.870   2.789  2.5321  0.4300 -0.6493
12690TIP3    H259562   3.731   6.853   2.901 -0.6771 -0.2762 -3.4824
12691TIP3   OH259563   4.753   1.797   0.866 -0.3766  0.1483  0.0406
12691TIP3    H159564   4.683   1.775   0.804 -2.3384  2.2189  1.3742
12691TIP3    H259565   4.768   1.890   0.853  3.0807 -0.3996 -0.9741
12692TIP3   OH259566   5.934   0.951   4.750 -0.4022 -0.3323 -0.1968
12692TIP3    H159567   5.885   0.950   4.833 -0.7151 -2.7877 -0.3477
12692TIP3    H259568   5.868   0.974   4.684 -0.8463 -1.3150 -0.1093
12693TIP3   OH259569   3.983   5.458  11.531 -0.1820 -0.2179  0.6634
12693TIP3    H159570   3.999   5.378  11.481 -1.3285 -0.2299  0.2894
12693TIP3    H259571   3.888   5.466  11.534 -0.1113  1.9443 -0.6308
12694TIP3   OH259572   2.104   5.576   2.946  0.3250 -0.1468 -0.5863
12694TIP3    H159573   2.081   5.669   2.955 -1.0989 -0.6295  1.9209
12694TIP3    H259574   2.076   5.537   3.029  1.4289 -2.7275 -1.3351
12695TIP3   OH259575   1.713   5.030   3.296  0.2788 -0.5349  0.1665
12695TIP3    H159576   1.619   5.013   3.293 -0.1265  1.0147  1.8270
12695TIP3    H259577   1.739   5.008   3.386  1.3500 -0.2936 -0.0669
12696TIP3   OH259578   2.210   2.535   2.127  0.6005 -0.3629  0.0294
12696TIP3    H159579   2.254   2.476   2.188 -0.7630 -1.1793  0.2398
12696TIP3    H259580   2.167   2.478   2.064  0.1642  0.4336 -0.4108
12697TIP3   OH259581   3.258   1.852   0.159 -0.1196 -0.3137 -0.0124
12697TIP3    H159582   3.186   1.885   0.212 -0.1080 -3.4199  2.2352
12697TIP3    H259583   3.230   1.764   0.132  1.3595 -0.1781 -2.2520
12698TIP3   OH259584   2.235   3.808  13.251 -0.0286  0.4187  0.6253
12698TIP3    H159585   2.159   3.824  13.195  0.6751  1.3420 -0.0878
12698TIP3    H259586   2.199   3.762  13.328 -0.8408 -2.1320 -1.1397
12699TIP3   OH259587   5.449   2.152  11.771 -0.2427  0.4786  0.2448
12699TIP3    H159588   5.382   2.220  11.765 -1.0382 -0.4048 -2.3326
12699TIP3    H259589   5.481   2.142  11.682  1.7914 -0.6612  1.0371
12700TIP3   OH259590   0.313   5.179   4.308  0.0121 -0.0476  0.1222
12700TIP3    H159591   0.407   5.187   4.293 -0.0740 -1.1827 -1.2816
12700TIP3    H259592   0.274   5.182   4.220 -0.7417 -5.0525  0.0025
12701TIP3   OH259593   6.464   1.188   5.896 -0.1672 -0.1551 -0.1128
12701TIP3    H159594   6.413   1.269   5.900 -0.0421 -0.0759 -0.1314
12701TIP3    H259595   6.529   1.204   5.828  0.3693  0.0200  0.4330
12702TIP3   OH259596   0.748   6.692  11.964 -0.2004  0.2280  0.3210
12702TIP3    H159597   0.662   6.721  11.993 -0.6344 -1.1476  0.5035
12702TIP3    H259598   0.809   6.733  12.025 -0.6747  1.5203 -0.0404
12703TIP3   OH259599   1.154   3.920   2.353 -0.5570 -0.1851  0.3917
12703TIP3    H159600   1.122   3.831   2.339 -0.0104 -0.6892  2.1394
12703TIP3    H259601   1.153   3.960   2.266 -1.0901 -1.7927 -0.3716
12704TIP3   OH259602   4.677   5.114  11.793  0.2510 -0.4060  0.4261
12704TIP3    H159603   4.739   5.060  11.745 -1.4779 -1.7293 -0.4227
12704TIP3    H259604   4.695   5.203  11.763  0.2589 -1.0179 -1.5452
12705TIP3   OH259605   0.851   6.797  11.714 -0.1804 -0.2506 -0.2408
12705TIP3    H159606   0.806   6.752  11.786 -0.4956  0.9694  0.3465
12705TIP3    H259607   0.886   6.726  11.660  1.5824 -1.2369  2.0099
12706TIP3   OH259608   0.291   5.265   3.216 -0.3461 -0.0335  0.1516
12706TIP3    H159609   0.257   5.196   3.274  0.5495  0.6848  1.5788
12706TIP3    H259610   0.347   5.318   3.272  1.4968  0.0392 -1.6260
12707TIP3   OH259611   3.281   1.185   6.453  0.1227  0.1685  0.1086
12707TIP3    H159612   3.265   1.279   6.443 -0.0682  0.0427 -0.7741
12707TIP3    H259613   3.195   1.148   6.471  0.0141  0.0121 -0.7133
12708TIP3   OH259614   4.647   6.589  13.233  0.4644 -0.3180 -0.8642
12708TIP3    H159615   4.598   6.507  13.229 -0.7849  0.4357 -2.9460
12708TIP3    H259616   4.735   6.563  13.259  0.1927 -2.3973 -1.8005
12709TIP3   OH259617   4.329   0.467  15.798  0.1353  0.2220 -0.0424
12709TIP3    H159618   4.400   0.482  15.736 -1.1004  1.1303 -1.2825
12709TIP3    H259619   4.284   0.551  15.804 -0.0072  0.0447  1.8220
12710TIP3   OH259620   4.590   1.318   6.606 -0.5796  0.0201 -0.2743
12710TIP3    H159621   4.537   1.358   6.674  2.9076  0.5271  2.4250
12710TIP3    H259622   4.622   1.236   6.644  0.4331 -0.3406 -1.8029
12711TIP3   OH259623   5.317   0.580   4.176 -0.1531 -0.4648 -0.5635
12711TIP3    H159624   5.348   0.489   4.177  1.1596 -0.2485 -4.3583
12711TIP3    H259625   5.231   0.575   4.136 -0.5004 -0.0865  0.1227
12712TIP3   OH259626   1.739   5.029   0.195  0.3306  0.4789 -0.5522
12712TIP3    H159627   1.768   5.015   0.105 -0.7494  1.4794 -1.0753
12712TIP3    H259628   1.685   4.952   0.215 -0.4902  0.8700 -1.2256
12713TIP3   OH259629   5.286   0.811   2.201 -0.1520  0.6413 -0.0498
12713TIP3    H159630   5.340   0.859   2.139  0.7606 -1.1091 -0.6936
12713TIP3    H259631   5.247   0.878   2.257 -0.1058  2.1961 -1.7917
12714TIP3   OH259632   1.080   3.281  10.776  0.6657  0.4966 -0.6442
12714TIP3    H159633   1.023   3.355  10.755  0.7959  0.6463 -0.4722
12714TIP3    H259634   1.075   3.224  10.699  1.9871  1.5511 -1.5478
12715TIP3   OH259635   1.673   2.096  13.757  0.3295 -0.0863  0.0258
12715TIP3    H159636   1.677   2.166  13.691 -0.3115  1.2585  1.3595
12715TIP3    H259637   1.763   2.062  13.761  0.9023  1.3536  0.0388
12716TIP3   OH259638   1.170   5.140   5.076  0.6087 -0.2076  0.1730
12716TIP3    H159639   1.188   5.065   5.133  1.4020 -0.3032 -0.2020
12716TIP3    H259640   1.151   5.212   5.137  1.6414 -0.2605  0.5684
12717TIP3   OH259641   1.410   0.799   1.326 -0.2482  0.0356 -0.3996
12717TIP3    H159642   1.320   0.808   1.295 -1.3844 -1.1434  2.2493
12717TIP3    H259643   1.434   0.708   1.307 -0.2211 -0.1096  0.2797
12718TIP3   OH259644   3.743   5.869   2.440  0.0151  0.4577 -0.1796
12718TIP3    H159645   3.785   5.927   2.503  0.8410  1.0378 -1.2396
12718TIP3    H259646   3.697   5.927   2.379  0.0336 -0.0343 -0.6812
12719TIP3   OH259647   4.922   4.597  15.234 -0.4699 -0.2601 -0.1874
12719TIP3    H159648   4.877   4.678  15.208  1.4822  1.0746  0.4177
12719TIP3    H259649   4.895   4.584  15.325 -1.4296 -0.7924 -0.5261
12720TIP3   OH259650   1.969   1.266  10.515  0.3105 -0.2499  0.2426
12720TIP3    H159651   1.959   1.175  10.486  1.3003 -0.7332  1.3587
12720TIP3    H259652   2.032   1.304  10.454 -0.8798  0.0282 -0.8720
12721TIP3   OH259653   4.122   6.318   2.048 -0.5336 -0.1423  0.0975
12721TIP3    H159654   4.212   6.347   2.034  0.7602 -4.2490 -1.5646
12721TIP3    H259655   4.069   6.382   2.000  1.6655  1.2031 -0.7043
12722TIP3   OH259656   6.815   0.228  14.542 -0.1394  0.2505 -0.2354
12722TIP3    H159657   6.742   0.177  14.578 -0.4325  0.9892  0.2464
12722TIP3    H259658   6.784   0.318  14.542  0.6022  0.5175 -0.4807
12723TIP3   OH259659   5.253   3.292  14.627 -0.0951  0.5760 -0.2503
12723TIP3    H159660   5.298   3.215  14.662  0.7973  0.3491 -1.8083
12723TIP3    H259661   5.168   3.260  14.598  0.1413  0.2455 -0.5784
12724TIP3   OH259662   0.033   4.400  15.767  0.3929 -0.3135 -0.2679
12724TIP3    H159663   0.117   4.411  15.813  0.4568 -0.1428 -0.4219
12724TIP3    H259664   0.056   4.408  15.675 -0.2649  3.3393 -0.2726
12725TIP3   OH259665   0.756   1.272   0.007 -0.3228 -0.0688  0.2032
12725TIP3    H159666   0.765   1.310   0.095 -0.6685 -0.2940  0.3369
12725TIP3    H259667   0.737   1.347  -0.049 -2.4353 -0.1905  0.6908
12726TIP3   OH259668   1.769   0.256  15.263 -0.2922 -0.5088 -0.0684
12726TIP3    H159669   1.853   0.212  15.274 -0.3305 -0.2661  1.5160
12726TIP3    H259670   1.706   0.197  15.304 -0.3966  0.7754  1.7251
12727TIP3   OH259671   2.541   2.500  15.178  0.1836 -0.2814  0.3405
12727TIP3    H159672   2.535   2.430  15.243  0.9935  0.6906  1.5192
12727TIP3    H259673   2.580   2.459  15.101 -0.1638 -1.3113  0.7040
12728TIP3   OH259674   4.264   1.427   4.129  0.2574 -0.5573 -0.3095
12728TIP3    H159675   4.261   1.508   4.078  0.4438 -1.8049 -2.3983
12728TIP3    H259676   4.172   1.406   4.146  0.0777 -1.0411 -1.7234
12729TIP3   OH259677   5.885   5.814  11.327  0.3309 -0.2886 -0.3757
12729TIP3    H159678   5.905   5.761  11.403  1.9248  0.9487  0.1118
12729TIP3    H259679   5.828   5.883  11.360  0.3801 -0.1995 -0.4755
12730TIP3   OH259680   5.246   3.935  16.402  0.3191  0.1444 -0.1077
12730TIP3    H159681   5.265   3.973  16.488  1.3109  0.6033 -0.5098
12730TIP3    H259682   5.192   3.859  16.420  3.1958 -1.7550  1.2355
12731TIP3   OH259683   6.532   4.234  13.925  0.2816  0.7987  0.1075
12731TIP3    H159684   6.467   4.288  13.879 -0.5532  0.0363  0.3712
12731TIP3    H259685   6.481   4.180  13.985  1.1060 -0.1733 -0.0310
12732TIP3   OH259686   5.327   4.064  16.948 -0.0119  0.5691  0.4855
12732TIP3    H159687   5.364   4.137  16.996  0.2923 -0.1160  1.3222
12732TIP3    H259688   5.402   4.008  16.927 -0.3574  0.0182  0.6948
12733TIP3   OH259689   0.655   0.108   5.784  0.2434  0.4709  0.8710
12733TIP3    H159690   0.745   0.087   5.810  0.4881  2.4036  1.7460
12733TIP3    H259691   0.662   0.192   5.738 -1.1644  0.8719  1.3513
12734TIP3   OH259692   3.106   0.265  14.249  0.4941  0.5913 -0.0829
12734TIP3    H159693   3.179   0.221  14.206  0.6715 -1.9043  2.4867
12734TIP3    H259694   3.125   0.258  14.343 -1.3548  3.0169  0.5886
12735TIP3   OH259695   6.127   4.763  15.710  0.4464 -0.4169 -0.0281
12735TIP3    H159696   6.041   4.740  15.746 -0.2669  0.5926 -1.0124
12735TIP3    H259697   6.166   4.679  15.686  1.3602 -1.2654  3.7979
12736TIP3   OH259698   3.800   5.678  13.917 -0.4607 -0.0109 -0.3933
12736TIP3    H159699   3.856   5.706  13.990 -0.5960 -0.2894 -0.1822
12736TIP3    H259700   3.861   5.666  13.844 -0.1891 -0.6306 -0.0758
12737TIP3   OH259701   4.743   1.434   5.114  0.7069 -0.0096 -0.4710
12737TIP3    H159702   4.751   1.396   5.027  0.8493 -0.5059 -0.2454
12737TIP3    H259703   4.769   1.363   5.174  2.7837  0.9523 -0.1240
12738TIP3   OH259704   0.887   6.061   1.758  0.2686 -0.1308  0.3934
12738TIP3    H159705   0.801   6.085   1.721  0.9460  1.4087 -0.2847
12738TIP3    H259706   0.888   5.965   1.757 -2.3680 -0.3102  2.6270
12739TIP3   OH259707   2.668   5.086   0.286 -0.3282 -0.0138  0.3006
12739TIP3    H159708   2.763   5.089   0.297  0.0087 -1.9410 -1.3491
12739TIP3    H259709   2.652   5.136   0.206 -0.7132  0.3351  0.5959
12740TIP3   OH259710   4.340   3.195  15.651  0.2345  0.1102 -0.0284
12740TIP3    H159711   4.278   3.268  15.663 -0.5458 -0.4204 -0.7497
12740TIP3    H259712   4.420   3.225  15.696 -0.5441  0.7866  0.9691
12741TIP3   OH259713   6.515   4.826  14.127  0.4358 -0.6457 -0.0402
12741TIP3    H159714   6.453   4.807  14.198  0.1287 -1.4434 -0.5103
12741TIP3    H259715   6.585   4.876  14.169 -0.5873  0.4127  0.4759
12742TIP3   OH259716   4.029   4.843   4.906 -0.5203 -0.1323 -0.1574
12742TIP3    H159717   4.022   4.757   4.948 -1.1959 -0.4884 -0.9508
12742TIP3    H259718   3.957   4.894   4.944  0.2148  0.2779  0.7178
12743TIP3   OH259719   2.184   4.649   2.224 -0.4633  0.5551 -0.3891
12743TIP3    H159720   2.115   4.657   2.289  0.5440  2.1142  0.5531
12743TIP3    H259721   2.232   4.569   2.249 -0.8313  0.4668  0.0338
12744TIP3   OH259722   3.529   3.048  12.308 -0.7587 -0.5769  0.2847
12744TIP3    H159723   3.617   3.014  12.289 -0.1821  0.0933  1.6303
12744TIP3    H259724   3.489   3.060  12.222  0.5969 -0.5875 -0.3759
12745TIP3   OH259725   6.833   3.322   1.135  0.3168 -0.1573 -0.0708
12745TIP3    H159726   6.755   3.276   1.166 -0.7984  0.8372 -1.3012
12745TIP3    H259727   6.839   3.400   1.190  1.6582 -1.2168  1.3753
12746TIP3   OH259728   3.240   2.024   3.070  0.3472  0.4891 -0.1512
12746TIP3    H159729   3.265   1.937   3.040  1.1606  0.5587  0.2925
12746TIP3    H259730   3.153   2.039   3.032 -1.3006 -1.8297  2.4069
12747TIP3   OH259731   1.772   4.175   4.890 -0.4376  0.1466  0.3839
12747TIP3    H159732   1.821   4.254   4.868 -1.9256  1.2792  0.9528
12747TIP3    H259733   1.682   4.205   4.901 -0.8075 -1.3795  2.0291
12748TIP3   OH259734   0.085   2.161   5.826  0.9519  0.2270 -0.5553
12748TIP3    H159735   0.157   2.125   5.878 -0.0548  0.3329  0.9802
12748TIP3    H259736   0.068   2.247   5.864 -0.1733  0.0788 -0.6659
12749TIP3   OH259737   3.153   4.214  16.104  0.5140 -0.2501 -0.3855
12749TIP3    H159738   3.202   4.279  16.155 -0.6235  0.6291 -0.3549
12749TIP3    H259739   3.196   4.131  16.123  1.5957  0.4003  0.1107
12750TIP3   OH259740   0.639   4.467   0.143 -0.5195  0.1933  0.2055
12750TIP3    H159741   0.685   4.534   0.193 -0.9792  0.2988  0.5001
12750TIP3    H259742   0.695   4.390   0.147  0.0921  0.6025 -0.2713
12751TIP3   OH259743   6.719   4.024  12.242 -0.4390 -0.2011  0.0344
12751TIP3    H159744   6.668   4.065  12.312  0.4876  0.9626  0.0726
12751TIP3    H259745   6.731   3.934  12.271 -0.3656  0.1699  1.2420
12752TIP3   OH259746   5.307   1.007  13.958 -0.0742  0.2826 -0.2645
12752TIP3    H159747   5.384   1.038  14.007 -0.2064  0.4613 -0.1704
12752TIP3    H259748   5.241   1.075  13.971  0.7101  1.6960 -2.8813
12753TIP3   OH259749   1.349   6.656   5.478  0.1559 -0.5656  0.7703
12753TIP3    H159750   1.279   6.648   5.542 -0.9316  1.0718 -0.1271
12753TIP3    H259751   1.396   6.736   5.503 -0.1070 -0.0667 -0.2730
12754TIP3   OH259752   0.567   6.626  14.612  0.0829 -0.5917  0.3287
12754TIP3    H159753   0.580   6.555  14.674  1.2878 -1.0357 -0.4074
12754TIP3    H259754   0.584   6.587  14.526 -0.9216  0.1687 -0.2401
12755TIP3   OH259755   0.493   1.714  16.641 -0.0960  0.0329  0.3262
12755TIP3    H159756   0.495   1.796  16.591 -0.2788 -0.8087 -1.1160
12755TIP3    H259757   0.531   1.738  16.726 -0.3309  1.6526  0.0217
12756TIP3   OH259758   1.515   4.707  11.010 -0.2432 -0.3575 -0.0135
12756TIP3    H159759   1.474   4.788  11.041  1.6447  0.1298  1.4517
12756TIP3    H259760   1.483   4.695  10.921  1.6550  3.6908 -1.4878
12757TIP3   OH259761   4.926   0.298   3.633  0.7169  0.0737 -0.2616
12757TIP3    H159762   4.895   0.245   3.706 -0.9295 -0.5142 -1.3421
12757TIP3    H259763   5.021   0.304   3.647  1.3495 -4.5439 -0.9326
12758TIP3   OH259764   1.435   1.286  16.855  0.0865 -0.1109  0.6004
12758TIP3    H159765   1.490   1.362  16.836 -0.1113 -0.0917  0.0930
12758TIP3    H259766   1.345   1.316  16.841  0.0539 -0.7155 -0.6480
12759TIP3   OH259767   6.225   2.476  13.092  0.4952  0.1776 -0.4534
12759TIP3    H159768   6.215   2.409  13.024 -1.2130 -1.0490  0.9265
12759TIP3    H259769   6.147   2.531  13.083 -0.3605 -0.6933  1.1870
12760TIP3   OH259770   6.671   6.096  13.797  0.2922 -0.5949  0.2739
12760TIP3    H159771   6.647   6.141  13.717  0.8314 -1.5721 -0.4671
12760TIP3    H259772   6.588   6.064  13.833 -0.2364  1.7447  1.3545
12761TIP3   OH259773   3.001   4.391  13.895 -0.4151 -1.0552 -0.1297
12761TIP3    H159774   3.017   4.381  13.802 -1.0659  1.5750 -0.6040
12761TIP3    H259775   3.088   4.388  13.935  0.1416  0.4264 -1.1542
12762TIP3   OH259776   5.108   4.359   5.302  0.5970  0.0679 -0.5457
12762TIP3    H159777   5.075   4.386   5.216  0.3551  0.5189 -0.3111
12762TIP3    H259778   5.093   4.434   5.359 -1.3157 -0.9798  0.4445
12763TIP3   OH259779   1.049   5.063  10.712 -0.3334 -0.5883  0.1356
12763TIP3    H159780   1.121   5.126  10.720  0.8201 -1.8884  0.3759
12763TIP3    H259781   1.091   4.978  10.726 -1.7652 -1.4504 -0.6888
12764TIP3   OH259782   1.331   1.415  15.054  0.4747 -0.0815  0.2586
12764TIP3    H159783   1.270   1.465  15.000  0.2519  0.0427  0.6157
12764TIP3    H259784   1.280   1.339  15.083  0.7143 -0.3498 -0.0270
12765TIP3   OH259785   0.171   6.532  13.516  0.3003 -0.3975  0.0457
12765TIP3    H159786   0.189   6.544  13.423 -1.6533  3.3045 -0.0693
12765TIP3    H259787   0.084   6.493  13.519  0.3620 -0.5152  0.3055
12766TIP3   OH259788   2.570   3.151  13.399 -0.1736 -0.0564 -0.4638
12766TIP3    H159789   2.490   3.099  13.395  0.4473 -1.3839  2.1306
12766TIP3    H259790   2.544   3.238  13.369 -1.9865 -1.0241 -1.8995
12767TIP3   OH259791   4.707   3.379  11.243  0.5111  0.1960  0.4389
12767TIP3    H159792   4.688   3.354  11.333  2.5404 -0.1155  0.8333
12767TIP3    H259793   4.720   3.296  11.197  2.2376  0.3682  0.5529
12768TIP3   OH259794   2.497   1.564  14.268  0.1746  0.0921  0.2422
12768TIP3    H159795   2.548   1.558  14.187 -1.0725  1.7599 -0.7449
12768TIP3    H259796   2.494   1.475  14.302  2.0780 -0.3785 -0.6653
12769TIP3   OH259797   5.054   4.865  16.793 -0.5589 -0.1652  0.3261
12769TIP3    H159798   5.102   4.787  16.764  2.0808  2.1618 -2.2000
12769TIP3    H259799   5.112   4.906  16.856 -1.6719  0.0994  1.2103
12770TIP3   OH259800   1.767   5.367   2.055  0.1931  0.0796  0.5492
12770TIP3    H159801   1.723   5.286   2.080 -2.1592  1.3660  0.8466
12770TIP3    H259802   1.735   5.433   2.116  1.3084  1.4614 -0.2661
12771TIP3   OH259803   4.276   5.480   1.961  0.0474  0.4008 -0.5259
12771TIP3    H159804   4.328   5.558   1.944 -0.7302  1.0436 -0.0194
12771TIP3    H259805   4.318   5.411   1.909  2.7421  0.3361  1.5323
12772TIP3   OH259806   4.044   5.477  13.502 -0.1342 -0.1602 -0.0411
12772TIP3    H159807   4.095   5.408  13.543  1.7471  1.2815  0.1851
12772TIP3    H259808   3.963   5.434  13.474 -0.0676 -1.9070  2.1781
12773TIP3   OH259809   3.039   6.145   5.898 -0.0120  0.2369  0.3284
12773TIP3    H159810   2.994   6.141   5.814  2.4223 -0.0989 -1.0776
12773TIP3    H259811   3.073   6.235   5.904 -1.3241  0.6964  1.6820
12774TIP3   OH259812   3.529   5.800  14.009  0.0708  0.2083 -0.3220
12774TIP3    H159813   3.608   5.746  14.007  0.0187  0.1451 -0.6983
12774TIP3    H259814   3.538   5.858  13.934 -0.6628 -0.4054 -0.9066
12775TIP3   OH259815   6.073   2.761   1.082  0.2634  0.6159  0.3580
12775TIP3    H159816   6.120   2.695   1.133 -0.0492  0.7600  0.8379
12775TIP3    H259817   6.019   2.807   1.146 -1.5222 -0.3851 -0.3707
12776TIP3   OH259818   6.774   1.649  10.746 -0.2460 -0.2088  0.3986
12776TIP3    H159819   6.860   1.688  10.726  0.4438 -0.7170  2.1335
12776TIP3    H259820   6.716   1.681  10.677  1.0635  1.1459 -0.1331
12777TIP3   OH259821   2.076   5.714   3.745  0.3367  0.4425  0.1782
12777TIP3    H159822   2.074   5.756   3.831 -0.5248  0.2459  0.2610
12777TIP3    H259823   2.153   5.657   3.749  1.9835  2.5112 -0.2087
12778TIP3   OH259824   4.853   5.934   1.277 -0.1473 -0.0209  0.2267
12778TIP3    H159825   4.865   5.870   1.347  0.2913 -0.6367 -0.3971
12778TIP3    H259826   4.894   6.014   1.310  0.5157 -0.4544  0.4585
12779TIP3   OH259827   1.363   3.683  11.366  0.2442  0.6330  0.2412
12779TIP3    H159828   1.444   3.728  11.341  0.2562 -0.2051 -1.3344
12779TIP3    H259829   1.315   3.748  11.417  2.4177  0.7705  2.2995
12780TIP3   OH259830   5.312   1.307  13.286 -0.3720  0.1276 -0.0633
12780TIP3    H159831   5.357   1.370  13.341  0.8615 -0.0273 -0.8417
12780TIP3    H259832   5.224   1.342  13.276  0.5271  2.2935 -1.2654
12781TIP3   OH259833   6.380   0.965   0.887  0.4375 -0.0177 -0.6814
12781TIP3    H159834   6.377   0.870   0.883  0.0518  0.0050 -1.0502
12781TIP3    H259835   6.327   0.988   0.963 -0.6628 -0.0422 -1.4273
12782TIP3   OH259836   3.369   4.175  15.748  0.2022 -0.3712 -0.1571
12782TIP3    H159837   3.433   4.226  15.798 -0.6153  0.2233  0.3029
12782TIP3    H259838   3.370   4.214  15.660 -0.7059  0.7106  0.3020
12783TIP3   OH259839   3.591   4.380  11.454  0.3201 -0.3564 -0.2587
12783TIP3    H159840   3.538   4.304  11.430  2.2311 -1.6603 -0.5923
12783TIP3    H259841   3.614   4.420  11.371 -1.0408  0.8983 -0.0648
12784TIP3   OH259842   5.881   5.022  14.406 -0.4137 -0.7009 -0.1883
12784TIP3    H159843   5.852   4.949  14.460 -0.1226 -0.8291 -0.2072
12784TIP3    H259844   5.802   5.050  14.360 -0.6888 -0.5255  0.3737
12785TIP3   OH259845   0.369   2.986   2.634 -0.8870 -0.5503  0.8314
12785TIP3    H159846   0.309   3.056   2.660 -0.5802 -0.2475  0.7297
12785TIP3    H259847   0.327   2.945   2.558 -1.0750 -0.4886  0.9030
12786TIP3   OH259848   6.006   1.791   1.834  0.0117 -0.1316 -0.2773
12786TIP3    H159849   6.098   1.808   1.815  0.3102 -2.1078 -0.8550
12786TIP3    H259850   5.958   1.851   1.776  0.9419  0.0451 -0.8833
12787TIP3   OH259851   6.078   3.450  15.555  0.6045  0.9844  0.1993
12787TIP3    H159852   6.097   3.356  15.557  2.3431  1.3037  1.1412
12787TIP3    H259853   6.031   3.463  15.473  1.6037 -0.4978 -0.6624
12788TIP3   OH259854   4.781   5.931   2.298 -0.5968  0.0825 -0.2390
12788TIP3    H159855   4.818   5.963   2.380  0.1530 -0.1125 -0.4951
12788TIP3    H259856   4.796   6.002   2.236  0.1007 -0.3143 -0.5414
12789TIP3   OH259857   4.141   4.661  15.487  0.2465  0.2381  0.1949
12789TIP3    H159858   4.199   4.671  15.563  0.0381  0.5553  0.3103
12789TIP3    H259859   4.112   4.570  15.492 -0.7990  0.5976  1.2417
12790TIP3   OH259860   4.543   4.592  16.374 -0.0668 -0.2473 -0.3986
12790TIP3    H159861   4.517   4.538  16.300 -1.0659  0.6839 -0.7536
12790TIP3    H259862   4.530   4.535  16.450 -0.4579 -0.7347 -0.8193
12791TIP3   OH259863   4.447   1.130  11.863  0.0508  0.1634  0.1148
12791TIP3    H159864   4.465   1.138  11.770  0.9103 -0.4915  0.2116
12791TIP3    H259865   4.498   1.199  11.904  2.0509 -1.3561  0.3391
12792TIP3   OH259866   1.419   6.186   3.763 -0.3633  0.2244 -0.3474
12792TIP3    H159867   1.357   6.236   3.816 -1.2892 -0.6346 -0.6092
12792TIP3    H259868   1.377   6.102   3.748  0.5061 -0.0749 -1.2436
12793TIP3   OH259869   1.759   3.821  15.543  0.6335  0.1641  0.0411
12793TIP3    H159870   1.839   3.786  15.584  0.6800 -2.4381 -2.0200
12793TIP3    H259871   1.788   3.900  15.498  1.2131  1.3097  2.2684
12794TIP3   OH259872   6.703   2.215   3.470 -0.4543 -0.6299  0.2998
12794TIP3    H159873   6.795   2.189   3.463  0.0556  1.1268 -0.0256
12794TIP3    H259874   6.654   2.141   3.434  0.8766 -1.2759 -0.2333
12795TIP3   OH259875   3.263   2.971  16.350  0.5256  0.0829 -0.0527
12795TIP3    H159876   3.229   3.055  16.381  2.1781  0.6834  0.2513
12795TIP3    H259877   3.189   2.911  16.359 -1.0123  1.6747 -1.1772
12796TIP3   OH259878   5.332   4.661  15.824 -0.1158  0.3215  0.1237
12796TIP3    H159879   5.382   4.580  15.817 -0.9642 -0.1690 -0.3126
12796TIP3    H259880   5.390   4.728  15.787  0.9858  0.1065  1.3742
12797TIP3   OH259881   5.928   0.029   1.679  0.1824 -0.3131  0.0461
12797TIP3    H159882   5.932  -0.038   1.748 -0.2644 -1.5384 -1.0649
12797TIP3    H259883   6.017   0.030   1.643  0.2198 -0.2215  0.1407
12798TIP3   OH259884   1.821   1.589  15.434 -0.1903 -0.0816  0.0178
12798TIP3    H159885   1.823   1.620  15.344 -0.5664 -1.8796 -0.6491
12798TIP3    H259886   1.736   1.617  15.468  0.0444  0.7908 -0.1011
12799TIP3   OH259887   0.121   0.853  15.178  0.1919  0.1142 -0.1375
12799TIP3    H159888   0.034   0.814  15.181 -0.4333  1.4775  0.2465
12799TIP3    H259889   0.112   0.928  15.118  1.2285 -0.0290 -0.4900
12800TIP3   OH259890   2.390   6.742   1.181 -0.1363  0.0540  0.5503
12800TIP3    H159891   2.440   6.808   1.230 -0.0657  0.1595  0.3379
12800TIP3    H259892   2.341   6.695   1.248 -0.4410  0.5433  0.6779
12801TIP3   OH259893   0.791   2.204   0.314  0.4145 -0.0883 -0.4636
12801TIP3    H159894   0.768   2.116   0.284 -0.3902 -0.9794  2.4169
12801TIP3    H259895   0.747   2.263   0.254 -0.0611 -1.6634 -1.7207
12802TIP3   OH259896   5.396   4.228  16.438  0.1996  0.3227  0.2845
12802TIP3    H159897   5.489   4.251  16.439  0.2417  0.1635  0.1440
12802TIP3    H259898   5.393   4.137  16.467  0.2476 -0.2081 -1.2726
12803TIP3   OH259899   6.065   4.610   0.291  0.4725 -0.0848  0.5847
12803TIP3    H159900   6.041   4.675   0.357  0.6075 -1.8239  2.4308
12803TIP3    H259901   6.160   4.607   0.294  0.5109  0.1916 -0.0958
12804TIP3   OH259902   2.174   1.680  11.724  0.0586  0.8442  0.2201
12804TIP3    H159903   2.268   1.682  11.709 -0.0380 -0.8353 -0.9982
12804TIP3    H259904   2.139   1.635  11.647 -1.7117  1.2330  0.7537
12805TIP3   OH259905   6.171   3.321  11.789 -0.1482 -0.9437 -0.2661
12805TIP3    H159906   6.106   3.391  11.786 -0.3594 -1.1301 -0.1294
12805TIP3    H259907   6.177   3.298  11.882  2.6102  1.3780  0.2732
12806TIP3   OH259908   0.764   5.876   4.180 -0.3963  0.1670  0.3337
12806TIP3    H159909   0.671   5.892   4.168 -0.2631 -0.9047 -3.5198
12806TIP3    H259910   0.769   5.787   4.215 -0.9633 -1.1683 -2.6118
12807TIP3   OH259911   6.284   1.048   5.256 -0.1922  0.1422 -0.4111
12807TIP3    H159912   6.275   1.091   5.341  1.7884  2.7132 -1.3927
12807TIP3    H259913   6.318   0.961   5.277 -3.0417 -0.6222  1.5620
12808TIP3   OH259914   3.965   4.753   3.205  0.7212  0.0408  0.1795
12808TIP3    H159915   3.966   4.734   3.111 -0.4103 -0.5292  0.2660
12808TIP3    H259916   3.876   4.733   3.233  2.0919 -4.6559  2.3186
12809TIP3   OH259917   1.255   6.669  12.487 -0.1152 -0.1800  0.1273
12809TIP3    H159918   1.320   6.650  12.419 -0.1127 -2.3512  0.6611
12809TIP3    H259919   1.276   6.609  12.558 -1.0211  1.0270  1.4638
12810TIP3   OH259920   5.058   3.512   6.750 -0.1209  0.5734 -0.0517
12810TIP3    H159921   4.968   3.498   6.778 -0.3391  0.4039 -0.8341
12810TIP3    H259922   5.063   3.606   6.731  0.5925  1.1348  2.5002
12811TIP3   OH259923   2.070   5.558  13.861 -0.4746  0.2185 -0.0853
12811TIP3    H159924   2.054   5.649  13.885 -0.7905  0.1926 -0.1978
12811TIP3    H259925   1.986   5.526  13.831 -0.5438 -0.3319  0.6664
12812TIP3   OH259926   2.766   5.192   6.571  0.3868 -0.2129 -0.6037
12812TIP3    H159927   2.806   5.247   6.637  1.5566 -0.5287 -1.0302
12812TIP3    H259928   2.674   5.185   6.598  0.5109  0.8573  0.1606
12813TIP3   OH259929   5.512   4.168  14.462 -0.0482 -0.7975  0.4932
12813TIP3    H159930   5.549   4.106  14.525  1.7293  0.7647  1.1117
12813TIP3    H259931   5.524   4.254  14.503 -1.4171  0.0491 -0.7837
12814TIP3   OH259932   3.971   4.451  12.281  0.1429  0.3425 -0.2849
12814TIP3    H159933   4.021   4.530  12.302 -0.1575  0.4942 -0.1457
12814TIP3    H259934   3.911   4.479  12.212  1.5911 -0.3079 -1.8836
12815TIP3   OH259935   6.537   1.066   1.205 -0.1375  0.4564 -0.0427
12815TIP3    H159936   6.627   1.076   1.173  0.4412 -0.4333  1.2089
12815TIP3    H259937   6.518   0.973   1.193 -0.6430  0.5130  0.3128
12816TIP3   OH259938   3.518   3.014  11.662 -0.5818 -0.0110  0.2767
12816TIP3    H159939   3.479   3.090  11.706 -1.8404  0.0892 -0.9502
12816TIP3    H259940   3.508   2.942  11.724 -1.3807  0.3453  0.5633
12817TIP3   OH259941   1.026   3.888  13.742  0.0673  0.5264  0.6536
12817TIP3    H159942   0.942   3.870  13.701  0.8963 -0.5452 -0.6814
12817TIP3    H259943   1.010   3.962  13.800 -1.5813  0.9103 -0.2414
12818TIP3   OH259944   2.536   1.863  11.841 -0.0245  0.3201  0.1699
12818TIP3    H159945   2.513   1.896  11.928 -0.5982 -0.4831  0.3391
12818TIP3    H259946   2.559   1.941  11.790 -1.8928  1.0652  0.3809
12819TIP3   OH259947   5.735   3.748   1.400  0.5444  0.5398 -0.3594
12819TIP3    H159948   5.782   3.812   1.454  0.4631 -0.8867  1.5095
12819TIP3    H259949   5.703   3.683   1.463 -0.0717 -0.9060 -2.0929
12820TIP3   OH259950   6.151   2.856   5.687  0.2012 -0.0265  0.0853
12820TIP3    H159951   6.079   2.849   5.750  1.1018 -2.9512  0.9561
12820TIP3    H259952   6.119   2.918   5.621 -3.9951 -2.5332 -0.6496
12821TIP3   OH259953   2.526   0.522   1.572  0.1367 -0.6079  0.2191
12821TIP3    H159954   2.544   0.571   1.652 -1.1871  0.1995  0.0517
12821TIP3    H259955   2.564   0.574   1.502  0.8890 -1.0837  0.2593
12822TIP3   OH259956   3.146   5.764  13.046 -0.1996 -0.2196 -0.0385
12822TIP3    H159957   3.223   5.750  12.991 -0.1259 -3.1824  0.6254
12822TIP3    H259958   3.180   5.800  13.127  0.6003 -1.7872  0.3616
12823TIP3   OH259959   4.902   4.723  11.804  0.7797  0.0275 -0.7866
12823TIP3    H159960   4.991   4.696  11.826 -0.1345 -1.4708  1.4342
12823TIP3    H259961   4.852   4.641  11.801 -0.8784  0.9482 -0.0144
12824TIP3   OH259962   4.115   1.821  16.051 -0.3360  0.2551  0.2734
12824TIP3    H159963   4.149   1.811  16.140 -0.3116  0.1219  0.2490
12824TIP3    H259964   4.045   1.886  16.059  0.1650  0.8079  0.2595
12825TIP3   OH259965   1.127   1.645  15.729  0.4151 -0.2788 -0.3379
12825TIP3    H159966   1.105   1.620  15.639  0.8568 -1.8024 -0.0511
12825TIP3    H259967   1.204   1.702  15.720 -0.7308  1.2506 -1.0232
12826TIP3   OH259968   2.441   4.558  15.140  0.2719 -0.3364  0.7961
12826TIP3    H159969   2.378   4.630  15.144  0.4286  0.1994 -2.6830
12826TIP3    H259970   2.526   4.601  15.150  0.2763 -0.2717  0.5116
12827TIP3   OH259971   6.468   5.582  15.602  0.2862 -0.3004  0.4035
12827TIP3    H159972   6.459   5.587  15.697  2.4857 -3.4068  0.9168
12827TIP3    H259973   6.383   5.548  15.572 -0.5739  1.0971  1.1240
12828TIP3   OH259974   5.519   1.440  12.975  0.2038  0.6026  0.1400
12828TIP3    H159975   5.471   1.364  13.007  0.7261  1.1058  2.2754
12828TIP3    H259976   5.486   1.453  12.886 -0.2500 -1.7930 -0.1184
12829TIP3   OH259977   1.688   6.092   6.027  0.6306 -0.6441 -0.0015
12829TIP3    H159978   1.691   6.018   6.087  1.3038 -1.4870 -1.0450
12829TIP3    H259979   1.734   6.162   6.074  1.2087 -1.3085  0.4482
12830TIP3   OH259980   1.356   6.701   0.702  0.0133 -0.7132  0.2737
12830TIP3    H159981   1.387   6.788   0.677  0.1042 -1.6313 -3.3609
12830TIP3    H259982   1.299   6.716   0.778  1.4383  2.2294  0.8755
12831TIP3   OH259983   2.431   5.440  14.297  0.7798  0.0105 -0.1079
12831TIP3    H159984   2.517   5.461  14.335  1.2357  1.2579 -1.7482
12831TIP3    H259985   2.451   5.394  14.216 -0.1732 -1.4115  0.4169
12832TIP3   OH259986   0.234   4.030   3.930  0.6666 -0.0689  0.1936
12832TIP3    H159987   0.286   3.951   3.939 -0.9052 -1.0512  1.1401
12832TIP3    H259988   0.217   4.058   4.020  3.3704  2.9341 -0.0479
12833TIP3   OH259989   4.688   1.394  15.056  0.4335 -0.0932 -0.1036
12833TIP3    H159990   4.764   1.335  15.052  0.8902  0.2723  2.0687
12833TIP3    H259991   4.643   1.370  15.137  0.0631  1.8511  0.3133
12834TIP3   OH259992   3.121   1.553   2.167 -0.0722 -0.1698  0.4645
12834TIP3    H159993   3.043   1.506   2.195 -0.3081 -0.5212 -0.7278
12834TIP3    H259994   3.178   1.486   2.130 -0.8364  0.5260 -2.2221
12835TIP3   OH259995   4.112   0.920   0.632  0.1374 -0.0988 -0.0618
12835TIP3    H159996   4.158   0.999   0.603 -2.0102  0.4995 -2.1685
12835TIP3    H259997   4.044   0.953   0.691 -0.3606 -0.3994 -0.4548
12836TIP3   OH259998   1.610   1.900  14.296 -0.6852  0.3779 -0.3517
12836TIP3    H159999   1.543   1.845  14.256 -0.3276 -0.6895  0.4438
12836TIP3    H260000   1.674   1.838  14.331 -0.0065  1.3225  0.1479
12837TIP3   OH260001   0.336   1.115   2.942 -0.5561  0.1292  0.4544
12837TIP3    H160002   0.417   1.140   2.896 -0.3310 -2.5036 -0.7553
12837TIP3    H260003   0.363   1.103   3.033  0.0678  0.6814  0.3567
12838TIP3   OH260004   0.053   4.636   1.374  0.3649  0.0527  0.1101
12838TIP3    H160005   0.144   4.608   1.383  0.6090 -0.1987 -2.5042
12838TIP3    H260006   0.001   4.557   1.386  0.5540 -0.0241  0.4297
12839TIP3   OH260007   4.003   4.310  13.634  0.1229 -0.0296 -0.4867
12839TIP3    H160008   4.020   4.238  13.574  0.2686 -0.1286 -0.3299
12839TIP3    H260009   4.061   4.380  13.604  0.2089 -0.0850 -0.4514
12840TIP3   OH260010   3.834   1.633   1.335 -0.1042  0.0550  0.0743
12840TIP3    H160011   3.870   1.706   1.285  2.1275 -0.4898  0.7824
12840TIP3    H260012   3.905   1.569   1.340 -0.9432 -0.8279  2.0769
12841TIP3   OH260013   3.392   5.170   0.381  0.0610  0.4979  0.0830
12841TIP3    H160014   3.431   5.255   0.362 -0.0661  0.4301 -0.5201
12841TIP3    H260015   3.465   5.116   0.411 -0.1018  1.2294  1.9557
12842TIP3   OH260016   6.263   3.608   1.734 -0.1175  0.5202 -0.1263
12842TIP3    H160017   6.208   3.557   1.793 -1.8497  0.0069 -2.0358
12842TIP3    H260018   6.305   3.542   1.678  2.4029  0.9152  1.1667
12843TIP3   OH260019   2.559   5.754  13.680 -0.8334 -0.0441 -0.4825
12843TIP3    H160020   2.540   5.671  13.722  0.7436 -0.1788  0.0381
12843TIP3    H260021   2.500   5.817  13.722 -0.8922 -0.6041  0.2790
12844TIP3   OH260022   0.244   3.363  15.848 -0.0868 -0.0350  0.0329
12844TIP3    H160023   0.235   3.392  15.938  0.6455  0.1148  0.0683
12844TIP3    H260024   0.155   3.340  15.820 -0.4109  0.5328  0.5811
12845TIP3   OH260025   6.536   3.715  16.674 -0.2485  0.3153 -0.4044
12845TIP3    H160026   6.607   3.733  16.612  0.8429 -2.0659  0.0437
12845TIP3    H260027   6.456   3.741  16.628  0.3738 -2.5604 -3.4112
12846TIP3   OH260028   5.828   4.743  11.918 -0.0934 -0.2865 -0.6053
12846TIP3    H160029   5.918   4.716  11.938 -0.3302 -0.2933  0.5072
12846TIP3    H260030   5.787   4.664  11.882  0.1222 -0.5099 -0.3676
12847TIP3   OH260031   4.667   2.974   3.537  0.4205  0.3723 -0.2617
12847TIP3    H160032   4.685   2.886   3.572 -0.4956  0.6356  0.9643
12847TIP3    H260033   4.652   3.028   3.615 -2.0220  0.9345 -1.0295
12848TIP3   OH260034   3.171   5.641   0.957 -0.5057 -0.3607  0.4096
12848TIP3    H160035   3.134   5.621   0.871 -2.6817  0.8856  0.9818
12848TIP3    H260036   3.181   5.555   0.999  1.7998 -1.1089 -1.4543
12849TIP3   OH260037   3.371   5.646   6.172 -0.0561 -0.5406 -0.7124
12849TIP3    H160038   3.281   5.672   6.193 -0.2707 -1.3005 -0.6531
12849TIP3    H260039   3.410   5.624   6.257  1.0169  2.1946 -0.3850
12850TIP3   OH260040   2.298   6.421  13.651 -0.4246  0.3487  0.0959
12850TIP3    H160041   2.221   6.439  13.597  0.9315  1.2251 -1.6332
12850TIP3    H260042   2.309   6.501  13.703 -1.1396 -0.1086  0.9884
12851TIP3   OH260043   2.290   6.699  15.704 -0.1146 -0.0691  0.4780
12851TIP3    H160044   2.287   6.710  15.799 -0.6705  0.0167  0.4533
12851TIP3    H260045   2.259   6.782  15.669  0.6657  0.1172  0.2059
12852TIP3   OH260046   6.537   0.464   6.378 -0.1795 -0.0236  0.3834
12852TIP3    H160047   6.546   0.371   6.355  1.5652 -0.5382  2.7565
12852TIP3    H260048   6.442   0.477   6.388 -0.4766 -1.4653 -0.2848
12853TIP3   OH260049   2.025   0.153   1.945 -0.0740 -0.5597 -0.4089
12853TIP3    H160050   2.002   0.142   1.852  2.4043  1.2389 -1.3574
12853TIP3    H260051   2.025   0.247   1.958 -1.4058 -0.8061  1.7882
12854TIP3   OH260052   0.945   3.044   5.255  0.2448 -0.1941 -0.1020
12854TIP3    H160053   0.872   3.084   5.208 -1.1155 -1.8474  0.5117
12854TIP3    H260054   0.988   2.989   5.189  0.6818  0.4406 -0.3526
12855TIP3   OH260055   5.375   4.504   1.897  0.8280 -0.0150  0.4332
12855TIP3    H160056   5.440   4.435   1.909  0.0586 -0.6036  1.4509
12855TIP3    H260057   5.317   4.495   1.972 -0.2866  0.6457 -0.3119
12856TIP3   OH260058   1.758   4.186   4.581 -0.3331 -0.5048 -0.2908
12856TIP3    H160059   1.741   4.096   4.608  1.0935 -0.0718  2.4473
12856TIP3    H260060   1.703   4.239   4.639  1.1179  0.4526  0.2676
12857TIP3   OH260061   0.181   4.149  16.126  0.3199  0.5322  0.2102
12857TIP3    H160062   0.194   4.054  16.132 -2.3181 -0.0891 -1.6969
12857TIP3    H260063   0.137   4.172  16.207 -3.2633 -0.9289 -1.0687
12858TIP3   OH260064   3.686   5.709   3.985 -0.0994  0.0735  0.1195
12858TIP3    H160065   3.761   5.698   4.042  0.2165 -1.2750 -0.5290
12858TIP3    H260066   3.659   5.620   3.962 -0.7532  0.5624 -1.1247
12859TIP3   OH260067   3.373   2.564   2.053  0.0636  0.4789  0.1916
12859TIP3    H160068   3.290   2.553   2.006  0.0995  1.1638 -0.0407
12859TIP3    H260069   3.367   2.503   2.127  1.0096 -2.5296 -2.0120
12860TIP3   OH260070   0.218   3.301  12.075 -0.3564  0.1163 -0.1956
12860TIP3    H160071   0.241   3.325  11.985 -1.6830  1.0006 -0.3393
12860TIP3    H260072   0.145   3.360  12.097 -0.1108 -0.1490  1.4293
12861TIP3   OH260073   0.375   3.338   1.975  0.5453  0.4200  0.2810
12861TIP3    H160074   0.459   3.315   1.935  1.0577  0.0979  1.4943
12861TIP3    H260075   0.391   3.421   2.019  0.1255  0.5300  0.2304
12862TIP3   OH260076   1.676   1.165   4.881 -0.1662  0.3259  0.2314
12862TIP3    H160077   1.712   1.113   4.953 -2.5232  0.7238  1.8216
12862TIP3    H260078   1.603   1.112   4.848  0.1488  0.6921 -1.1036
12863TIP3   OH260079   3.627   0.374   4.865 -0.0862 -0.2894  0.5923
12863TIP3    H160080   3.662   0.451   4.820 -0.9199 -0.5124 -0.4953
12863TIP3    H260081   3.547   0.405   4.907 -0.2757 -0.4796  0.3807
12864TIP3   OH260082   6.043   5.271  11.774 -0.9686  0.2121 -0.3006
12864TIP3    H160083   6.048   5.175  11.782 -0.5536  0.2630  0.0589
12864TIP3    H260084   6.032   5.286  11.680  0.9777 -0.1154 -0.6204
12865TIP3   OH260085   1.627   3.954   1.744 -0.3405  0.2348  0.3735
12865TIP3    H160086   1.693   4.022   1.731 -0.3630  0.2729  0.4605
12865TIP3    H260087   1.568   3.962   1.669  0.6590 -0.8337 -0.5685
12866TIP3   OH260088   2.081   3.546  12.672  0.7650  0.2757  0.3392
12866TIP3    H160089   2.162   3.595  12.683  0.6891  0.5160 -0.1455
12866TIP3    H260090   2.104   3.473  12.614  0.5284  0.6195 -0.1924
12867TIP3   OH260091   0.212   5.045  11.617 -0.1261 -0.4979  0.0416
12867TIP3    H160092   0.292   5.033  11.566 -0.1832  0.2889 -0.2454
12867TIP3    H260093   0.192   4.958  11.652 -0.3349 -1.1729 -1.6343
12868TIP3   OH260094   4.650   0.813  16.488  0.0167 -0.3951  0.4586
12868TIP3    H160095   4.607   0.730  16.505 -0.7737  0.1551  1.2012
12868TIP3    H260096   4.685   0.804  16.399 -1.2802 -1.0002 -0.0055
12869TIP3   OH260097   3.238   5.284   2.418  0.0126  0.3601 -0.0363
12869TIP3    H160098   3.326   5.319   2.401 -0.6469  1.2233 -1.9123
12869TIP3    H260099   3.201   5.342   2.484  1.3256 -0.8973  1.9391
12870TIP3   OH260100   1.372   5.870  16.225  0.4343  0.0685 -0.3909
12870TIP3    H160101   1.298   5.929  16.243  1.0445  0.6067  0.4035
12870TIP3    H260102   1.335   5.782  16.236 -0.6032  0.2444 -2.0375
12871TIP3   OH260103   2.293   1.088   4.566  0.4841 -0.4072 -0.2339
12871TIP3    H160104   2.324   1.074   4.655  0.4533 -0.1724 -0.1854
12871TIP3    H260105   2.251   1.006   4.542  0.9817 -0.6649 -0.2367
12872TIP3   OH260106   2.411   4.923   2.003 -0.1402  0.5004  0.7586
12872TIP3    H160107   2.486   4.922   1.944 -1.1909 -1.5207 -0.6521
12872TIP3    H260108   2.346   4.978   1.959 -0.8557 -0.8541  0.0904
12873TIP3   OH260109   0.420   0.054  15.254 -0.2933 -0.2259  0.4675
12873TIP3    H160110   0.370   0.113  15.310 -0.6696  1.2420 -1.3028
12873TIP3    H260111   0.488   0.109  15.216  0.0009 -1.1718 -0.4315
12874TIP3   OH260112   4.050   0.001   4.649 -0.2241 -0.2356 -0.8804
12874TIP3    H160113   4.035  -0.076   4.704 -0.1642  0.6308  0.4094
12874TIP3    H260114   4.145   0.012   4.648 -0.2584  2.1322  2.4653
12875TIP3   OH260115   2.345   6.426   0.311 -0.1754  0.1648 -0.1808
12875TIP3    H160116   2.334   6.409   0.405  0.3004  0.4472 -0.0721
12875TIP3    H260117   2.423   6.377   0.286 -0.0935  0.3822 -0.3542
12876TIP3   OH260118   2.475   4.914   0.211 -0.1275 -0.8297 -0.5556
12876TIP3    H160119   2.517   4.866   0.140  0.0288  0.9026 -1.6886
12876TIP3    H260120   2.544   4.969   0.248 -0.0552 -2.1231  1.3768
12877TIP3   OH260121   2.900   4.052   4.186  0.3375 -0.3018 -0.1045
12877TIP3    H160122   2.891   4.062   4.281 -2.5804 -0.0346 -0.3318
12877TIP3    H260123   2.823   4.003   4.159 -0.1765  1.6845 -2.6283
12878TIP3   OH260124   4.177   3.454   0.178 -0.3648 -0.2272 -0.4455
12878TIP3    H160125   4.091   3.486   0.150 -0.0406  0.8852 -0.2205
12878TIP3    H260126   4.238   3.523   0.152  0.4419 -0.9096 -0.4150
12879TIP3   OH260127   0.315   6.639   5.218  0.1476  0.0078 -0.0210
12879TIP3    H160128   0.284   6.664   5.305 -2.2164  1.7718 -1.2408
12879TIP3    H260129   0.293   6.546   5.211 -0.3340  0.0278  0.9764
12880TIP3   OH260130   3.418   3.808   3.223  0.5129  0.2579 -0.0763
12880TIP3    H160131   3.471   3.775   3.151  0.7886  0.4444  0.0383
12880TIP3    H260132   3.416   3.737   3.287  2.1741  0.8924  0.7416
12881TIP3   OH260133   0.506   5.940  11.847  0.7552 -0.9701  0.2577
12881TIP3    H160134   0.592   5.981  11.836 -0.0462  0.6418 -0.2750
12881TIP3    H260135   0.507   5.865  11.787  1.3900 -0.2836 -0.6212
12882TIP3   OH260136   1.185   1.003  15.651  0.3887  0.1203 -0.6995
12882TIP3    H160137   1.272   1.013  15.612  1.1644 -4.4587 -0.7309
12882TIP3    H260138   1.128   0.980  15.577 -0.3471  0.6930 -0.3294
12883TIP3   OH260139   4.236   5.548  15.466  0.3466  0.4700  0.0122
12883TIP3    H160140   4.153   5.562  15.422 -0.2587  1.6476  1.4465
12883TIP3    H260141   4.273   5.470  15.425 -1.1336  0.3376 -1.1119
12884TIP3   OH260142   5.412   3.809  13.316 -0.2573 -0.3437  0.1199
12884TIP3    H160143   5.493   3.806  13.368  0.6630  3.2892 -0.8178
12884TIP3    H260144   5.442   3.818  13.225 -1.7265  0.0156 -0.3599
12885TIP3   OH260145   2.755   1.346  13.043 -0.4701 -0.1693 -0.1736
12885TIP3    H160146   2.796   1.411  12.987 -0.2193 -1.4281 -1.5175
12885TIP3    H260147   2.663   1.344  13.016 -1.1699  1.5207  1.7592
12886TIP3   OH260148   2.055   2.021   4.874  0.0108 -0.0353 -0.0558
12886TIP3    H160149   2.053   1.955   4.804 -1.6188  0.9740 -1.0320
12886TIP3    H260150   2.142   2.059   4.869  0.2057 -0.5697 -0.9807
12887TIP3   OH260151   5.972   5.614  16.870 -0.2052  0.1547  0.0389
12887TIP3    H160152   5.956   5.689  16.813 -0.4847 -0.0030 -0.0908
12887TIP3    H260153   5.900   5.615  16.933  0.2286  0.4651  0.5389
12888TIP3   OH260154   5.061   4.752   6.595 -0.4979  0.1103 -0.2616
12888TIP3    H160155   5.094   4.672   6.555  1.0899 -0.2047  1.5422
12888TIP3    H260156   5.138   4.808   6.603 -0.9792  0.5820  1.2898
12889TIP3   OH260157   2.363   4.497   3.353  0.6115 -0.0199  0.1558
12889TIP3    H160158   2.304   4.498   3.428  1.2987 -1.2828  0.7461
12889TIP3    H260159   2.446   4.467   3.388  0.6204 -1.8980 -1.2984
12890TIP3   OH260160   5.486   3.042   2.402  0.2167 -0.6127  0.2581
12890TIP3    H160161   5.479   2.948   2.418  0.7783 -0.4679  1.3982
12890TIP3    H260162   5.557   3.072   2.459 -0.3798  0.6163  0.3869
12891TIP3   OH260163   5.552   2.510   3.032  0.0503  0.3631  0.3192
12891TIP3    H160164   5.598   2.534   2.951  1.6412 -0.6192  0.8952
12891TIP3    H260165   5.487   2.580   3.044 -0.1156  0.6240 -1.6969
12892TIP3   OH260166   5.111   5.392  15.228 -0.3759  0.3773 -0.1113
12892TIP3    H160167   5.134   5.397  15.321 -1.0553  1.2344  0.0126
12892TIP3    H260168   5.016   5.396  15.225 -0.4230 -0.6236 -0.7963
12893TIP3   OH260169   6.740   5.801  10.316  0.0708  0.0318 -0.0381
12893TIP3    H160170   6.814   5.798  10.256  0.1625  0.7270  0.0253
12893TIP3    H260171   6.728   5.711  10.345  1.1896 -0.0208  0.3156
12894TIP3   OH260172   1.471   3.869  10.873 -0.0777  0.1608 -0.4900
12894TIP3    H160173   1.418   3.797  10.842  0.5273  0.5191 -2.4864
12894TIP3    H260174   1.514   3.904  10.795  2.6363  0.2667  0.9063
12895TIP3   OH260175   6.107   0.745   0.900  0.3762  0.2279 -0.0880
12895TIP3    H160176   6.063   0.676   0.949  0.8241 -0.5599 -0.7716
12895TIP3    H260177   6.132   0.704   0.818  0.3526  1.3047 -0.6497
12896TIP3   OH260178   4.597   2.598   4.994 -0.1081 -1.2238  0.7635
12896TIP3    H160179   4.549   2.674   5.026 -0.5653 -1.3936  0.5080
12896TIP3    H260180   4.689   2.623   4.999 -0.1978 -1.0669  1.7165
12897TIP3   OH260181   4.406   0.196   5.192  0.3411 -0.0080 -0.3058
12897TIP3    H160182   4.325   0.216   5.240  0.1442  0.9944 -1.0305
12897TIP3    H260183   4.471   0.255   5.230  0.0171  1.3095 -1.7268
12898TIP3   OH260184   5.752   5.009   1.912  0.0035  0.6925 -0.3320
12898TIP3    H160185   5.695   4.970   1.978  1.4127  1.2008  1.2250
12898TIP3    H260186   5.827   4.951   1.906 -0.2573  0.4532 -1.7898
12899TIP3   OH260187   5.649   6.032   1.129 -0.8443 -0.6543 -0.4249
12899TIP3    H160188   5.620   5.975   1.200 -1.6071 -1.3959 -1.3161
12899TIP3    H260189   5.660   5.974   1.054 -0.0476  0.1218 -0.9236
12900TIP3   OH260190   0.548   3.486   4.122 -0.0590 -0.4857 -0.1553
12900TIP3    H160191   0.524   3.417   4.059  1.5979 -2.0321  0.8064
12900TIP3    H260192   0.575   3.559   4.067 -1.2420 -0.7910 -1.2210
12901TIP3   OH260193   5.764   3.046   1.143 -0.0464  0.2372 -0.5356
12901TIP3    H160194   5.701   3.012   1.079 -1.0546  0.1882  0.4627
12901TIP3    H260195   5.848   3.043   1.097 -0.8472  0.9335 -2.1331
12902TIP3   OH260196   5.863   0.557   3.216 -0.1302  0.5253  0.3204
12902TIP3    H160197   5.769   0.553   3.203 -0.0175  0.9552 -0.7064
12902TIP3    H260198   5.874   0.613   3.293 -0.6532  2.4625 -0.9436
12903TIP3   OH260199   1.409   4.936  11.383  0.3618  0.2681 -0.2760
12903TIP3    H160200   1.475   4.965  11.320  1.6763 -1.6276  0.1485
12903TIP3    H260201   1.346   4.888  11.330  1.2322 -0.9479 -0.2354
12904TIP3   OH260202   6.387   1.611   5.183 -0.1722 -0.4981 -0.2623
12904TIP3    H160203   6.367   1.584   5.272 -0.4271 -0.4016 -0.2882
12904TIP3    H260204   6.443   1.687   5.192  1.5580 -1.7213 -0.1838
12905TIP3   OH260205   3.114   0.809   1.322  0.0931 -0.3517  0.1095
12905TIP3    H160206   3.157   0.734   1.281 -0.8934 -0.2665 -1.1432
12905TIP3    H260207   3.180   0.846   1.381  1.3478 -0.8744 -0.9284
12906TIP3   OH260208   3.020   2.704   3.176 -0.5435 -0.1486 -0.0168
12906TIP3    H160209   2.992   2.652   3.101  0.9183 -2.4195  0.8918
12906TIP3    H260210   2.998   2.650   3.252  2.5857 -0.3585  0.9030
12907TIP3   OH260211   6.615   3.540   5.344 -0.0976 -0.2629 -0.0652
12907TIP3    H160212   6.583   3.454   5.372 -0.9247 -0.1874 -0.7434
12907TIP3    H260213   6.710   3.530   5.342 -0.2096 -1.3601 -0.7474
12908TIP3   OH260214   1.372   3.797   4.705 -0.0792  0.0580 -0.1631
12908TIP3    H160215   1.371   3.867   4.639 -1.3894 -1.4769 -1.9001
12908TIP3    H260216   1.453   3.812   4.754  0.3171  2.0261 -1.2712
12909TIP3   OH260217   2.726   3.277  14.441 -0.2325  0.7428 -0.8260
12909TIP3    H160218   2.784   3.329  14.496 -0.8615  1.1014 -0.4932
12909TIP3    H260219   2.747   3.303  14.352  0.5010  0.4643 -0.7390
12910TIP3   OH260220   3.242   6.571   1.244  0.1931  0.5358 -0.4124
12910TIP3    H160221   3.167   6.512   1.255  0.8710 -0.3078 -0.2338
12910TIP3    H260222   3.238   6.630   1.320 -0.2285  0.4376 -0.3559
12911TIP3   OH260223   5.527   0.570  15.103 -0.6656 -0.1424 -0.2047
12911TIP3    H160224   5.580   0.505  15.149 -0.5468 -0.4705 -0.7895
12911TIP3    H260225   5.438   0.553  15.131 -0.5208  0.0863  0.4023
12912TIP3   OH260226   6.042   5.124   0.578 -0.5024 -0.0979 -0.2303
12912TIP3    H160227   5.947   5.124   0.587 -0.3517  0.4246  1.8439
12912TIP3    H260228   6.074   5.073   0.652  0.8243 -1.0284 -1.3934
12913TIP3   OH260229   4.559   0.678  13.148 -0.1144 -0.1248  0.3283
12913TIP3    H160230   4.559   0.751  13.086 -2.0357  1.0091  1.5551
12913TIP3    H260231   4.624   0.702  13.213  0.4839 -0.3594 -0.1733
12914TIP3   OH260232   6.637   2.689   0.380 -0.3411  0.2416  0.2359
12914TIP3    H160233   6.597   2.710   0.296  0.6031 -0.3193 -0.3655
12914TIP3    H260234   6.711   2.750   0.387 -1.2055  1.2115  1.2991
12915TIP3   OH260235   6.449   3.969   6.126  0.2965 -0.6958 -0.0540
12915TIP3    H160236   6.362   3.978   6.164 -0.8698 -1.0057 -2.4871
12915TIP3    H260237   6.456   3.877   6.103 -0.4444 -0.0240 -3.5000
12916TIP3   OH260238   1.546   5.062   0.760  0.5107  0.0311 -0.2174
12916TIP3    H160239   1.604   5.130   0.795 -0.7414  0.7483  0.5172
12916TIP3    H260240   1.561   5.064   0.665  1.6194  0.2544 -0.0460
12917TIP3   OH260241   5.593   6.206  15.637  0.1132  0.2756 -0.3789
12917TIP3    H160242   5.574   6.143  15.707  0.1971  0.7823  0.1052
12917TIP3    H260243   5.656   6.161  15.580  1.2052  0.4118  0.6876
12918TIP3   OH260244   1.633   3.665   5.172 -0.7929  0.0607 -0.0674
12918TIP3    H160245   1.672   3.682   5.258  1.1758 -0.1167 -0.8781
12918TIP3    H260246   1.707   3.652   5.113 -1.9918  1.9835 -2.2024
12919TIP3   OH260247   5.883   2.117   1.943 -0.0219 -0.1725  0.4380
12919TIP3    H160248   5.857   2.075   1.861  1.4368 -0.1617 -0.0470
12919TIP3    H260249   5.828   2.196   1.948  1.3569  1.0107 -1.6450
12920TIP3   OH260250   2.860   3.516  15.486 -0.5134  0.0219  0.5084
12920TIP3    H160251   2.887   3.590  15.540 -2.1650 -0.4667  2.1037
12920TIP3    H260252   2.870   3.440  15.544  0.0249 -0.8723 -0.7164
12921TIP3   OH260253   4.147   2.994  11.340 -0.0638 -0.4075  0.2595
12921TIP3    H160254   4.238   2.985  11.366  0.1146  0.5980  0.0337
12921TIP3    H260255   4.121   2.906  11.313  0.8378 -0.7069  0.3287
12922TIP3   OH260256   5.620   3.044  13.859 -0.0123 -0.1759 -0.3653
12922TIP3    H160257   5.638   3.114  13.796 -0.6357  1.5418  1.2795
12922TIP3    H260258   5.707   3.014  13.886  0.4542  2.4714  1.4980
12923TIP3   OH260259   1.217   1.060   4.979 -0.0190  0.0283  0.1422
12923TIP3    H160260   1.287   1.078   4.916 -2.1385  0.7908 -2.1324
12923TIP3    H260261   1.225   0.967   4.998 -1.5973 -1.3266 -4.4424
12924TIP3   OH260262   5.397   1.910   3.179 -0.3296 -0.3536 -0.0154
12924TIP3    H160263   5.426   1.972   3.245  0.8432  1.5200 -2.1275
12924TIP3    H260264   5.302   1.904   3.191 -0.4792  1.8395  0.3454
12925TIP3   OH260265   1.860   2.304   4.743 -0.2463 -0.1913  0.3864
12925TIP3    H160266   1.789   2.259   4.789 -0.0342 -0.5636  0.3579
12925TIP3    H260267   1.925   2.235   4.727 -0.7056 -0.2752 -1.2776
12926TIP3   OH260268   5.752   6.320   0.009 -0.2185 -0.4241  0.2269
12926TIP3    H160269   5.657   6.329   0.015 -0.1003  1.1765  0.0770
12926TIP3    H260270   5.773   6.244   0.064 -1.5954 -0.9346  0.0719
12927TIP3   OH260271   2.167   4.788   1.953  0.1924  0.0871  0.0809
12927TIP3    H160272   2.255   4.825   1.943  0.8884 -0.9508  1.8107
12927TIP3    H260273   2.172   4.737   2.034 -2.0485  0.0818  0.2772
12928TIP3   OH260274   5.789   2.000   3.626  0.0845 -0.3190  0.2672
12928TIP3    H160275   5.827   2.087   3.636  0.9319 -0.7572  1.0167
12928TIP3    H260276   5.750   1.982   3.712  0.2800 -0.8448  0.2448
12929TIP3   OH260277   0.785   3.925  15.932 -0.4743 -0.4823 -0.3187
12929TIP3    H160278   0.810   4.014  15.956 -1.9238 -0.3562  0.8603
12929TIP3    H260279   0.823   3.913  15.845  1.2442  0.6325  0.2194
12930TIP3   OH260280   4.852   6.708  15.115 -0.0569 -0.3496  0.2355
12930TIP3    H160281   4.939   6.747  15.104 -0.2600  0.0022 -0.1483
12930TIP3    H260282   4.823   6.688  15.026 -1.5354  2.1198  0.0770
12931TIP3   OH260283   6.674   3.599   4.820 -0.8912  0.5930 -0.1200
12931TIP3    H160284   6.741   3.533   4.804 -0.1982  0.9998  0.9747
12931TIP3    H260285   6.723   3.682   4.824 -1.6490  1.0764 -0.7537
12932TIP3   OH260286   0.685   4.229  14.158 -0.0179  0.1328  0.4094
12932TIP3    H160287   0.625   4.300  14.179  0.0729  0.0845  0.8496
12932TIP3    H260288   0.771   4.270  14.153  0.4888 -0.3197  3.3975
12933TIP3   OH260289   4.319   0.616   1.527  0.4370 -0.8900 -0.5072
12933TIP3    H160290   4.298   0.652   1.613  0.9569 -0.0248 -0.7277
12933TIP3    H260291   4.366   0.534   1.546 -1.1829 -1.7457 -0.0026
12934TIP3   OH260292   0.002   0.718   1.297 -0.4705  0.3853 -0.2295
12934TIP3    H160293   0.019   0.811   1.286  1.4998  0.2786  1.2709
12934TIP3    H260294  -0.085   0.713   1.337 -0.1858  1.6680  0.5920
12935TIP3   OH260295   6.030   0.968  15.466 -0.0109 -0.4679 -0.3810
12935TIP3    H160296   6.005   0.905  15.534  1.7119 -1.9289 -1.0289
12935TIP3    H260297   5.976   0.945  15.391 -0.4410 -0.1872 -0.1640
12936TIP3   OH260298   2.799   2.745   4.282  0.3518  0.0818  0.0969
12936TIP3    H160299   2.796   2.784   4.195 -0.7965  0.2183  0.1812
12936TIP3    H260300   2.760   2.658   4.271 -0.1779  0.2565  0.5454
12937TIP3   OH260301   5.030   0.783   4.016  0.7444  0.5590  0.1797
12937TIP3    H160302   5.111   0.745   3.984  0.8749 -0.6531  1.8091
12937TIP3    H260303   5.002   0.843   3.947  2.5988  0.4095 -0.7477
12938TIP3   OH260304   1.853   4.041  15.395  0.8984 -0.9511 -0.0222
12938TIP3    H160305   1.925   4.093  15.431  0.8925 -1.9729  1.5765
12938TIP3    H260306   1.791   4.105  15.361  1.4135  0.0449  0.8690
12939TIP3   OH260307   1.747   6.017  11.921 -0.1195  0.0907 -0.2119
12939TIP3    H160308   1.827   6.045  11.876 -0.0780  0.5665  0.1415
12939TIP3    H260309   1.757   5.922  11.931 -0.5932 -0.1939 -2.0855
12940TIP3   OH260310   4.596   5.363   4.027 -0.5005  0.3326 -0.0838
12940TIP3    H160311   4.644   5.386   4.107  1.0747  0.6011 -1.0533
12940TIP3    H260312   4.606   5.268   4.020  1.1721  0.5338 -1.0035
12941TIP3   OH260313   1.268   5.146  11.127  0.4076  0.4112  0.3367
12941TIP3    H160314   1.350   5.194  11.141  1.1925  0.0625 -2.4665
12941TIP3    H260315   1.205   5.213  11.099  0.6838  0.2504 -0.7082
12942TIP3   OH260316   2.121   4.031  15.208 -0.6850 -0.0655  0.1708
12942TIP3    H160317   2.031   4.006  15.191 -0.4684 -0.0918 -1.0021
12942TIP3    H260318   2.172   3.953  15.183 -0.2175  0.5525 -0.8714
12943TIP3   OH260319   6.634   5.291  11.537  0.2142 -0.1271  0.0829
12943TIP3    H160320   6.619   5.384  11.521  0.4318  0.0862  1.0336
12943TIP3    H260321   6.573   5.268  11.608 -0.0407 -0.7812 -0.3341
12944TIP3   OH260322   5.259   2.585   0.761 -0.0869 -0.4498 -0.0525
12944TIP3    H160323   5.172   2.600   0.799 -0.8117 -0.6758 -1.5651
12944TIP3    H260324   5.271   2.657   0.700  1.4602  0.4217  1.2114
12945TIP3   OH260325   1.218   1.673   4.046 -0.0544 -0.1287 -0.3809
12945TIP3    H160326   1.133   1.634   4.025 -0.1533 -1.6315  2.3826
12945TIP3    H260327   1.281   1.617   4.001 -0.4025 -1.1844  0.3957
12946TIP3   OH260328   4.589   3.702   3.515  0.2651 -0.1977 -0.4256
12946TIP3    H160329   4.680   3.722   3.535  0.7417 -1.3038 -1.3619
12946TIP3    H260330   4.539   3.740   3.587  1.7414 -2.8075  2.1581
12947TIP3   OH260331   1.176   6.362  14.546  0.0825  0.0391  0.0737
12947TIP3    H160332   1.265   6.386  14.571 -0.1961  0.2183  0.9218
12947TIP3    H260333   1.139   6.443  14.512  0.8396 -0.4653 -2.1543
12948TIP3   OH260334   3.260   5.352   4.397 -0.0277 -0.5123  0.7234
12948TIP3    H160335   3.354   5.348   4.417  0.9074  0.2364 -2.7433
12948TIP3    H260336   3.246   5.444   4.372 -0.6180 -1.4016 -2.7002
12949TIP3   OH260337   2.370   5.744   5.355 -0.2153  0.6282 -0.5665
12949TIP3    H160338   2.301   5.694   5.397 -2.0280  1.0073 -2.8691
12949TIP3    H260339   2.368   5.830   5.397  1.5059 -0.4335  1.9547
12950TIP3   OH260340   5.189   6.831  13.128 -0.6690  0.0099 -0.3559
12950TIP3    H160341   5.175   6.738  13.147 -0.3680 -0.0662 -0.5043
12950TIP3    H260342   5.110   6.874  13.159 -0.4279 -0.1874  0.5602
12951TIP3   OH260343   4.553   2.309   5.587 -0.0951 -0.3987 -0.0075
12951TIP3    H160344   4.570   2.216   5.605 -0.9804 -0.4322  0.7139
12951TIP3    H260345   4.637   2.352   5.604  0.7511 -1.2404 -1.7772
12952TIP3   OH260346   2.232   0.504  13.763 -0.0182 -0.0603  0.4429
12952TIP3    H160347   2.284   0.425  13.775  0.0801 -0.3430 -1.4912
12952TIP3    H260348   2.142   0.476  13.779 -0.0135 -0.6467 -0.5120
12953TIP3   OH260349   0.818   5.897   3.200  0.0570  0.3268 -0.1610
12953TIP3    H160350   0.871   5.851   3.135 -1.2295 -1.1279 -0.2351
12953TIP3    H260351   0.760   5.954   3.148 -1.2892 -1.1722 -0.3865
12954TIP3   OH260352   0.213   1.881   4.460 -0.1495  0.4584  0.2838
12954TIP3    H160353   0.121   1.906   4.470 -0.2927  0.3092 -0.6652
12954TIP3    H260354   0.211   1.787   4.442  0.0592  0.8028 -1.6873
12955TIP3   OH260355   1.535   3.627  15.768 -0.2600 -0.4543 -0.0029
12955TIP3    H160356   1.469   3.583  15.715 -0.6962 -0.0745  0.2188
12955TIP3    H260357   1.589   3.556  15.803 -1.0099 -0.8261  0.4234
12956TIP3   OH260358   4.204   3.705   2.406  0.2869 -0.4113  0.2050
12956TIP3    H160359   4.158   3.771   2.353 -0.3196  0.1913  1.4380
12956TIP3    H260360   4.202   3.626   2.352  0.1009  0.2983 -0.8648
12957TIP3   OH260361   0.667   4.278   1.086 -0.4571 -0.2989 -0.0272
12957TIP3    H160362   0.577   4.292   1.113 -0.0566  2.1601  0.3125
12957TIP3    H260363   0.662   4.253   0.994 -1.4668  1.8122 -0.6142
12958TIP3   OH260364   6.202   0.854   1.168 -0.2996 -0.1064  0.1813
12958TIP3    H160365   6.159   0.770   1.150 -1.5851 -0.0793  2.7055
12958TIP3    H260366   6.295   0.833   1.175 -0.2188 -0.7660 -2.0291
12959TIP3   OH260367   4.640   4.530   1.228 -0.0717 -0.0161  0.3563
12959TIP3    H160368   4.559   4.539   1.179  1.1123  3.0036 -1.3045
12959TIP3    H260369   4.700   4.486   1.168  0.2569  0.1109  0.5864
12960TIP3   OH260370   1.986   6.459   2.490 -0.6022  0.2973  0.3330
12960TIP3    H160371   2.061   6.480   2.547 -1.0207  0.8490  0.6935
12960TIP3    H260372   2.024   6.408   2.418  0.0874  0.4030  0.6120
12961TIP3   OH260373   4.710   0.776  13.869  0.1298  0.1057 -0.2939
12961TIP3    H160374   4.627   0.757  13.914 -0.8423  1.2740 -1.5216
12961TIP3    H260375   4.701   0.734  13.783  0.6349  0.6100 -0.5954
12962TIP3   OH260376   1.265   5.810   1.693 -0.6208 -0.5454  0.2234
12962TIP3    H160377   1.212   5.889   1.677  1.1613  0.3523 -1.6215
12962TIP3    H260378   1.209   5.738   1.666 -1.3270  0.2827 -0.6077
12963TIP3   OH260379   0.506   6.798  10.793  0.3644  0.0760  0.3611
12963TIP3    H160380   0.571   6.760  10.734 -1.5754  0.0975 -1.9726
12963TIP3    H260381   0.465   6.722  10.835 -0.0475 -0.1410 -0.4058
12964TIP3   OH260382   5.577   1.983   0.809 -0.1923  0.4468 -0.8089
12964TIP3    H160383   5.490   1.954   0.780 -0.3797  0.4933 -0.3094
12964TIP3    H260384   5.561   2.025   0.893  0.7908 -2.9781  1.2758
12965TIP3   OH260385   4.236   0.054   3.323  0.4034  0.3286  0.0334
12965TIP3    H160386   4.271   0.011   3.401  0.9492 -0.1089 -0.4427
12965TIP3    H260387   4.253   0.147   3.338  1.2842  0.1753  0.0632
12966TIP3   OH260388   4.447   5.010  12.917  0.2363  0.0594 -0.6344
12966TIP3    H160389   4.479   5.092  12.954  0.0930 -0.5394  0.8896
12966TIP3    H260390   4.358   5.030  12.887  0.3949  0.5914 -0.7506
12967TIP3   OH260391   5.675   2.318   0.058 -0.6058 -0.4303  0.2221
12967TIP3    H160392   5.725   2.254   0.007  0.1268  0.1277  0.2311
12967TIP3    H260393   5.730   2.396   0.059 -1.4712  0.1862  0.2612
12968TIP3   OH260394   4.130   3.150   5.086  0.7025  0.6426 -0.2494
12968TIP3    H160395   4.045   3.156   5.042  0.1639 -0.7234  0.5282
12968TIP3    H260396   4.182   3.220   5.046  0.2878 -0.5115 -3.0999
12969TIP3   OH260397   4.674   3.804  11.874  0.5641  0.2412  0.1164
12969TIP3    H160398   4.644   3.817  11.964  2.3399  0.1613  0.7382
12969TIP3    H260399   4.725   3.724  11.877  1.8237  0.9891 -0.6510
12970TIP3   OH260400   0.845   0.288  16.533 -0.3526  0.1110 -0.2917
12970TIP3    H160401   0.756   0.278  16.567 -1.0140 -2.4172 -2.4398
12970TIP3    H260402   0.845   0.240  16.450  2.7448  0.9443 -0.9096
12971TIP3   OH260403   4.520   6.224   2.984  0.2647 -0.4277  0.3238
12971TIP3    H160404   4.469   6.148   3.012 -0.9073  0.3418  0.3301
12971TIP3    H260405   4.477   6.255   2.904  1.0672 -0.0927  0.0049
12972TIP3   OH260406   2.083   5.947  16.462  0.5155 -0.0149 -0.7141
12972TIP3    H160407   2.007   5.980  16.414 -0.2571 -0.5362  0.1007
12972TIP3    H260408   2.142   6.022  16.470 -0.6568  0.8635  0.0539
12973TIP3   OH260409   1.283   4.899   1.628  0.6322  0.5313 -0.9027
12973TIP3    H160410   1.333   4.849   1.692  0.9192  1.9581  0.0416
12973TIP3    H260411   1.201   4.851   1.618  1.4991 -0.9347 -1.2063
12974TIP3   OH260412   3.142   6.397  10.846  0.3546  0.0643  0.1467
12974TIP3    H160413   3.083   6.343  10.794 -0.1131  0.3855  0.3392
12974TIP3    H260414   3.161   6.345  10.924 -0.7721  0.5107  0.7419
12975TIP3   OH260415   5.574   4.842  15.764 -0.2380  0.6466 -0.5712
12975TIP3    H160416   5.615   4.803  15.687  0.9423  1.8111 -0.5645
12975TIP3    H260417   5.502   4.895  15.728  1.1307  2.2599 -1.0507
12976TIP3   OH260418   3.084   4.845  11.785  0.1628  0.0059  0.4420
12976TIP3    H160419   3.166   4.795  11.785  0.3684  0.3034  1.9105
12976TIP3    H260420   3.051   4.836  11.875 -0.8818  0.7529  0.1426
12977TIP3   OH260421   1.900   0.794   5.653  0.0936  0.3058  0.9446
12977TIP3    H160422   1.810   0.762   5.653 -0.0472  0.6463 -0.0564
12977TIP3    H260423   1.947   0.735   5.594  0.3349  0.5905  0.8444
12978TIP3   OH260424   2.771   1.791  11.958  0.5582 -0.5388  0.2449
12978TIP3    H160425   2.813   1.705  11.958  1.4578 -0.1358 -0.8145
12978TIP3    H260426   2.709   1.787  11.885  0.1075 -0.5139  0.6262
12979TIP3   OH260427   4.216   5.464  16.701  0.1703  0.9414 -0.0456
12979TIP3    H160428   4.279   5.472  16.773  1.0882 -0.8159 -0.5945
12979TIP3    H260429   4.138   5.426  16.741 -0.0030  1.6919  0.3490
12980TIP3   OH260430   4.875   6.647   2.966  0.3329  0.3626 -0.1867
12980TIP3    H160431   4.864   6.592   3.043  1.4490  1.3483  0.7311
12980TIP3    H260432   4.814   6.719   2.979  1.5063  1.2713  0.5317
12981TIP3   OH260433   1.962   4.822  16.670  0.3793  0.2989 -0.0160
12981TIP3    H160434   2.002   4.742  16.637 -1.7870 -1.3627  1.0901
12981TIP3    H260435   1.931   4.799  16.758 -0.2543  2.3682  0.3589
12982TIP3   OH260436   0.643   1.086   1.318  0.9132 -0.7450 -0.3666
12982TIP3    H160437   0.571   1.138   1.354  2.4012  0.1527  1.5114
12982TIP3    H260438   0.637   1.099   1.224  0.3612  1.7424 -0.0667
12983TIP3   OH260439   6.162   2.958  14.094 -0.4547  0.1799 -0.3117
12983TIP3    H160440   6.079   2.912  14.103 -1.5619  1.8668 -1.3852
12983TIP3    H260441   6.144   3.046  14.125  1.0426  0.4956 -0.2749
12984TIP3   OH260442   1.234   0.237  13.136 -0.0599  0.0946  0.2891
12984TIP3    H160443   1.192   0.279  13.211  0.6093  0.6283  0.3741
12984TIP3    H260444   1.181   0.160  13.119 -1.6974  1.2820 -0.2479
12985TIP3   OH260445   4.228   3.481   3.076  0.4239  0.1055  0.0195
12985TIP3    H160446   4.214   3.561   3.127  0.8329  0.6061 -0.6312
12985TIP3    H260447   4.161   3.420   3.107 -1.3501  1.4497 -1.0030
12986TIP3   OH260448   5.658   1.726   0.260 -0.2418  0.0425 -0.2499
12986TIP3    H160449   5.668   1.785   0.185  0.0021  0.1341 -0.1455
12986TIP3    H260450   5.714   1.651   0.239  0.0434  0.1950 -0.0298
12987TIP3   OH260451   4.940   2.712   5.679 -0.7014 -0.2330  0.1618
12987TIP3    H160452   5.013   2.694   5.620  0.5332 -0.5462  1.7379
12987TIP3    H260453   4.961   2.797   5.718 -0.6429 -0.7919  1.3832
12988TIP3   OH260454   2.596   5.956   5.490 -0.4857 -0.3386 -0.0343
12988TIP3    H160455   2.621   6.021   5.555  0.4035 -0.4532 -0.2416
12988TIP3    H260456   2.658   5.968   5.419 -0.0686 -1.6312  0.0694
12989TIP3   OH260457   0.988   5.303   2.577 -0.2112 -0.1204  0.2848
12989TIP3    H160458   0.989   5.208   2.591 -1.1777 -1.0189 -4.0854
12989TIP3    H260459   1.080   5.328   2.571  0.0524 -0.7972  1.3082
12990TIP3   OH260460   6.118   3.599   2.813  0.1491 -0.2393  0.2712
12990TIP3    H160461   6.192   3.544   2.841  0.0647  0.3299  1.6606
12990TIP3    H260462   6.154   3.653   2.742  0.4578 -1.4726 -0.5488
12991TIP3   OH260463   6.727   2.916  15.200  0.3072  0.4816  0.1813
12991TIP3    H160464   6.712   2.832  15.156  0.3201  0.8713 -0.5887
12991TIP3    H260465   6.787   2.963  15.141  0.0694  1.1400  0.4587
12992TIP3   OH260466   4.216   1.934   2.911  0.5580  0.2201  0.6363
12992TIP3    H160467   4.208   1.879   2.989 -2.1285  0.5269  0.6671
12992TIP3    H260468   4.249   2.018   2.944  0.7646 -0.0854  1.2190
12993TIP3   OH260469   1.673   0.893   2.280  0.2606  0.4075  0.5803
12993TIP3    H160470   1.671   0.860   2.190  1.2850  0.3605  0.5592
12993TIP3    H260471   1.630   0.978   2.275  0.4983  0.5003 -0.0100
12994TIP3   OH260472   4.499   5.598  13.095  0.3124  0.2421  0.1195
12994TIP3    H160473   4.417   5.595  13.046  0.3120  0.7307  0.0785
12994TIP3    H260474   4.519   5.507  13.116 -2.0134  0.3057  3.1370
12995TIP3   OH260475   2.631   0.912   5.048 -0.0402  0.3667  0.0946
12995TIP3    H160476   2.640   1.005   5.026  0.9084  0.0709 -0.8999
12995TIP3    H260477   2.609   0.870   4.964 -1.9570 -0.1470  0.7947
12996TIP3   OH260478   0.033   0.670  17.052  0.5447  0.1402  0.2808
12996TIP3    H160479   0.112   0.658  16.999  0.0289  1.7239 -0.9260
12996TIP3    H260480  -0.001   0.582  17.065  1.9307 -0.4788 -0.0649
12997TIP3   OH260481   0.468   5.598  16.166 -0.0686 -0.0700  0.8384
12997TIP3    H160482   0.512   5.521  16.202 -0.2913  0.0056  1.2715
12997TIP3    H260483   0.523   5.623  16.091  0.4827 -0.1359  1.2154
12998TIP3   OH260484   5.024   3.086  12.407 -0.7529 -0.1933  0.3512
12998TIP3    H160485   5.042   3.174  12.374 -3.2895  0.2569 -0.0732
12998TIP3    H260486   5.108   3.055  12.440  0.1734  2.4824  0.7635
12999TIP3   OH260487   4.239   2.970   0.857  0.0157 -0.3480 -0.3669
12999TIP3    H160488   4.306   3.011   0.911 -0.5939  0.4090 -0.1665
12999TIP3    H260489   4.277   2.887   0.830  1.2272  0.2784 -0.6499
13000TIP3   OH260490   2.446   2.348  11.750  0.0309 -0.9200  0.1511
13000TIP3    H160491   2.406   2.261  11.747  0.9145 -1.4018  1.4079
13000TIP3    H260492   2.507   2.348  11.676 -1.4812 -0.5494 -1.1565
13001TIP3   OH260493   3.965   2.285   6.282 -0.6279 -0.1938  0.1456
13001TIP3    H160494   3.962   2.344   6.357 -0.4379 -0.9872  0.7879
13001TIP3    H260495   4.057   2.285   6.255 -0.6230 -0.2088  0.1620
13002TIP3   OH260496   5.983   5.580  15.837 -0.1001 -0.0037  0.2070
13002TIP3    H160497   5.982   5.561  15.931  1.1442 -2.3049 -0.1668
13002TIP3    H260498   5.986   5.676  15.832  2.0463  0.1780  2.5962
13003TIP3   OH260499   1.192   5.108  14.454 -0.3656 -0.5043  0.1875
13003TIP3    H160500   1.251   5.101  14.529 -0.2771 -1.9726  0.0084
13003TIP3    H260501   1.191   5.201  14.432 -0.5711 -0.0114  2.1435
13004TIP3   OH260502   1.300   0.342   4.950  0.6655 -0.2064 -0.2855
13004TIP3    H160503   1.248   0.285   5.007  1.3767 -0.3141  0.2576
13004TIP3    H260504   1.279   0.313   4.861 -0.7399  0.2067 -0.1193
13005TIP3   OH260505   1.737   1.356   3.343  0.4526  0.4845  0.3831
13005TIP3    H160506   1.689   1.286   3.386  0.3033  0.2121 -0.2134
13005TIP3    H260507   1.747   1.424   3.410 -1.5190  0.9143  0.3017
13006TIP3   OH260508   2.352   5.201   2.744 -0.6952 -0.0150  0.4380
13006TIP3    H160509   2.416   5.251   2.694  1.1111  0.1258  2.7060
13006TIP3    H260510   2.357   5.113   2.708  0.2916  0.1592  0.1102
13007TIP3   OH260511   1.184   5.122   1.241  0.3553 -0.3035 -0.0266
13007TIP3    H160512   1.279   5.129   1.235  0.3401  0.4059  0.3085
13007TIP3    H260513   1.154   5.213   1.235 -0.2860 -0.5110  0.0153
13008TIP3   OH260514   3.100   0.615  13.674  0.1703 -0.4730 -0.0421
13008TIP3    H160515   3.135   0.587  13.758 -0.2603 -0.5211  0.1265
13008TIP3    H260516   3.140   0.556  13.610 -0.0070 -0.8627  0.2045
13009TIP3   OH260517   0.491   6.002  11.077 -0.0524  0.0561  0.4118
13009TIP3    H160518   0.556   5.932  11.087  1.6924  1.4440 -0.5366
13009TIP3    H260519   0.455   6.013  11.165  1.6451 -0.2054  1.1993
13010TIP3   OH260520   5.775   3.482   0.484 -0.0936 -0.3600  0.0429
13010TIP3    H160521   5.750   3.426   0.558 -0.8252 -0.7041 -0.4490
13010TIP3    H260522   5.808   3.421   0.418  1.3100  0.0181  0.3646
13011TIP3   OH260523   0.537   4.078  10.178 -0.0039 -0.0349 -0.2410
13011TIP3    H160524   0.500   3.995  10.148  0.6713 -0.9063  1.2057
13011TIP3    H260525   0.475   4.109  10.244 -0.4490  0.8242 -1.0476
13012TIP3   OH260526   5.239   2.565  16.113  0.0300  0.1744  0.4269
13012TIP3    H160527   5.162   2.555  16.168 -0.6714  2.1268 -0.1260
13012TIP3    H260528   5.309   2.590  16.173 -0.1188 -0.1291  0.7299
13013TIP3   OH260529   5.549   6.131   0.229 -0.5218 -0.6358  0.5803
13013TIP3    H160530   5.552   6.070   0.155  0.1942 -0.2181  0.2523
13013TIP3    H260531   5.495   6.087   0.295 -3.4670  0.0662 -1.1673
13014TIP3   OH260532   2.897   2.004  16.562  0.6606 -0.4693  0.2733
13014TIP3    H160533   2.804   2.018  16.545 -0.0581 -3.2370  1.3504
13014TIP3    H260534   2.933   1.976  16.478  0.7313  1.2343 -0.3082
13015TIP3   OH260535   3.962   6.775   3.609  1.0029 -0.0729 -0.0693
13015TIP3    H160536   3.920   6.829   3.541  1.2189  0.0164 -0.1322
13015TIP3    H260537   3.901   6.702   3.622  0.7861  0.0990 -0.1004
13016TIP3   OH260538   1.097   3.435   0.966  0.6127 -0.0392 -0.2885
13016TIP3    H160539   1.152   3.408   0.893  0.2163 -0.9810 -0.2519
13016TIP3    H260540   1.038   3.361   0.981 -0.2520  0.7052  0.0748
13017TIP3   OH260541   3.414   5.726  12.224 -0.4053  0.3038  0.0983
13017TIP3    H160542   3.367   5.708  12.306 -1.4567  0.2872 -0.4926
13017TIP3    H260543   3.345   5.739  12.159  0.3726 -2.2324 -1.3666
13018TIP3   OH260544   6.596   0.547  10.494  0.1740 -0.6603 -0.5451
13018TIP3    H160545   6.555   0.521  10.577 -0.3431  0.7743 -0.3198
13018TIP3    H260546   6.588   0.643  10.492  2.9204 -0.3478 -0.8208
13019TIP3   OH260547   2.612   3.282   5.006 -0.3169  0.2552  0.5307
13019TIP3    H160548   2.633   3.313   4.918 -2.0292  1.0918  0.3718
13019TIP3    H260549   2.635   3.189   5.005  1.3228  0.6248 -0.2123
13020TIP3   OH260550   6.107   6.685  15.467  0.4659  0.2890 -1.0836
13020TIP3    H160551   6.154   6.766  15.483  0.0664  0.1052  1.2855
13020TIP3    H260552   6.015   6.710  15.467  0.3307 -0.1742 -0.1231
13021TIP3   OH260553   0.374   3.112  15.689 -0.5792 -0.2458 -0.0552
13021TIP3    H160554   0.366   3.028  15.644 -0.4920  0.4928 -1.5268
13021TIP3    H260555   0.283   3.137  15.708 -0.7013 -0.0340 -0.8802
13022TIP3   OH260556   1.585   6.027   5.405 -0.4347  0.6901  0.0450
13022TIP3    H160557   1.531   6.055   5.479 -0.1740  1.2278  0.0429
13022TIP3    H260558   1.627   6.108   5.375  0.4228  0.2749  0.0905
13023TIP3   OH260559   3.077   5.636   0.222 -0.1971 -0.1545 -0.6847
13023TIP3    H160560   3.084   5.723   0.185  1.1705 -0.3648 -0.9724
13023TIP3    H260561   3.033   5.584   0.154 -0.1101  0.0775 -0.9179
13024TIP3   OH260562   4.913   6.260  14.905  0.1952 -0.0019 -0.4528
13024TIP3    H160563   4.924   6.286  14.996 -0.5038 -1.4628  0.0730
13024TIP3    H260564   4.922   6.342  14.856  1.3649  0.6836  0.8391
13025TIP3   OH260565   5.848   1.942   2.158  0.2328  0.0210 -0.3584
13025TIP3    H160566   5.875   1.996   2.083 -0.0061  2.9051  1.4909
13025TIP3    H260567   5.891   1.858   2.143  3.4270  1.7162 -1.8194
13026TIP3   OH260568   1.960   6.633  15.582  0.9016  0.1183  0.1960
13026TIP3    H160569   2.046   6.645  15.540  1.3166 -1.3880  0.5337
13026TIP3    H260570   1.977   6.569  15.651 -0.3198  0.5338  0.9003
13027TIP3   OH260571   2.266   6.406  16.685 -0.1156 -0.2487  0.2723
13027TIP3    H160572   2.228   6.489  16.714  0.6187 -0.2053  1.1445
13027TIP3    H260573   2.206   6.339  16.720 -0.4638 -0.1117 -0.0516
13028TIP3   OH260574   1.666   4.525  15.753 -0.0332  0.0487 -0.0887
13028TIP3    H160575   1.657   4.598  15.815  0.2118  0.0437 -0.0473
13028TIP3    H260576   1.636   4.449  15.801 -1.7414  0.3541 -0.6184
13029TIP3   OH260577   5.667   4.941   2.919 -0.3850  0.3290  0.0236
13029TIP3    H160578   5.723   4.863   2.929 -0.8232 -0.0057 -0.1136
13029TIP3    H260579   5.669   4.982   3.005 -1.0244 -0.4358  0.4239
13030TIP3   OH260580   0.940   3.762  15.642  0.2597 -0.5483  0.6722
13030TIP3    H160581   0.862   3.818  15.638 -0.7381 -1.8042  1.7368
13030TIP3    H260582   0.988   3.781  15.561 -2.2970 -1.3700 -1.1566
13031TIP3   OH260583   4.246   4.331  12.192  1.2397  0.3568  0.3128
13031TIP3    H160584   4.307   4.401  12.215  1.3001 -0.0810  1.5998
13031TIP3    H260585   4.165   4.354  12.238  0.7017  0.4778 -0.6718
13032TIP3   OH260586   0.760   6.343  12.453 -0.0869 -0.3865  0.3219
13032TIP3    H160587   0.684   6.285  12.445  0.1015 -0.5783 -0.0981
13032TIP3    H260588   0.757   6.375  12.544 -1.5974  0.8703 -0.1205
13033TIP3   OH260589   5.878   6.737   3.475  0.6608 -0.1445  0.2420
13033TIP3    H160590   5.860   6.755   3.567 -2.3325  0.2601 -0.3183
13033TIP3    H260591   5.848   6.647   3.461 -0.7502  0.4209 -0.6811
13034TIP3   OH260592   0.593   0.564   3.746 -0.3039 -0.4899 -0.3903
13034TIP3    H160593   0.549   0.637   3.789  0.8873 -0.5940  1.0979
13034TIP3    H260594   0.618   0.506   3.817  0.6096 -1.3245 -1.3579
13035TIP3   OH260595   4.227   2.095  11.836 -0.5252 -0.2107 -0.0516
13035TIP3    H160596   4.266   2.149  11.905 -0.0072 -0.3442 -0.2388
13035TIP3    H260597   4.137   2.128  11.828 -0.8871 -0.7906  1.3261
13036TIP3   OH260598   2.617   2.834  15.205  0.0168  0.0153 -0.4060
13036TIP3    H160599   2.581   2.842  15.116  0.8061  1.9243 -0.5999
13036TIP3    H260600   2.704   2.798  15.191 -0.0049 -0.0513 -0.3695
13037TIP3   OH260601   3.660   1.517  14.771  0.6314 -0.6066 -0.0728
13037TIP3    H160602   3.735   1.465  14.800  1.1166  0.5913  0.9230
13037TIP3    H260603   3.584   1.466  14.798  1.0801 -1.4063 -0.2848
13038TIP3   OH260604   6.203   0.377  13.292 -0.2496 -0.3113  0.0861
13038TIP3    H160605   6.173   0.305  13.347  0.2178  0.3165  1.1964
13038TIP3    H260606   6.129   0.395  13.233 -0.4113 -1.5980 -0.1372
13039TIP3   OH260607   1.148   0.193   4.355 -0.2577 -0.1969 -0.1063
13039TIP3    H160608   1.073   0.165   4.408  0.7560 -1.0710  0.9068
13039TIP3    H260609   1.215   0.218   4.418  0.0855  1.2923 -0.9939
13040TIP3   OH260610   6.195   1.648  10.393 -0.2618  0.9105 -0.4732
13040TIP3    H160611   6.101   1.628  10.398  0.1327 -1.7323 -1.7839
13040TIP3    H260612   6.202   1.709  10.320 -0.9214  0.5017 -0.8999
13041TIP3   OH260613   6.168   2.229  12.294  0.3594  0.7786  0.2497
13041TIP3    H160614   6.101   2.161  12.292  1.4729 -0.3657 -0.8128
13041TIP3    H260615   6.151   2.282  12.217  1.7611 -0.7114 -1.1789
13042TIP3   OH260616   0.836   2.645  16.186 -0.8500  0.6106  0.4346
13042TIP3    H160617   0.767   2.627  16.250 -1.7081  0.2946 -0.5628
13042TIP3    H260618   0.804   2.607  16.105 -0.4183  2.2170 -0.5247
13043TIP3   OH260619   0.232   6.086   5.788  1.1417 -0.3715  0.3100
13043TIP3    H160620   0.281   6.007   5.766 -0.3996 -2.2093  2.8920
13043TIP3    H260621   0.140   6.062   5.774  0.6631  1.1756  0.5435
13044TIP3   OH260622   6.499   2.027   4.153  0.3842  0.0539  0.5638
13044TIP3    H160623   6.447   1.981   4.086 -0.4722  1.1113  0.4843
13044TIP3    H260624   6.531   1.957   4.210  2.4471 -1.1036 -1.7760
13045TIP3   OH260625   0.020   6.093  16.917  0.0307 -0.1483 -0.9084
13045TIP3    H160626  -0.029   6.022  16.877 -0.7175  0.2133 -0.6556
13045TIP3    H260627   0.095   6.107  16.859 -0.4597 -0.3490 -1.5996
13046TIP3   OH260628   6.416   3.608   2.854  0.7161  0.1853 -0.3650
13046TIP3    H160629   6.485   3.550   2.824 -0.5246 -0.7510 -1.5013
13046TIP3    H260630   6.393   3.660   2.777  0.1348  0.4535 -0.0186
13047TIP3   OH260631   5.437   1.020  10.392 -0.4604  0.0385  0.2675
13047TIP3    H160632   5.377   0.970  10.337 -0.9685  0.9030  0.0150
13047TIP3    H260633   5.505   0.957  10.417 -0.9898 -0.7244 -0.1765
13048TIP3   OH260634   4.131   0.809  12.096  0.6119  0.2006  0.1186
13048TIP3    H160635   4.223   0.821  12.122  0.3913 -1.0918  1.6011
13048TIP3    H260636   4.082   0.864  12.157  0.2182 -1.4258  1.3142
13049TIP3   OH260637   0.839   3.491   0.609 -0.0738 -0.2849 -0.0605
13049TIP3    H160638   0.857   3.431   0.537  0.2095 -0.9073  0.5189
13049TIP3    H260639   0.916   3.547   0.614  0.2652 -0.7654  0.2625
13050TIP3   OH260640   4.618   5.138  10.599 -0.3314  0.8814 -0.0055
13050TIP3    H160641   4.605   5.159  10.507 -1.9825  1.3380  0.3018
13050TIP3    H260642   4.664   5.054  10.599 -2.6114 -0.4547 -1.2673
13051TIP3   OH260643   6.607   6.780   4.888  0.4002 -0.2043 -0.2566
13051TIP3    H160644   6.636   6.766   4.978  0.2357 -0.3686 -0.2280
13051TIP3    H260645   6.685   6.767   4.835  0.8296  1.2632 -0.0382
13052TIP3   OH260646   5.179   1.299   3.402 -0.0085  0.0249  0.1560
13052TIP3    H160647   5.144   1.342   3.480 -1.3293 -1.0441  0.1925
13052TIP3    H260648   5.238   1.363   3.363  1.7253  0.1363  2.7197
13053TIP3   OH260649   1.652   4.766  12.861  0.1247  0.1234 -0.1273
13053TIP3    H160650   1.725   4.718  12.901  0.5981 -0.6983 -1.8819
13053TIP3    H260651   1.666   4.857  12.886 -0.6579 -0.4848  3.1018
13054TIP3   OH260652   5.865   6.072   4.025 -0.1557 -0.2521  0.2953
13054TIP3    H160653   5.922   6.090   3.950 -0.9803  0.1290 -0.2395
13054TIP3    H260654   5.917   6.099   4.101  0.0243  0.9693 -0.2467
13055TIP3   OH260655   2.815   6.745   0.341  0.2415  0.1670 -0.8117
13055TIP3    H160656   2.869   6.686   0.393  1.4580  1.4920 -0.5267
13055TIP3    H260657   2.728   6.741   0.383  0.9195  0.3986  0.6835
13056TIP3   OH260658   6.631   6.090  14.841 -0.0168  0.2932 -0.3661
13056TIP3    H160659   6.541   6.066  14.864  0.2573 -0.9495 -0.5016
13056TIP3    H260660   6.622   6.174  14.796 -1.2089 -0.1652 -1.0521
13057TIP3   OH260661   0.610   4.304  16.466 -0.3502 -0.3766 -0.1602
13057TIP3    H160662   0.533   4.338  16.420 -0.3675 -0.2726 -0.0562
13057TIP3    H260663   0.623   4.366  16.538  1.6338  1.4207 -1.8997
13058TIP3   OH260664   2.297   3.696  14.065 -0.0633  0.0495 -0.3137
13058TIP3    H160665   2.319   3.723  14.154  0.8532  0.5303 -0.6682
13058TIP3    H260666   2.382   3.691  14.020 -0.5785  0.7897 -1.4188
13059TIP3   OH260667   3.648   6.017   0.010 -0.3385 -0.0041 -0.0519
13059TIP3    H160668   3.687   6.020   0.097 -1.5680  1.7751  0.4964
13059TIP3    H260669   3.698   6.081  -0.041  0.9928 -1.7095 -0.9804
13060TIP3   OH260670   6.072   4.150  10.824 -0.2758  0.0042  0.3101
13060TIP3    H160671   6.071   4.240  10.855  2.1288 -0.2854  1.4644
13060TIP3    H260672   6.040   4.155  10.734 -0.6290  1.9218  0.5007
13061TIP3   OH260673   6.620   4.500  11.699  0.1740 -0.4299  0.2483
13061TIP3    H160674   6.649   4.486  11.609  0.7684 -0.3707  0.4258
13061TIP3    H260675   6.587   4.415  11.727  0.1249 -0.4845  0.0297
13062TIP3   OH260676   5.875   1.912  16.019 -0.2011  0.4442  0.1839
13062TIP3    H160677   5.897   1.821  16.040  1.4692  0.1258 -2.5369
13062TIP3    H260678   5.843   1.948  16.102 -0.4732 -2.4520  1.4634
13063TIP3   OH260679   1.715   2.825   6.226  0.3630  0.0801 -0.5017
13063TIP3    H160680   1.674   2.751   6.181  1.0021  0.0051 -0.9707
13063TIP3    H260681   1.792   2.846   6.173 -0.5986  2.0455 -1.2368
13064TIP3   OH260682   1.220   2.271  16.108 -0.0796 -0.0153 -0.1999
13064TIP3    H160683   1.257   2.322  16.037 -0.8735  0.6595 -0.1483
13064TIP3    H260684   1.172   2.335  16.161 -0.3914 -0.6795  0.3398
13065TIP3   OH260685   0.819   1.740   3.041  0.0140  0.5891  0.1480
13065TIP3    H160686   0.758   1.686   3.091  0.2016  0.8796  0.6855
13065TIP3    H260687   0.902   1.732   3.087  0.9834 -1.5428 -1.7358
13066TIP3   OH260688   2.439   4.920   3.789 -0.4710 -0.5830 -0.5656
13066TIP3    H160689   2.412   4.995   3.841  0.3995  0.4953 -1.6076
13066TIP3    H260690   2.492   4.957   3.719  0.0120 -2.1790 -1.0973
13067TIP3   OH260691   3.923   4.574   2.634 -0.2128  0.3168  0.0036
13067TIP3    H160692   3.966   4.502   2.588 -2.8133 -1.1524 -0.2867
13067TIP3    H260693   3.878   4.532   2.707  0.5604  2.0980  1.5909
13068TIP3   OH260694   1.733   0.151   5.057  0.2359 -0.3634  0.3174
13068TIP3    H160695   1.696   0.070   5.021  1.9555 -0.8777 -0.3740
13068TIP3    H260696   1.656   0.201   5.085 -0.9371 -1.7181 -0.3163
13069TIP3   OH260697   3.526   5.508   1.393  0.0700  0.3933  0.1365
13069TIP3    H160698   3.619   5.527   1.381  0.1909 -1.3464 -2.3474
13069TIP3    H260699   3.523   5.414   1.410 -1.2768  0.2339 -0.8792
13070TIP3   OH260700   4.982   4.284   5.862 -0.8920  0.7637  0.2010
13070TIP3    H160701   4.942   4.199   5.841 -0.8511  0.7695  0.0958
13070TIP3    H260702   4.993   4.283   5.957  0.1228  0.1979  0.0898
13071TIP3   OH260703   2.587   1.792   4.383 -0.9161  0.2346  0.3220
13071TIP3    H160704   2.514   1.854   4.376  1.4972  3.3802  0.5521
13071TIP3    H260705   2.622   1.786   4.293  0.7369  1.8541  0.7810
13072TIP3   OH260706   1.751   4.795  14.003 -0.1314  0.8111  0.3092
13072TIP3    H160707   1.740   4.751  13.919  1.1138  0.6768  0.1903
13072TIP3    H260708   1.757   4.724  14.067  0.1885  0.8608  0.3377
13073TIP3   OH260709   0.162   1.654  16.585 -0.3001  0.3216  0.7230
13073TIP3    H160710   0.237   1.608  16.547 -1.3296 -0.4721 -0.4199
13073TIP3    H260711   0.114   1.587  16.633 -1.2694  0.4042 -0.1025
13074TIP3   OH260712   5.869   1.617  15.713 -0.1576 -0.5007  1.0627
13074TIP3    H160713   5.929   1.668  15.659 -0.8234 -0.2092  0.5836
13074TIP3    H260714   5.904   1.528  15.712 -0.4894 -0.6255 -0.3272
13075TIP3   OH260715   3.111   5.885   1.990 -0.4800  0.4799 -0.3868
13075TIP3    H160716   3.078   5.970   2.020 -0.3289  0.9588 -1.5275
13075TIP3    H260717   3.189   5.870   2.043 -1.6140  0.0764  1.2323
13076TIP3   OH260718   1.820   2.078  13.115 -0.3947 -0.9066  0.0643
13076TIP3    H160719   1.838   2.018  13.187 -0.7760  0.3191  1.2113
13076TIP3    H260720   1.890   2.144  13.121 -0.2997 -0.9199 -0.8232
13077TIP3   OH260721   0.372   0.610  12.592 -0.0241  0.9919  0.1037
13077TIP3    H160722   0.299   0.551  12.610  0.3801  0.4473 -0.0203
13077TIP3    H260723   0.423   0.611  12.672  1.1830 -0.5845 -0.6108
13078TIP3   OH260724   2.729   2.190   4.774  0.3190  0.2740  0.2936
13078TIP3    H160725   2.655   2.239   4.736 -0.3323 -1.9716 -1.6066
13078TIP3    H260726   2.688   2.126   4.833  1.0175  0.8808  1.4762
13079TIP3   OH260727   5.973   2.254   0.710  0.5396  0.3741  0.0388
13079TIP3    H160728   6.057   2.266   0.754 -0.4842 -2.9181  3.4326
13079TIP3    H260729   5.976   2.164   0.678 -2.6653 -1.0731  3.1865
13080TIP3   OH260730   1.844   6.173  14.542 -0.3722 -0.1108  0.0056
13080TIP3    H160731   1.830   6.105  14.607  0.4487 -0.1638  0.1367
13080TIP3    H260732   1.763   6.174  14.491 -1.0666 -0.0054  1.0720
13081TIP3   OH260733   4.646   2.451   3.834  0.1012  0.0360  0.2055
13081TIP3    H160734   4.700   2.443   3.913 -0.3093 -0.5730  0.4322
13081TIP3    H260735   4.617   2.362   3.816 -0.7589  0.3396  0.0435
13082TIP3   OH260736   6.611   2.525   0.610 -0.0545 -0.4168  0.3613
13082TIP3    H160737   6.626   2.563   0.524  2.0665 -2.7152 -0.4005
13082TIP3    H260738   6.698   2.508   0.645 -0.8427  0.7292  3.1719
13083TIP3   OH260739   3.292   3.023   1.322  0.0596 -0.0245  0.1674
13083TIP3    H160740   3.327   3.109   1.301  0.2448 -0.5481 -1.8461
13083TIP3    H260741   3.250   3.034   1.408  0.2108  2.0097  0.0169
13084TIP3   OH260742   3.165   4.028  15.225 -0.2848 -0.4187  0.1977
13084TIP3    H160743   3.241   4.049  15.279 -0.1461 -2.1956  0.7387
13084TIP3    H260744   3.099   4.093  15.250  0.1239 -0.5772  1.7475
13085TIP3   OH260745   6.597   6.018  14.296 -0.0062 -1.2051 -0.4113
13085TIP3    H160746   6.527   5.970  14.253 -1.5113  0.0855  0.4909
13085TIP3    H260747   6.617   6.091  14.236 -0.6259 -0.6178  0.0817
13086TIP3   OH260748   5.361   4.577   1.281  0.0935  0.2464 -0.0901
13086TIP3    H160749   5.271   4.551   1.265  0.3372  0.2546 -1.6112
13086TIP3    H260750   5.354   4.648   1.345 -0.9316 -0.0733  0.1734
13087TIP3   OH260751   0.944   5.083  15.159  0.5806 -0.2578 -0.9897
13087TIP3    H160752   1.002   5.032  15.215 -2.3153 -0.8138  1.8123
13087TIP3    H260753   0.964   5.174  15.180  0.5811 -0.4416 -0.1470
13088TIP3   OH260754   6.474   5.199   1.191  0.2324 -0.5403  0.8334
13088TIP3    H160755   6.509   5.109   1.192 -0.0752 -0.6622  0.5635
13088TIP3    H260756   6.540   5.250   1.238  0.5369 -0.8607  0.7602
13089TIP3   OH260757   3.208   6.255  13.572 -0.1937 -0.8613 -0.1618
13089TIP3    H160758   3.288   6.304  13.553 -1.0128 -0.2868 -2.3999
13089TIP3    H260759   3.235   6.164  13.574  0.3298 -0.8349 -2.6036
13090TIP3   OH260760   5.317   2.699  12.537 -0.1398  0.4491 -0.2297
13090TIP3    H160761   5.330   2.695  12.442  0.7087 -0.0668 -0.0979
13090TIP3    H260762   5.267   2.620  12.557  0.1132  0.3014 -0.1805
13091TIP3   OH260763   0.662   4.928   0.936 -0.3067 -0.1166 -0.5382
13091TIP3    H160764   0.644   4.965   0.850  0.5962 -0.8435 -1.0541
13091TIP3    H260765   0.757   4.924   0.942 -0.3634 -1.1757 -0.0072
13092TIP3   OH260766   5.057   1.894   2.050  0.5269 -0.1338  0.5653
13092TIP3    H160767   5.076   1.811   2.093 -2.5675 -1.5143 -0.5010
13092TIP3    H260768   5.023   1.950   2.120  1.1855 -0.2602  0.9957
13093TIP3   OH260769   4.519   2.246   3.311  0.2523  0.0451 -0.2292
13093TIP3    H160770   4.449   2.216   3.252  1.3140 -2.1647 -0.4649
13093TIP3    H260771   4.576   2.300   3.256 -1.0987  1.7106 -0.0817
13094TIP3   OH260772   2.891   1.398  10.905  0.1012  0.2629  0.3677
13094TIP3    H160773   2.875   1.341  10.829  1.1128  1.6303 -0.9288
13094TIP3    H260774   2.976   1.369  10.938  0.4679  0.7816 -0.0990
13095TIP3   OH260775   1.519   1.777  15.352 -0.3489 -0.0457  0.0586
13095TIP3    H160776   1.538   1.759  15.259  0.8462  0.3038  0.2162
13095TIP3    H260777   1.430   1.812  15.352 -2.0507 -3.8243 -0.4991
13096TIP3   OH260778   0.224   3.551  11.450  0.3038  0.5477 -0.7444
13096TIP3    H160779   0.267   3.466  11.462  0.6475  0.5762 -1.6428
13096TIP3    H260780   0.295   3.615  11.451 -0.1453  1.1155  2.1450
13097TIP3   OH260781   5.382   4.079   2.305 -0.1001  0.3939 -0.9054
13097TIP3    H160782   5.369   3.985   2.314  0.2238  0.4719  0.6563
13097TIP3    H260783   5.294   4.115   2.297 -0.1722 -0.2255 -4.4824
13098TIP3   OH260784   3.436   3.730  15.738 -0.0335  0.2471 -0.1560
13098TIP3    H160785   3.424   3.776  15.821 -0.4868  0.9147 -0.5815
13098TIP3    H260786   3.486   3.791  15.684 -1.0965  0.4837 -0.9087
13099TIP3   OH260787   0.704   5.873   5.008  0.0492  0.2735  0.1343
13099TIP3    H160788   0.656   5.794   5.033 -0.0290  0.3753  0.3034
13099TIP3    H260789   0.678   5.939   5.072  0.9292  0.1436  0.6507
13100TIP3   OH260790   4.282   3.484  11.429 -0.1812 -0.3726  0.3272
13100TIP3    H160791   4.235   3.544  11.371  2.8789  2.3360  0.3886
13100TIP3    H260792   4.239   3.496  11.514 -0.4853  0.6975  0.0416
13101TIP3   OH260793   3.445   6.765   1.219  0.0041  0.4309 -0.2507
13101TIP3    H160794   3.384   6.692   1.212  0.7789 -0.2249 -0.3749
13101TIP3    H260795   3.436   6.813   1.137  1.4055 -1.0931 -1.3799
13102TIP3   OH260796   2.517   6.181   2.239 -0.4809  0.0015  0.5992
13102TIP3    H160797   2.524   6.127   2.318  2.2934  0.0729  0.4972
13102TIP3    H260798   2.600   6.169   2.193 -1.3910  1.1771 -1.5554
13103TIP3   OH260799   6.847   3.053  16.408  0.2647  0.0648 -0.2735
13103TIP3    H160800   6.765   3.100  16.390  1.5327  2.9581  1.0637
13103TIP3    H260801   6.824   2.992  16.479 -1.2034 -0.8717 -1.4706
13104TIP3   OH260802   3.196   5.447   5.655 -0.3703  0.6166  0.9481
13104TIP3    H160803   3.214   5.504   5.580  0.4558  0.8418  1.3174
13104TIP3    H260804   3.162   5.367   5.615  0.9876  0.3628  0.2484
13105TIP3   OH260805   0.641   6.839  13.081 -0.4469  0.0508  0.0615
13105TIP3    H160806   0.563   6.818  13.133  1.0939  0.2071  2.5843
13105TIP3    H260807   0.709   6.856  13.145  1.4466  0.9649 -2.0463
13106TIP3   OH260808   4.711   2.386   3.178 -0.1242  0.4942  0.4307
13106TIP3    H160809   4.724   2.354   3.088 -0.4280  0.8178  0.2695
13106TIP3    H260810   4.718   2.481   3.171 -3.7948  0.9156  0.0493
13107TIP3   OH260811   6.112   0.985   1.372  0.0069 -0.2472  0.3676
13107TIP3    H160812   6.091   1.072   1.340 -0.3896 -1.0287 -1.6973
13107TIP3    H260813   6.150   0.940   1.296  2.8949 -1.0070  2.1396
13108TIP3   OH260814   3.381   5.476   1.766  0.1632  0.2863  0.1206
13108TIP3    H160815   3.331   5.516   1.838  0.0887 -0.5733  0.5545
13108TIP3    H260816   3.447   5.422   1.810  0.7606  0.5311 -0.4556
13109TIP3   OH260817   2.178   2.137   2.064 -0.6088  0.2554  0.1793
13109TIP3    H160818   2.254   2.106   2.114 -1.3183 -1.0612  0.4902
13109TIP3    H260819   2.112   2.069   2.076 -0.7993 -0.1527 -2.6389
13110TIP3   OH260820   0.476   4.017   6.192  0.3692  0.5115  0.1344
13110TIP3    H160821   0.396   3.985   6.232 -0.9314  1.8084 -1.3050
13110TIP3    H260822   0.535   4.034   6.265 -1.1636  0.8369  1.3421
13111TIP3   OH260823   4.654   2.303   1.704 -0.1237  0.0170  0.4318
13111TIP3    H160824   4.588   2.372   1.709 -0.0207  0.1286  0.2720
13111TIP3    H260825   4.642   2.253   1.785 -1.5049 -0.9632 -0.3361
13112TIP3   OH260826   2.537   0.459   2.663 -0.6206 -0.2397 -0.0025
13112TIP3    H160827   2.579   0.483   2.746 -0.8321  0.8762 -0.1923
13112TIP3    H260828   2.606   0.417   2.612 -0.3250 -0.3889  0.5145
13113TIP3   OH260829   5.974   3.310  13.954 -0.1301  0.1880 -0.1652
13113TIP3    H160830   6.034   3.266  13.892  2.0964  0.7974  1.4321
13113TIP3    H260831   6.009   3.288  14.040 -1.2042  2.0387  0.7848
13114TIP3   OH260832   6.443   1.542  14.360 -0.6163  0.1134 -0.2853
13114TIP3    H160833   6.498   1.616  14.386 -0.8059  0.9751 -2.1820
13114TIP3    H260834   6.501   1.488  14.305 -1.8997  1.6959 -3.3951
13115TIP3   OH260835   3.663   2.011   2.914 -0.0938 -0.4516 -0.1024
13115TIP3    H160836   3.696   2.023   3.003 -2.1899  0.2246  0.6396
13115TIP3    H260837   3.725   2.060   2.859  0.1568  0.7834  1.2011
13116TIP3   OH260838   0.359   5.958  13.581  0.1096  0.1627 -0.4120
13116TIP3    H160839   0.428   5.921  13.636 -0.0662 -0.0004 -0.2975
13116TIP3    H260840   0.282   5.962  13.639 -0.3478 -0.9052 -0.8998
13117TIP3   OH260841   3.444   0.673  13.466 -0.1015  0.2682 -0.7381
13117TIP3    H160842   3.360   0.628  13.454 -0.5150  0.5621  0.7888
13117TIP3    H260843   3.510   0.605  13.452 -0.7009 -0.6532  0.6570
13118TIP3   OH260844   5.186   6.341   5.849  0.1575  0.8324 -0.2545
13118TIP3    H160845   5.184   6.265   5.791  0.0436  1.6981 -1.4172
13118TIP3    H260846   5.245   6.403   5.805 -1.5923  2.3557 -0.5489
13119TIP3   OH260847   3.671   6.239  11.653  0.2534 -0.1872 -0.0531
13119TIP3    H160848   3.651   6.321  11.608  2.2604  0.6710  0.4852
13119TIP3    H260849   3.621   6.243  11.734 -0.9548 -0.2891 -0.7779
13120TIP3   OH260850   6.160   4.596   5.760 -0.4131  0.6436 -0.2788
13120TIP3    H160851   6.135   4.517   5.808  0.9731  0.2338 -0.1864
13120TIP3    H260852   6.155   4.666   5.825  2.7346 -0.1090  0.9225
13121TIP3   OH260853   1.308   6.131  15.147 -0.2249 -0.0869 -0.1435
13121TIP3    H160854   1.270   6.047  15.173 -1.0020 -0.5202 -2.4287
13121TIP3    H260855   1.350   6.164  15.227 -0.3421 -2.3848  0.9644
13122TIP3   OH260856   1.932   4.646   4.514 -0.4132 -0.3973  0.0861
13122TIP3    H160857   1.913   4.698   4.593 -1.9623 -2.2652  1.0189
13122TIP3    H260858   2.028   4.645   4.510 -0.2707  2.8231 -0.2475
13123TIP3   OH260859   2.463   1.415  11.830  0.5950 -0.2315 -0.1656
13123TIP3    H160860   2.529   1.347  11.824  0.5325 -0.3745  0.6957
13123TIP3    H260861   2.381   1.372  11.806  0.8841  0.0999 -1.8830
13124TIP3   OH260862   2.889   2.679  11.220 -0.1751  0.1124 -0.4926
13124TIP3    H160863   2.815   2.731  11.190  0.1036  0.6681 -0.2228
13124TIP3    H260864   2.947   2.673  11.145  0.5619  1.5706 -0.0739
13125TIP3   OH260865   3.987   3.652   0.216 -0.3680 -0.0901  0.2508
13125TIP3    H160866   4.070   3.700   0.212 -1.3041  1.6062 -3.7693
13125TIP3    H260867   3.973   3.636   0.309  2.8765  2.3973  1.3574
13126TIP3   OH260868   4.608   2.645   1.308  0.3825 -0.1602  0.5870
13126TIP3    H160869   4.629   2.563   1.263 -0.8008 -0.9540  1.4053
13126TIP3    H260870   4.558   2.696   1.244  1.1313 -0.0687  0.0706
13127TIP3   OH260871   1.845   2.462  13.175  0.0770  0.5750 -0.2056
13127TIP3    H160872   1.821   2.372  13.194  1.6992  0.4109  1.3220
13127TIP3    H260873   1.795   2.514  13.238 -0.0184  0.6445 -0.3388
13128TIP3   OH260874   6.325   1.293   0.338 -0.9265  0.0660  0.4440
13128TIP3    H160875   6.268   1.217   0.347 -1.7305  0.3131 -1.8937
13128TIP3    H260876   6.398   1.275   0.397 -2.0898 -1.5308  1.4901
13129TIP3   OH260877   3.061   1.713   0.904 -0.0518  0.1705  0.3082
13129TIP3    H160878   3.139   1.744   0.858 -0.0348 -0.9314 -0.4402
13129TIP3    H260879   2.988   1.741   0.848 -0.0970 -0.1983  0.1833
13130TIP3   OH260880   1.606   4.135  14.999 -0.4458  0.0387  0.0424
13130TIP3    H160881   1.540   4.193  14.960  0.4636  1.5415  0.6420
13130TIP3    H260882   1.570   4.047  14.988 -2.7657  0.8174  0.7265
13131TIP3   OH260883   0.194   1.355   2.927  0.0817  0.3965 -0.4928
13131TIP3    H160884   0.100   1.352   2.909  0.2185  1.4368 -1.4856
13131TIP3    H260885   0.217   1.264   2.945 -1.2573  0.2347  0.5990
13132TIP3   OH260886   3.911   1.221  13.234 -0.3068  0.2381 -0.0110
13132TIP3    H160887   3.825   1.187  13.208 -0.6223  0.3969  0.7946
13132TIP3    H260888   3.895   1.314  13.252  0.2929  0.5512 -1.0160
13133TIP3   OH260889   4.236   3.823  15.325 -0.1872 -0.4773 -0.2442
13133TIP3    H160890   4.287   3.742  15.316 -0.7047 -0.8905  0.4433
13133TIP3    H260891   4.166   3.815  15.260 -0.5455 -0.8272  0.1792
13134TIP3   OH260892   5.490   2.931  15.741 -0.4878  0.4968  0.1521
13134TIP3    H160893   5.487   3.025  15.723  1.0536  0.2719 -1.5065
13134TIP3    H260894   5.562   2.920  15.802 -1.2042  0.4480  1.0190
13135TIP3   OH260895   4.393   4.563  12.111 -0.2616 -0.2410 -0.1513
13135TIP3    H160896   4.463   4.601  12.058 -0.1866 -0.2943 -0.0906
13135TIP3    H260897   4.433   4.547  12.197 -1.0457  2.1850  0.7374
13136TIP3   OH260898   0.641   5.116   2.510 -0.5601 -0.3117  0.1679
13136TIP3    H160899   0.705   5.142   2.443 -0.9499 -0.4215 -0.2496
13136TIP3    H260900   0.662   5.025   2.529  0.7767  0.2520  1.5958
13137TIP3   OH260901   5.788   5.817   3.460  0.3655  0.0785 -0.2324
13137TIP3    H160902   5.725   5.747   3.439 -2.1328  1.8923  0.7420
13137TIP3    H260903   5.856   5.773   3.510 -0.9007 -1.7506  0.0065
13138TIP3   OH260904   6.675   2.473  15.279  0.1796  0.1957 -0.6370
13138TIP3    H160905   6.679   2.545  15.217  0.1278  0.8004  0.0402
13138TIP3    H260906   6.600   2.421  15.252  1.5489 -0.9133 -2.5034
13139TIP3   OH260907   6.268   1.025  12.704 -0.3058  0.1177 -0.2587
13139TIP3    H160908   6.237   0.993  12.789 -1.2979  1.3259 -0.1235
13139TIP3    H260909   6.210   0.984  12.640 -3.0012  3.0285  0.0490
13140TIP3   OH260910   1.612   3.057   5.548 -0.0505 -0.8417  0.4936
13140TIP3    H160911   1.637   3.148   5.534 -2.5231 -0.0273  0.8479
13140TIP3    H260912   1.689   3.017   5.589  0.8471  1.2683  1.0144
13141TIP3   OH260913   6.538   3.091   2.451 -0.2344  0.7106  0.5460
13141TIP3    H160914   6.631   3.073   2.435 -0.6239  0.0575 -1.1960
13141TIP3    H260915   6.517   3.038   2.528  0.6656  0.2940  0.5212
13142TIP3   OH260916   3.401   3.433   2.880 -0.0210 -1.0462 -0.0766
13142TIP3    H160917   3.330   3.421   2.817 -0.9951  2.3839  0.1743
13142TIP3    H260918   3.379   3.375   2.953 -2.1475 -0.7095 -0.3802
13143TIP3   OH260919   5.138   1.688  13.967  0.8221  0.5884  0.1208
13143TIP3    H160920   5.070   1.641  13.919  0.0206  0.2152  1.5654
13143TIP3    H260921   5.095   1.716  14.048  1.1923  3.9317 -0.6761
13144TIP3   OH260922   5.279   1.927  13.329 -0.3019 -0.0387  0.4318
13144TIP3    H160923   5.333   1.908  13.253  0.0640  0.2391  0.6185
13144TIP3    H260924   5.342   1.942  13.400 -0.4939  2.6647  0.1353
13145TIP3   OH260925   6.736   4.859  14.940  0.2846 -0.7154 -0.0437
13145TIP3    H160926   6.680   4.787  14.968 -0.3765 -0.3213 -0.3435
13145TIP3    H260927   6.755   4.907  15.020 -1.5283  0.3596 -0.2095
13146TIP3   OH260928   4.066   2.671   3.623  0.0576 -0.4553 -0.0013
13146TIP3    H160929   4.138   2.730   3.603 -1.1125  1.4545  1.1346
13146TIP3    H260930   4.096   2.622   3.700 -0.3150  1.3367  1.3568
13147TIP3   OH260931   0.224   6.634  16.841 -0.1631  0.1919 -0.1951
13147TIP3    H160932   0.143   6.664  16.801 -0.0643  0.7957  0.0583
13147TIP3    H260933   0.250   6.704  16.900 -0.0907 -0.5147  0.6383
13148TIP3   OH260934   3.208   0.731  11.398  0.2980  0.4440 -0.7157
13148TIP3    H160935   3.135   0.792  11.397  0.4484  0.6272 -0.7125
13148TIP3    H260936   3.219   0.705  11.307  0.4613  0.7006 -0.7716
13149TIP3   OH260937   3.364   4.026   4.511 -0.2187 -0.4183 -0.0760
13149TIP3    H160938   3.306   4.035   4.586 -1.8738 -1.6612 -1.1299
13149TIP3    H260939   3.373   3.931   4.499 -0.3905 -0.2594 -1.7155
13150TIP3   OH260940   5.483   3.575   1.348 -0.3176 -0.1993  0.2076
13150TIP3    H160941   5.467   3.649   1.290 -0.2455 -0.5385 -0.2455
13150TIP3    H260942   5.578   3.576   1.363 -0.2171 -0.6428 -0.3934
13151TIP3   OH260943   0.546   4.484  14.179 -0.4198  0.4088  0.1131
13151TIP3    H160944   0.451   4.474  14.168 -0.2781 -0.2721 -0.5603
13151TIP3    H260945   0.556   4.520  14.267 -1.2381 -0.8899  0.7669
13152TIP3   OH260946   4.630   6.173  14.442 -0.0221 -0.0181 -0.1408
13152TIP3    H160947   4.658   6.199  14.530 -1.1898  2.7849 -0.4989
13152TIP3    H260948   4.538   6.147  14.453 -0.2476  0.5862 -0.5599
13153TIP3   OH260949   1.581   1.209  11.014 -0.1391  0.4687  0.3043
13153TIP3    H160950   1.505   1.163  11.049  0.2127  0.3037  0.8590
13153TIP3    H260951   1.578   1.296  11.052  0.2283  0.2979  0.7384
13154TIP3   OH260952   4.322   5.649  13.454 -0.3844  0.0412 -0.8276
13154TIP3    H160953   4.362   5.708  13.390  1.5997 -1.3705 -0.9744
13154TIP3    H260954   4.291   5.575  13.402 -0.0496 -0.4541 -0.3393
13155TIP3   OH260955   6.365   0.313   2.715  0.2483 -0.7298  0.0770
13155TIP3    H160956   6.426   0.377   2.678 -0.6375  0.6777  0.9824
13155TIP3    H260957   6.315   0.362   2.780 -1.3976 -2.0127 -0.1681
13156TIP3   OH260958   0.325   6.021   4.668  0.4082 -0.1460  0.0262
13156TIP3    H160959   0.369   6.104   4.649  0.3164  0.0970  0.8542
13156TIP3    H260960   0.390   5.954   4.645  0.8214  0.1780  0.2335
13157TIP3   OH260961   5.734   5.404   0.579  0.3460 -0.0308  0.2603
13157TIP3    H160962   5.713   5.316   0.612 -0.3389  0.6095  1.6392
13157TIP3    H260963   5.817   5.393   0.533 -0.6243 -1.7501 -1.2135
13158TIP3   OH260964   6.467   2.051   0.039  0.0483 -0.0606  0.2958
13158TIP3    H160965   6.433   2.110  -0.029 -0.7463 -0.0142  0.7182
13158TIP3    H260966   6.552   2.024   0.006  0.5025  1.4413  0.1472
13159TIP3   OH260967   2.428   4.443   0.179 -0.9735  0.9153  0.1227
13159TIP3    H160968   2.410   4.362   0.131  1.0462  0.5629 -0.1323
13159TIP3    H260969   2.349   4.458   0.232 -2.6659  0.5078 -2.1358
13160TIP3   OH260970   4.453   1.847  15.519  0.4781  0.3639  0.1877
13160TIP3    H160971   4.376   1.887  15.477  0.2807  0.9708  1.0827
13160TIP3    H260972   4.483   1.914  15.581  1.4441 -0.0618  0.1927
13161TIP3   OH260973   5.194   1.579   5.618  0.1616 -0.4433 -0.6407
13161TIP3    H160974   5.202   1.669   5.588 -0.5928 -0.3997 -0.7347
13161TIP3    H260975   5.123   1.581   5.682 -0.5124 -1.1265 -1.3355
13162TIP3   OH260976   1.190   6.442  16.032  0.7644 -0.3225 -0.0372
13162TIP3    H160977   1.149   6.500  15.967 -0.5472  0.6531  1.5733
13162TIP3    H260978   1.280   6.473  16.038  2.2684 -3.0141 -4.2501
13163TIP3   OH260979   4.558   5.307   3.334 -0.6749 -0.0622  0.3820
13163TIP3    H160980   4.635   5.333   3.282 -0.2451 -0.9212  0.5828
13163TIP3    H260981   4.593   5.288   3.421 -1.0287 -0.9807  0.3314
13164TIP3   OH260982   5.244   2.984   5.021  0.1107  0.3166  0.3582
13164TIP3    H160983   5.165   2.932   5.004 -0.0568  0.7294 -0.1846
13164TIP3    H260984   5.287   2.940   5.094 -2.2637  1.8368  2.9010
13165TIP3   OH260985   6.184   5.058  13.691  0.2446 -0.6426 -0.2992
13165TIP3    H160986   6.119   5.043  13.760  1.1582 -1.3737  0.4238
13165TIP3    H260987   6.144   5.125  13.635 -0.5537 -0.0861  0.8883
13166TIP3   OH260988   0.130   1.619   4.395  0.3364  0.0405  0.0542
13166TIP3    H160989   0.172   1.533   4.405  0.0991 -0.1290 -0.3758
13166TIP3    H260990   0.042   1.598   4.363 -0.0682  0.3906  0.9167
13167TIP3   OH260991   2.421   2.466   5.370 -1.0749  1.0433  0.0927
13167TIP3    H160992   2.514   2.491   5.374 -0.3822 -1.2306 -0.2684
13167TIP3    H260993   2.393   2.463   5.462 -0.7207  1.4463  0.2206
13168TIP3   OH260994   2.792   5.963  11.949 -0.3749  0.1302  0.3884
13168TIP3    H160995   2.843   5.953  12.030  1.3749  1.0319 -0.5320
13168TIP3    H260996   2.707   5.924  11.969 -0.3431  1.1814  2.9644
13169TIP3   OH260997   5.489   4.271  11.778 -0.2693  0.1078  0.2384
13169TIP3    H160998   5.573   4.232  11.803 -0.3692 -0.9362 -0.9689
13169TIP3    H260999   5.489   4.268  11.683 -1.5467  0.3853  0.2204
13170TIP3   OH261000   4.270   6.633   1.396 -0.4613  0.0942 -0.3239
13170TIP3    H161001   4.323   6.554   1.388 -0.5835 -0.0680  0.4103
13170TIP3    H261002   4.180   6.601   1.404 -0.3880  0.2314  1.3145
13171TIP3   OH261003   0.233   2.299  11.703  0.5372  0.0217 -0.0581
13171TIP3    H161004   0.200   2.297  11.793 -0.4922  4.3232 -0.1188
13171TIP3    H261005   0.155   2.313  11.649  1.1754 -2.1525 -1.7000
13172TIP3   OH261006   3.747   5.208   0.306 -0.0210  0.0148 -0.0147
13172TIP3    H161007   3.705   5.165   0.380 -0.0483  0.1611  0.0569
13172TIP3    H261008   3.694   5.286   0.291  0.9157  0.8577  0.8705
13173TIP3   OH261009   1.692   1.707   0.658 -0.3187  0.0870 -0.2027
13173TIP3    H161010   1.768   1.661   0.694 -1.5979 -1.9348  0.1126
13173TIP3    H261011   1.671   1.773   0.723  1.0136  0.5333 -0.1876
13174TIP3   OH261012   2.421   2.461  13.048  0.4445 -0.8694  0.2398
13174TIP3    H161013   2.509   2.495  13.028 -1.2896  2.6558 -2.6805
13174TIP3    H261014   2.393   2.511  13.124 -0.2392  0.7275 -1.0024
13175TIP3   OH261015   2.705   3.973  16.426 -0.4253  0.0303  0.4768
13175TIP3    H161016   2.684   4.067  16.422 -1.4360 -0.2336 -1.1759
13175TIP3    H261017   2.621   3.931  16.446 -0.4739 -0.6571 -1.0316
13176TIP3   OH261018   1.982   0.409  13.815  0.0716 -0.0566 -0.0769
13176TIP3    H161019   1.914   0.473  13.794 -0.7390 -0.4966  1.1227
13176TIP3    H261020   1.936   0.338  13.859  0.8962 -1.6819 -1.6958
13177TIP3   OH261021   6.232   5.355  13.561 -0.2581 -0.8061  0.8295
13177TIP3    H161022   6.322   5.353  13.528 -0.4830  1.2908  0.0025
13177TIP3    H261023   6.180   5.318  13.491 -0.3062  0.2798  0.2736
13178TIP3   OH261024   2.341   5.795   3.042  0.5832 -0.1882 -0.6963
13178TIP3    H161025   2.394   5.742   2.983  0.0823 -1.4261 -0.0746
13178TIP3    H261026   2.259   5.746   3.051  0.9958 -0.5818  1.7749
13179TIP3   OH261027   4.556   3.712  14.248  0.1628 -0.3691 -0.5053
13179TIP3    H161028   4.510   3.752  14.322  1.8237  0.6677 -0.0004
13179TIP3    H261029   4.638   3.680  14.285  0.2510 -1.4546 -1.5654
13180TIP3   OH261030   2.607   2.937   1.673 -0.3361  0.1988 -0.0714
13180TIP3    H161031   2.653   3.005   1.723  3.9155 -1.3322 -1.4623
13180TIP3    H261032   2.628   2.956   1.581 -2.1837 -0.9426 -0.7988
13181TIP3   OH261033   3.960   1.525  15.359 -0.3467 -0.0123  0.0318
13181TIP3    H161034   3.976   1.481  15.443 -0.2897  0.8183  0.4631
13181TIP3    H261035   3.867   1.511  15.342 -0.4251  0.0660  0.3811
13182TIP3   OH261036   5.908   1.468  13.131 -0.2658  0.0843 -0.0673
13182TIP3    H161037   5.958   1.482  13.050 -0.1713  2.2268  0.3088
13182TIP3    H261038   5.972   1.479  13.201 -0.1100 -2.7885  0.3860
13183TIP3   OH261039   6.828   6.697   2.556  0.2132  0.4412 -0.7885
13183TIP3    H161040   6.909   6.646   2.560 -0.7638 -1.1229 -0.3625
13183TIP3    H261041   6.800   6.691   2.465  1.7373  2.9564 -1.5305
13184TIP3   OH261042   2.154   3.838   2.549  0.3275 -0.1454  0.3913
13184TIP3    H161043   2.130   3.876   2.464  0.3787  3.2458  1.7025
13184TIP3    H261044   2.175   3.747   2.530 -2.0136 -0.2067 -2.8026
13185TIP3   OH261045   0.884   5.076  14.194  0.4556  0.2672 -0.0101
13185TIP3    H161046   0.797   5.049  14.224 -0.2637 -0.1704 -2.2917
13185TIP3    H261047   0.914   5.138  14.261 -0.8578 -0.8478  1.7111
13186TIP3   OH261048   4.572   3.640  12.595  0.2517 -0.2165 -0.5981
13186TIP3    H161049   4.579   3.606  12.684  1.3650 -0.7962 -0.8827
13186TIP3    H261050   4.643   3.703  12.588  1.6526 -1.8239 -1.7489
13187TIP3   OH261051   0.383   2.552   0.704 -0.0225  0.1285  0.2592
13187TIP3    H161052   0.331   2.582   0.630 -1.0298 -1.8079  0.1160
13187TIP3    H261053   0.462   2.515   0.665  1.3554  2.6194  0.4505
13188TIP3   OH261054   5.979   0.152   5.774  0.6061  0.5501  1.0585
13188TIP3    H161055   5.963   0.073   5.826  1.4792 -0.9251 -0.7716
13188TIP3    H261056   6.061   0.133   5.728 -1.1331  0.7732 -2.4549
13189TIP3   OH261057   4.780   3.920  14.098 -0.6627  0.2958  0.2817
13189TIP3    H161058   4.740   4.001  14.129 -0.1122  0.6180  0.1661
13189TIP3    H261059   4.746   3.909  14.009 -1.3032  0.0083  0.5542
13190TIP3   OH261060   3.738   2.458  16.900 -0.5130  0.5453 -0.8108
13190TIP3    H161061   3.785   2.535  16.931  0.0689  0.5465 -1.6512
13190TIP3    H261062   3.687   2.489  16.825 -0.6189  0.2132 -0.8776
13191TIP3   OH261063   1.832   5.067  12.000  0.3500 -1.0231  0.4803
13191TIP3    H161064   1.793   5.052  11.914  0.1397 -1.0780  0.5833
13191TIP3    H261065   1.925   5.078  11.983  0.1835 -0.0481  0.1357
13192TIP3   OH261066   3.466   3.960  16.859 -0.5323  0.0131 -0.0671
13192TIP3    H161067   3.472   3.904  16.936 -0.3735 -1.5079 -1.1344
13192TIP3    H261068   3.501   3.906  16.787 -1.2060  1.1631 -1.3084
13193TIP3   OH261069   3.547   1.494  11.425  0.1978 -0.3392  0.0131
13193TIP3    H161070   3.509   1.429  11.366  0.3876 -0.6588  0.2433
13193TIP3    H261071   3.540   1.455  11.512  0.3732 -0.0784  0.1472
13194TIP3   OH261072   0.903   1.202  14.751  0.3258 -0.5771  0.2210
13194TIP3    H161073   0.958   1.238  14.820 -0.8478  1.5906  0.1096
13194TIP3    H261074   0.837   1.151  14.797  0.2774 -0.1563  0.6224
13195TIP3   OH261075   5.513   4.203   0.025  0.3222 -0.0830  0.5026
13195TIP3    H161076   5.541   4.277  -0.028  0.2830  0.2345  0.9136
13195TIP3    H261077   5.590   4.146   0.030 -0.1818 -0.9896 -1.3317
13196TIP3   OH261078   0.346   0.400   4.866  0.2404  0.1851  0.1332
13196TIP3    H161079   0.379   0.382   4.954  0.0465  0.6084  0.2970
13196TIP3    H261080   0.289   0.326   4.845 -0.8249  0.7506  0.9305
13197TIP3   OH261081   3.907   1.820   3.291 -0.3288  0.2950  0.0673
13197TIP3    H161082   3.866   1.851   3.372 -0.0308  1.0892 -0.0805
13197TIP3    H261083   3.857   1.862   3.222  0.1766  0.5660 -0.1350
13198TIP3   OH261084   1.286   5.569  13.896 -0.5328 -0.1540 -0.4061
13198TIP3    H161085   1.223   5.522  13.951 -1.5404 -0.1663 -1.5329
13198TIP3    H261086   1.369   5.562  13.944 -0.6430 -2.9978 -0.4668
13199TIP3   OH261087   4.971   4.923  12.897 -0.4543 -0.0382 -0.0952
13199TIP3    H161088   5.023   4.890  12.970 -1.7655 -2.0316  0.0144
13199TIP3    H261089   5.000   5.014  12.887  2.4547 -0.7914  0.4193
13200TIP3   OH261090   2.185   2.278   5.902  0.3772  0.1130  0.0335
13200TIP3    H161091   2.185   2.266   5.997 -0.2196  0.0960  0.0290
13200TIP3    H261092   2.245   2.209   5.870 -0.5981 -0.8765  0.2785
13201TIP3   OH261093   2.687   3.936  10.129 -0.0151  0.1961  0.1601
13201TIP3    H161094   2.772   3.894  10.138  0.0970  0.8870  4.0219
13201TIP3    H261095   2.624   3.864  10.129  0.4294 -0.2100  1.2503
13202TIP3   OH261096   2.947   0.589   1.342  0.2445 -0.7351  0.0626
13202TIP3    H161097   2.945   0.495   1.364 -0.3249 -0.6070  0.6069
13202TIP3    H261098   3.019   0.598   1.280 -0.6731 -1.8043 -1.2143
13203TIP3   OH261099   3.153   5.165   4.214  0.0033 -0.4489  0.2933
13203TIP3    H161100   3.238   5.148   4.174  1.0814 -1.8555  2.9571
13203TIP3    H261101   3.169   5.238   4.274 -1.2996  0.8554 -0.8560
13204TIP3   OH261102   1.166   5.698   4.530 -0.1540 -0.3973 -0.2402
13204TIP3    H161103   1.143   5.649   4.609  0.1095 -0.3954 -0.1611
13204TIP3    H261104   1.087   5.750   4.510 -0.1973 -0.3462  0.0588
13205TIP3   OH261105   6.408   6.457  14.978  0.4118  0.6000  0.0011
13205TIP3    H161106   6.495   6.422  14.992  0.3039  0.0017 -0.7056
13205TIP3    H261107   6.369   6.462  15.065  0.3928 -1.1919  0.1369
13206TIP3   OH261108   4.674   6.823   0.425  0.1788 -0.4574 -0.0303
13206TIP3    H161109   4.672   6.889   0.355  0.4162 -1.6586 -1.2007
13206TIP3    H261110   4.613   6.856   0.490 -0.3197  0.5299 -0.9558
13207TIP3   OH261111   1.732   1.397   2.076 -0.1739 -0.3153 -0.4460
13207TIP3    H161112   1.791   1.344   2.130 -1.7640 -0.9974  0.7068
13207TIP3    H261113   1.789   1.461   2.035  1.2893 -0.5226  1.1275
13208TIP3   OH261114   2.565   4.290  13.938 -0.6845  0.3097  0.0436
13208TIP3    H161115   2.610   4.255  13.861  0.5729 -0.2895  1.0266
13208TIP3    H261116   2.630   4.344  13.982 -1.4785  0.8748  0.5593
13209TIP3   OH261117   3.917   0.347   0.024 -0.1065 -0.6924 -0.1204
13209TIP3    H161118   3.971   0.385  -0.046 -2.1823 -0.4019 -1.6634
13209TIP3    H261119   3.853   0.293  -0.022 -3.6591  2.0527  1.1433
13210TIP3   OH261120   2.704   2.353   0.012 -0.4909 -0.0401  0.5525
13210TIP3    H161121   2.708   2.413  -0.063 -1.2294 -1.4820 -0.6916
13210TIP3    H261122   2.732   2.269  -0.023 -0.1192 -0.5949  2.1022
13211TIP3   OH261123   5.374   3.168  13.359 -0.3162  0.1508 -0.2969
13211TIP3    H161124   5.284   3.192  13.339 -0.5367 -1.5678 -1.6136
13211TIP3    H261125   5.421   3.182  13.277  0.9309  2.2138  0.7007
13212TIP3   OH261126   1.647   4.611  16.797  0.2484 -0.5451 -0.4987
13212TIP3    H161127   1.636   4.678  16.729 -0.8371  2.1134  2.0981
13212TIP3    H261128   1.561   4.569  16.802  0.2530 -0.5655 -0.5819
13213TIP3   OH261129   4.750   1.869  16.473  0.1167  0.7738 -0.6677
13213TIP3    H161130   4.826   1.918  16.441 -0.6628  1.7646 -1.0264
13213TIP3    H261131   4.675   1.926  16.456 -0.6878 -0.0764 -0.0710
13214TIP3   OH261132   1.444   0.203  14.409 -0.4561 -0.5161 -0.5276
13214TIP3    H161133   1.366   0.233  14.457 -0.8150  3.0421 -2.9905
13214TIP3    H261134   1.518   0.241  14.457 -0.6142  0.5433 -1.1118
13215TIP3   OH261135   4.709   6.037   3.987  0.3673 -0.3949  0.1651
13215TIP3    H161136   4.800   6.008   3.981  0.5692  0.2493  0.0318
13215TIP3    H261137   4.662   5.961   4.021  1.0582 -0.5370  0.8243
13216TIP3   OH261138   3.694   0.783   2.038 -0.0521  0.7779 -0.1498
13216TIP3    H161139   3.658   0.801   1.951 -4.0108 -0.6463  0.9651
13216TIP3    H261140   3.630   0.821   2.099  1.8839  0.5624  2.1925
13217TIP3   OH261141   5.304   3.043  15.272  0.1314 -0.3928  0.6882
13217TIP3    H161142   5.363   2.970  15.285  0.3139  0.0003  2.4091
13217TIP3    H261143   5.261   3.026  15.188  0.0065 -2.5800  1.1421
13218TIP3   OH261144   1.338   6.568  16.540  0.3761  0.2800 -0.5832
13218TIP3    H161145   1.285   6.512  16.482  1.4583 -1.1270 -0.2702
13218TIP3    H261146   1.277   6.636  16.570 -0.5967  0.1494 -2.1574
13219TIP3   OH261147   0.171   0.791  10.456 -0.1812 -0.6005  0.4164
13219TIP3    H161148   0.120   0.842  10.392  0.0858  0.0326  0.7055
13219TIP3    H261149   0.252   0.840  10.467 -0.7118 -0.0448  2.1459
13220TIP3   OH261150   6.315   4.904  13.491  0.1544  0.2795  0.1929
13220TIP3    H161151   6.394   4.957  13.493 -0.3245  0.9931  0.5477
13220TIP3    H261152   6.266   4.929  13.569 -0.2227 -0.4697  0.2111
13221TIP3   OH261153   0.044   2.839  11.928  0.3474 -0.0688  0.0828
13221TIP3    H161154   0.051   2.933  11.912 -0.8102  0.0768  0.3079
13221TIP3    H261155  -0.046   2.818  11.904  0.0749 -0.7891  1.5864
13222TIP3   OH261156   0.984   0.489   4.912 -0.4500  0.3513 -0.3429
13222TIP3    H161157   0.992   0.393   4.908  0.7340  0.3749  0.7558
13222TIP3    H261158   0.941   0.506   4.995 -1.2420  0.7679 -0.8294
13223TIP3   OH261159   4.745   1.980   3.564 -0.4737 -0.0923  0.1043
13223TIP3    H161160   4.786   1.912   3.511  1.6785  0.1826  1.3017
13223TIP3    H261161   4.817   2.038   3.588 -1.7344  0.9398  1.5857
13224TIP3   OH261162   6.207   2.486  11.186 -0.1927  0.0776 -0.0862
13224TIP3    H161163   6.152   2.552  11.144  0.2454  0.8663  0.5500
13224TIP3    H261164   6.198   2.408  11.131  1.3294  1.4179 -2.4063
13225TIP3   OH261165   1.115   3.615   3.139  0.1766  0.6904  0.5020
13225TIP3    H161166   1.130   3.707   3.158  3.2870  0.3429  0.3034
13225TIP3    H261167   1.166   3.568   3.205  1.4570 -0.7545 -1.3861
13226TIP3   OH261168   5.617   2.297  11.008 -0.0518 -0.0098  0.0736
13226TIP3    H161169   5.576   2.288  10.922  0.8650 -0.2801 -0.3495
13226TIP3    H261170   5.630   2.391  11.019 -2.6026  0.3121  1.1208
13227TIP3   OH261171   4.404   0.953  12.076  0.4567  0.5424 -0.4658
13227TIP3    H161172   4.460   0.878  12.058  0.8489  0.8774 -0.6359
13227TIP3    H261173   4.408   1.006  11.997  0.0428  0.6586 -0.4119
13228TIP3   OH261174   6.133   6.295   2.462 -0.2219  0.0547  0.1789
13228TIP3    H161175   6.160   6.370   2.515  1.2442 -1.4822  1.7290
13228TIP3    H261176   6.041   6.281   2.485 -0.3696  1.0387  0.2491
13229TIP3   OH261177   6.797   4.894   1.439 -0.8150  0.0888  0.7832
13229TIP3    H161178   6.863   4.828   1.419 -1.2511 -0.4549  1.1033
13229TIP3    H261179   6.714   4.856   1.408 -0.8282  1.2671 -0.7191
13230TIP3   OH261180   4.245   3.784  12.153  0.4521  0.2230  0.0400
13230TIP3    H161181   4.329   3.775  12.108  0.5865 -0.5095  0.4297
13230TIP3    H261182   4.244   3.713  12.217 -0.0811  0.7640  0.6490
13231TIP3   OH261183   2.006   6.696  14.142 -0.4848 -0.1869 -0.0617
13231TIP3    H161184   2.095   6.707  14.173 -0.1874 -2.4989  0.0580
13231TIP3    H261185   2.013   6.700  14.047 -0.2319 -0.5300 -0.0567
13232TIP3   OH261186   5.243   1.572   4.231  0.0352  0.0024  0.2753
13232TIP3    H161187   5.152   1.544   4.233  0.1222 -0.3282 -0.1508
13232TIP3    H261188   5.254   1.613   4.145  0.5280 -0.8163 -0.0687
13233TIP3   OH261189   0.698   1.234  13.224  0.1833  0.2145  0.0819
13233TIP3    H161190   0.611   1.255  13.192  0.2698  1.6210  0.6926
13233TIP3    H261191   0.685   1.208  13.315  0.3551 -0.0445  0.0356
13234TIP3   OH261192   5.393   1.514  14.495 -0.5507  0.0393 -0.0758
13234TIP3    H161193   5.422   1.583  14.435 -1.4815  1.9908  1.6189
13234TIP3    H261194   5.446   1.438  14.470 -0.0234  1.0904 -2.5149
13235TIP3   OH261195   1.413   1.947   5.557 -0.4670 -0.7203  0.1995
13235TIP3    H161196   1.462   2.000   5.494  0.7316 -0.0604  1.6118
13235TIP3    H261197   1.361   2.011   5.606  0.7117 -0.8133  1.6699
13236TIP3   OH261198   3.205   2.951  12.827  0.6312 -0.9495  0.0146
13236TIP3    H161199   3.135   2.892  12.800 -0.6639  0.9326 -1.0635
13236TIP3    H261200   3.273   2.940  12.760  0.8777 -1.9345  0.4094
13237TIP3   OH261201   5.400   4.682  15.203  0.4169 -0.2151 -0.1561
13237TIP3    H161202   5.352   4.749  15.251 -0.4922  0.2723 -1.6484
13237TIP3    H261203   5.462   4.731  15.148 -0.9719 -0.4372 -2.0431
13238TIP3   OH261204   6.366   2.756   5.843 -0.0226 -0.0664 -0.1338
13238TIP3    H161205   6.279   2.762   5.803 -0.0014 -0.2798 -0.2181
13238TIP3    H261206   6.350   2.730   5.933 -0.0866  0.7012  0.0814
13239TIP3   OH261207   2.924   4.917   0.070 -0.7112 -0.0144 -0.0331
13239TIP3    H161208   2.888   4.892  -0.015  0.1756 -1.8957  0.0951
13239TIP3    H261209   3.018   4.904   0.061 -0.7066 -1.3451  1.5642
13240TIP3   OH261210   5.338   3.993   2.006  0.1734  0.1842 -0.3167
13240TIP3    H161211   5.322   3.934   1.933 -1.0838 -0.6570  0.5972
13240TIP3    H261212   5.431   3.982   2.026  0.3255 -0.2227 -1.2189
13241TIP3   OH261213   0.925   6.103   1.433  0.0472 -0.4154  0.4538
13241TIP3    H161214   0.854   6.042   1.450 -0.3134  0.3226  1.7289
13241TIP3    H261215   1.000   6.068   1.481  0.7059 -1.4224 -1.2332
13242TIP3   OH261216   1.479   5.407  10.761 -0.5451  0.2250  0.2711
13242TIP3    H161217   1.557   5.442  10.804  0.5974 -1.7906 -0.0424
13242TIP3    H261218   1.473   5.456  10.679 -2.1394  3.3603  2.0333
13243TIP3   OH261219   0.581   0.993  13.081 -0.0129 -0.1269 -0.5040
13243TIP3    H161220   0.661   0.984  13.131  0.0189 -1.6220 -0.7993
13243TIP3    H261221   0.607   1.039  13.001  0.8858 -1.9126 -1.2922
13244TIP3   OH261222   2.182   2.454  10.695 -0.8011  0.6135  0.4936
13244TIP3    H161223   2.204   2.548  10.697  2.1632  0.0074  1.0661
13244TIP3    H261224   2.247   2.416  10.637 -2.1604 -1.1025  0.0212
13245TIP3   OH261225   2.589   6.359   1.609 -0.2386  0.1147 -0.0489
13245TIP3    H161226   2.576   6.349   1.704 -1.0827  0.5910 -0.1085
13245TIP3    H261227   2.509   6.323   1.570  0.9566 -2.0148 -0.6962
13246TIP3   OH261228   6.318   2.980  13.419 -0.3092 -0.0390  0.1214
13246TIP3    H161229   6.305   2.886  13.433  0.6168 -0.2476 -0.3387
13246TIP3    H261230   6.305   2.993  13.325 -0.4304  0.2948  0.1805
13247TIP3   OH261231   0.748   1.947  15.532 -0.1144 -0.4797 -0.5478
13247TIP3    H161232   0.834   1.980  15.505 -1.2116  2.4976 -0.7465
13247TIP3    H261233   0.696   1.947  15.452 -1.1796  0.8611  0.1104
13248TIP3   OH261234   3.762   3.317   0.046  0.1828  0.0984  0.3504
13248TIP3    H161235   3.827   3.275   0.102  0.8132 -0.5138 -0.8029
13248TIP3    H261236   3.807   3.393   0.010  0.2715 -0.3190 -0.4395
13249TIP3   OH261237   6.541   4.570  15.893 -0.1301 -0.2508 -0.0757
13249TIP3    H161238   6.532   4.602  15.804 -1.1870  2.4314  0.8919
13249TIP3    H261239   6.623   4.609  15.924 -0.1440 -0.5538  0.3517
13250TIP3   OH261240   0.617   3.303   3.237 -0.3607 -0.2764  0.0907
13250TIP3    H161241   0.678   3.230   3.228  0.5730  0.5607 -0.6564
13250TIP3    H261242   0.672   3.375   3.268 -1.1964  0.2086  0.4569
13251TIP3   OH261243   0.897   2.361  13.019  0.4305  0.1097 -0.6905
13251TIP3    H161244   0.942   2.332  12.939  4.5061 -1.1089  1.7399
13251TIP3    H261245   0.934   2.447  13.037 -1.2684  0.8574 -0.5999
13252TIP3   OH261246   5.216   5.061   0.957 -0.1871  0.0081  0.0915
13252TIP3    H161247   5.296   5.070   0.906  0.2354  0.4947  0.8351
13252TIP3    H261248   5.237   5.098   1.042 -1.1817  0.0810  0.3159
13253TIP3   OH261249   1.114   6.406  11.707  0.1622  0.2431 -0.5153
13253TIP3    H161250   1.129   6.322  11.751  1.3579  1.4891  1.5788
13253TIP3    H261251   1.189   6.417  11.649 -0.4318 -0.4816 -1.4665
13254TIP3   OH261252   5.596   2.110  16.382 -0.1299 -0.3447 -0.2151
13254TIP3    H161253   5.598   2.183  16.444  0.4861 -0.8011  0.3207
13254TIP3    H261254   5.571   2.150  16.299 -0.0361  0.4401  0.1231
13255TIP3   OH261255   3.887   6.013   1.381 -0.4339  0.1444  0.0388
13255TIP3    H161256   3.974   6.006   1.342 -0.9299 -2.1093 -0.7636
13255TIP3    H261257   3.897   5.981   1.471 -0.2437  0.9916  0.3382
13256TIP3   OH261258   1.951   1.567  16.229 -0.4071 -0.7839  0.0701
13256TIP3    H161259   1.925   1.569  16.137  1.0801 -1.1949 -0.3974
13256TIP3    H261260   1.959   1.473  16.248  0.0911 -0.6791  0.3729
13257TIP3   OH261261   3.225   3.955  15.695 -0.2075  0.6919 -0.0802
13257TIP3    H161262   3.285   4.026  15.715  1.5430 -0.3948 -1.1880
13257TIP3    H261263   3.269   3.904  15.626 -1.8041 -0.9245 -0.0056
13258TIP3   OH261264   5.328   3.206   0.848 -0.0681 -0.3607 -0.2400
13258TIP3    H161265   5.361   3.291   0.877  0.7885 -0.5090 -0.7384
13258TIP3    H261266   5.307   3.160   0.930 -0.1714  0.1826  0.0458
13259TIP3   OH261267   2.926   0.050   1.389 -0.0508  0.6790 -0.1272
13259TIP3    H161268   2.961   0.010   1.310  1.4062 -0.1257  0.8742
13259TIP3    H261269   2.865  -0.015   1.424  0.5209  0.3338  0.2437
13260TIP3   OH261270   0.033   5.104  13.336  0.1239  0.2234  0.2995
13260TIP3    H161271  -0.015   5.131  13.258 -0.5643  0.8523  0.9182
13260TIP3    H261272  -0.021   5.035  13.375  0.9749 -0.8114 -0.3075
13261TIP3   OH261273   3.632   3.058  14.864  0.2376 -0.6197 -0.1476
13261TIP3    H161274   3.617   3.087  14.953 -1.8537 -0.3340 -0.5380
13261TIP3    H261275   3.708   3.109  14.834 -0.1468  0.5849  0.8636
13262TIP3   OH261276   0.648   6.057  17.074  0.3262 -0.4155  0.3759
13262TIP3    H161277   0.689   5.986  17.026  0.4281  0.5050 -0.9633
13262TIP3    H261278   0.720   6.102  17.117  1.1024  1.9694 -2.9838
13263TIP3   OH261279   0.903   2.660  13.465 -0.8915 -0.5206  0.2442
13263TIP3    H161280   0.945   2.655  13.551 -1.0249 -0.4310  0.3148
13263TIP3    H261281   0.870   2.750  13.459  0.1129 -0.1766 -0.3704
13264TIP3   OH261282   1.567   3.271  12.193 -0.4221  0.7612 -0.4290
13264TIP3    H161283   1.622   3.227  12.129  0.4142 -0.5339  1.1034
13264TIP3    H261284   1.503   3.319  12.141  2.1502  2.3907 -2.3077
13265TIP3   OH261285   6.466   4.368   3.789  0.7865  0.4418  0.1907
13265TIP3    H161286   6.418   4.332   3.714 -1.2301  0.0435  1.5796
13265TIP3    H261287   6.544   4.312   3.797  1.0982  0.5574 -1.6236
13266TIP3   OH261288   6.547   0.045   2.224 -0.6527  0.7342  0.0594
13266TIP3    H161289   6.629   0.067   2.269 -0.4016  1.2672 -0.6428
13266TIP3    H261290   6.478   0.078   2.281 -0.3842  0.3472  0.6196
13267TIP3   OH261291   2.212   0.043  16.409  0.6268 -0.2835 -1.0308
13267TIP3    H161292   2.258   0.113  16.362 -1.7336  3.7048  1.8638
13267TIP3    H261293   2.125   0.040  16.369 -0.7728  1.8577  1.4472
13268TIP3   OH261294   5.595   6.578  16.562  0.5972 -0.3692  0.0969
13268TIP3    H161295   5.571   6.543  16.476  0.9342 -1.9827  0.6324
13268TIP3    H261296   5.522   6.636  16.585  0.5531  0.1642 -1.3002
13269TIP3   OH261297   3.685   4.882   3.317 -0.1506  0.2076  0.4875
13269TIP3    H161298   3.647   4.864   3.403 -0.9672  0.2065  0.1342
13269TIP3    H261299   3.711   4.974   3.321 -1.2906  0.5471  0.3376
13270TIP3   OH261300   5.822   2.915  17.049  0.4797  0.0723 -0.0947
13270TIP3    H161301   5.890   2.901  17.115  0.2722  0.0080  0.1031
13270TIP3    H261302   5.750   2.955  17.097 -1.1209 -3.2613  0.5092
13271TIP3   OH261303   3.936   5.217   2.200  0.1548  0.0299 -0.1852
13271TIP3    H161304   3.934   5.280   2.272  1.0087  1.5374 -1.4255
13271TIP3    H261305   3.848   5.179   2.198 -0.0281  0.3239  1.3168
13272TIP3   OH261306   3.929   2.972  13.718  0.1708 -0.3958  0.3662
13272TIP3    H161307   3.880   2.962  13.800  0.9243 -0.8093  0.7776
13272TIP3    H261308   4.012   2.926  13.734 -0.2125 -1.6959 -1.0831
13273TIP3   OH261309   1.477   2.101   1.254 -0.0495  0.3603 -0.6838
13273TIP3    H161310   1.450   2.012   1.278  0.1714  0.6918  0.9523
13273TIP3    H261311   1.566   2.090   1.219  0.7700  0.1037  1.3372
13274TIP3   OH261312   3.545   5.715  12.612 -0.5294  0.3676  0.0778
13274TIP3    H161313   3.591   5.655  12.553 -0.9138 -0.4074  0.5621
13274TIP3    H261314   3.612   5.780  12.636 -0.4445  0.8990 -1.4524
13275TIP3   OH261315   1.623   4.911  15.431  0.5278  0.1192  0.4983
13275TIP3    H161316   1.626   4.816  15.439  2.7959  0.2090  1.5215
13275TIP3    H261317   1.684   4.931  15.360  0.4943  0.8444  0.6627
13276TIP3   OH261318   4.431   6.683  12.405 -0.2539 -0.1674 -0.2044
13276TIP3    H161319   4.444   6.632  12.325 -2.7516 -0.7563 -0.3244
13276TIP3    H261320   4.461   6.625  12.475 -1.0169 -0.9470 -0.5080
13277TIP3   OH261321   0.802   1.517  12.862 -0.4205  0.2991  0.3786
13277TIP3    H161322   0.771   1.498  12.950  0.4126  0.3943  0.6951
13277TIP3    H261323   0.834   1.433  12.829  1.7050  0.7442  1.1591
13278TIP3   OH261324   0.518   4.747  11.366 -0.0211  0.2532 -0.1597
13278TIP3    H161325   0.609   4.754  11.397 -0.4665  0.7792  1.1074
13278TIP3    H261326   0.492   4.658  11.388  0.2222  0.0700 -0.6157
13279TIP3   OH261327   1.469   2.152  15.191  0.2470 -0.7198 -0.0575
13279TIP3    H161328   1.420   2.223  15.233  0.9742 -0.3412  0.1776
13279TIP3    H261329   1.409   2.078  15.190 -0.2569 -0.3259  0.3998
13280TIP3   OH261330   5.510   5.342   2.365 -0.2367 -0.1558  0.2451
13280TIP3    H161331   5.529   5.267   2.308  1.1818  0.0343  0.4360
13280TIP3    H261332   5.438   5.312   2.420  0.1673 -1.3232  0.1735
13281TIP3   OH261333   3.919   6.073   4.654  0.3936 -0.0955 -0.0570
13281TIP3    H161334   3.864   6.144   4.689 -0.1660  0.4861 -1.9695
13281TIP3    H261335   3.971   6.045   4.729  0.3176  2.0363  0.8952
13282TIP3   OH261336   0.339   2.025   0.034  0.2936  0.4603 -0.0917
13282TIP3    H161337   0.414   2.008  -0.022  0.3705 -2.8729  0.8346
13282TIP3    H261338   0.264   2.023  -0.024  0.6385  0.3757 -0.5382
13283TIP3   OH261339   2.245   3.318   3.448 -0.0024  0.3842 -0.8576
13283TIP3    H161340   2.183   3.320   3.376 -0.5824  1.1921 -0.3578
13283TIP3    H261341   2.213   3.250   3.507 -1.4061  1.8935  0.2159
13284TIP3   OH261342   2.821   2.907   5.609  0.2514  0.2773  0.4509
13284TIP3    H161343   2.735   2.866   5.604  0.3963 -0.0256  0.3676
13284TIP3    H261344   2.872   2.847   5.664  1.5464 -1.6504 -2.5672
13285TIP3   OH261345   0.217   1.871   6.122  0.1566 -0.1194 -0.4459
13285TIP3    H161346   0.127   1.866   6.155  0.0847 -1.9687 -0.7909
13285TIP3    H261347   0.216   1.947   6.063 -1.2905 -0.2894 -0.7058
13286TIP3   OH261348   0.311   2.457  13.016 -0.3561 -0.3095 -0.0801
13286TIP3    H161349   0.314   2.552  13.030  1.8882 -0.5907  2.2186
13286TIP3    H261350   0.219   2.434  13.026 -0.9692  1.6383 -0.8855
13287TIP3   OH261351   6.317   3.224  10.175 -0.0687 -0.4036 -0.0545
13287TIP3    H161352   6.409   3.246  10.188 -0.3012  0.7125 -0.2153
13287TIP3    H261353   6.271   3.307  10.180 -1.1022 -0.9674  0.2212
13288TIP3   OH261354   5.480   2.935   4.799  0.1440  0.2955  0.4208
13288TIP3    H161355   5.418   2.861   4.798  0.0382  0.3225  2.1874
13288TIP3    H261356   5.561   2.898   4.762 -0.1494 -0.4835  0.5225
13289TIP3   OH261357   0.392   1.237  14.247 -0.2243  0.5100 -0.5704
13289TIP3    H161358   0.406   1.229  14.153 -0.2850  3.4615 -0.9178
13289TIP3    H261359   0.352   1.323  14.259 -0.9462 -0.0762  2.1163
13290TIP3   OH261360   3.874   0.681   2.690 -0.4301 -0.0094  0.2711
13290TIP3    H161361   3.897   0.588   2.689  2.3911  0.6166 -0.0249
13290TIP3    H261362   3.942   0.722   2.743 -3.3168  1.5744  3.0800
13291TIP3   OH261363   5.108   0.043   2.277 -0.4399  0.5677 -0.5741
13291TIP3    H161364   5.022   0.081   2.299 -0.3894  1.4474 -1.7803
13291TIP3    H261365   5.169   0.085   2.338 -1.1190 -1.8799  2.0124
13292TIP3   OH261366   6.736   5.971   1.118 -0.4884  0.6150  0.7675
13292TIP3    H161367   6.715   6.062   1.097 -0.8113  0.2906 -0.3785
13292TIP3    H261368   6.651   5.927   1.119 -0.2104  0.0325 -0.2234
13293TIP3   OH261369   0.221   2.319   2.740  0.2664  0.3053 -0.3137
13293TIP3    H161370   0.129   2.293   2.733 -0.0583  1.4822 -0.7659
13293TIP3    H261371   0.228   2.355   2.829  0.4881 -0.4755 -0.0099
13294TIP3   OH261372   0.346   3.742  15.080 -0.5170  0.5530 -0.0360
13294TIP3    H161373   0.261   3.787  15.080 -0.7087  0.2079  0.7702
13294TIP3    H261374   0.329   3.660  15.034 -0.2796  1.0834 -1.0935
13295TIP3   OH261375   6.805   5.911  13.985 -0.2459  0.0885 -0.1451
13295TIP3    H161376   6.856   5.980  14.027  0.1271  0.3140 -0.9588
13295TIP3    H261377   6.751   5.956  13.921 -0.7280 -0.2702  0.0019
13296TIP3   OH261378   4.042   6.457  13.836 -0.4381  0.1747 -0.0473
13296TIP3    H161379   4.106   6.405  13.884 -1.1198 -0.7393 -0.1179
13296TIP3    H261380   4.048   6.427  13.746 -2.1117 -1.1125  0.2264
13297TIP3   OH261381   3.984   6.492  16.866 -0.1919  0.5410 -0.2400
13297TIP3    H161382   3.939   6.473  16.784 -0.2514  0.0313 -0.0902
13297TIP3    H261383   3.930   6.558  16.909 -1.2271 -0.6419  0.3083
13298TIP3   OH261384   2.301   1.281  16.964  0.6392 -0.7266 -0.5296
13298TIP3    H161385   2.372   1.230  17.003 -0.8427 -2.5760 -0.0852
13298TIP3    H261386   2.267   1.226  16.893  0.4085  0.6453 -1.5221
13299TIP3   OH261387   3.892   5.513  12.892 -0.3536  0.1051 -0.4168
13299TIP3    H161388   3.890   5.571  12.817 -1.0060  2.0796  1.0366
13299TIP3    H261389   3.920   5.569  12.965 -2.5311 -0.9605  1.3716
13300TIP3   OH261390   4.769   1.098  16.878  0.6051  0.3368 -0.4254
13300TIP3    H161391   4.698   1.104  16.816 -1.7288  0.5126  2.0777
13300TIP3    H261392   4.797   1.006  16.874 -2.1326 -0.6557  0.8440
13301TIP3   OH261393   1.435   5.973   2.870  0.3537  0.3323  0.3528
13301TIP3    H161394   1.495   6.047   2.880  0.7527 -0.0982  1.2910
13301TIP3    H261395   1.366   5.990   2.933  0.6133 -0.2452  0.8045
13302TIP3   OH261396   4.306   6.728  14.384 -0.0897  0.3783  0.7976
13302TIP3    H161397   4.317   6.796  14.451  0.3030  0.1688  0.9482
13302TIP3    H261398   4.292   6.647  14.434 -2.5523  0.6328  0.6365
13303TIP3   OH261399   4.540   4.796   4.305 -0.2686 -0.1061  0.4302
13303TIP3    H161400   4.592   4.845   4.369  0.4917 -1.6513  1.0511
13303TIP3    H261401   4.590   4.802   4.224 -0.1033  0.0334  0.5414
13304TIP3   OH261402   6.789   5.725  10.604 -0.3538  0.5125  0.1625
13304TIP3    H161403   6.785   5.740  10.509 -0.8388 -0.3367  0.0447
13304TIP3    H261404   6.713   5.671  10.623  0.2474 -0.0950  0.8987
13305TIP3   OH261405   4.566   4.427  10.630  0.5963 -0.1211 -1.1400
13305TIP3    H161406   4.603   4.351  10.584  2.5179  0.0740 -0.0119
13305TIP3    H261407   4.597   4.503  10.579 -0.1472 -0.0327 -1.4667
13306TIP3   OH261408   4.859   3.616  16.500  0.0289 -0.1105  0.5381
13306TIP3    H161409   4.836   3.523  16.496 -0.6861  0.0968 -1.0362
13306TIP3    H261410   4.833   3.644  16.588 -1.1909 -1.0507  0.4989
13307TIP3   OH261411   4.849   1.183   5.590  0.1509  0.5999  0.0687
13307TIP3    H161412   4.774   1.171   5.649 -1.3006  2.4288 -1.2902
13307TIP3    H261413   4.834   1.121   5.519 -0.0681  0.9234 -0.1725
13308TIP3   OH261414   6.437   1.483  17.066 -0.2413  1.0676 -0.4488
13308TIP3    H161415   6.344   1.505  17.055 -0.3420 -0.0886 -2.4827
13308TIP3    H261416   6.479   1.566  17.087 -1.9117  1.3527  2.2019
13309TIP3   OH261417   6.562   6.175   0.116  0.1580  0.0515  0.2710
13309TIP3    H161418   6.490   6.236   0.131  0.3411  0.0844  1.1082
13309TIP3    H261419   6.634   6.210   0.169  0.1742 -1.0441  1.0058
13310TIP3   OH261420   1.568   6.378  15.020 -0.0394  0.6789  0.0408
13310TIP3    H161421   1.586   6.351  15.110 -0.2120 -0.4872 -0.2525
13310TIP3    H261422   1.481   6.418  15.024 -0.9998 -1.2905  0.0676
13311TIP3   OH261423   1.336   2.684   2.694 -0.1291 -0.5468  0.6136
13311TIP3    H161424   1.365   2.774   2.680  0.1158 -0.8043 -0.7149
13311TIP3    H261425   1.378   2.657   2.775  3.2409 -0.8201 -1.0528
13312TIP3   OH261426   1.838   6.318  17.049 -0.2321  0.3559 -0.3030
13312TIP3    H161427   1.744   6.313  17.033 -0.5968  1.5632  1.1874
13312TIP3    H261428   1.871   6.380  16.984 -0.2883 -0.7490 -1.4110
13313TIP3   OH261429   2.486   2.439   2.605 -0.5690 -0.8624 -0.8485
13313TIP3    H161430   2.413   2.427   2.666 -0.4549 -1.4843 -0.8231
13313TIP3    H261431   2.462   2.516   2.553 -0.1546  0.3853  0.7170
13314TIP3   OH261432   6.328   5.774  17.022  0.3322  0.0681  0.2243
13314TIP3    H161433   6.367   5.846  16.973 -2.2437  0.7966 -0.9162
13314TIP3    H261434   6.328   5.803  17.113 -2.4227  2.4932 -0.4218
13315TIP3   OH261435   1.570   1.759  16.852  0.1455  0.8817 -0.3209
13315TIP3    H161436   1.542   1.797  16.935 -2.1380  0.0016 -0.5986
13315TIP3    H261437   1.596   1.669  16.873  1.4511  1.2619 -0.2801
13316TIP3   OH261438   1.129   1.441   4.954  0.0684 -0.2185  0.2263
13316TIP3    H161439   1.206   1.398   4.917 -0.2828 -0.5215 -0.1548
13316TIP3    H261440   1.148   1.535   4.946  2.1274 -0.1438  3.6103
13317TIP3   OH261441   3.650   1.912  15.255  0.4295  0.2014  0.9455
13317TIP3    H161442   3.682   1.880  15.340  0.6009  1.8994  1.5633
13317TIP3    H261443   3.635   1.833  15.204  3.2609 -0.8042  1.4751
13318TIP3   OH261444   5.160   1.083   4.435  0.3482 -0.4028  0.4821
13318TIP3    H161445   5.183   1.075   4.343 -0.2646 -1.3203  0.3989
13318TIP3    H261446   5.186   1.172   4.458  0.1616 -0.0330 -0.6684
13319TIP3   OH261447   5.990   5.405  12.269  0.0119  0.1530  0.2106
13319TIP3    H161448   6.014   5.489  12.310  0.3788  0.8836 -1.4084
13319TIP3    H261449   6.059   5.345  12.297  1.1599  1.0414 -0.5958
13320TIP3   OH261450   0.886   0.881   2.567 -0.1576 -0.0372 -0.3655
13320TIP3    H161451   0.796   0.873   2.601 -0.3585  0.0646 -0.8599
13320TIP3    H261452   0.940   0.835   2.631 -0.6014 -0.3761 -0.2262
13321TIP3   OH261453   0.009   6.313  12.739 -0.2039  0.1010 -1.0667
13321TIP3    H161454   0.022   6.284  12.649 -0.5767  0.7280 -1.3252
13321TIP3    H261455  -0.064   6.375  12.735 -1.6956 -1.4982 -0.0199
13322TIP3   OH261456   2.754   0.707   2.647 -0.6933  0.4602 -0.2038
13322TIP3    H161457   2.666   0.744   2.638 -1.3732 -1.2060 -0.7395
13322TIP3    H261458   2.748   0.648   2.722 -0.6020 -1.1741 -1.4383
13323TIP3   OH261459   4.894   3.776   3.320 -0.1127 -0.0129 -0.2438
13323TIP3    H161460   4.861   3.810   3.404 -0.1072  0.5846 -0.4762
13323TIP3    H261461   4.884   3.850   3.260  1.0801 -0.0227 -0.4729
13324TIP3   OH261462   4.166   1.904   3.207 -0.1739 -0.5241  0.6100
13324TIP3    H161463   4.104   1.850   3.257  0.7094 -0.6223  1.6192
13324TIP3    H261464   4.247   1.900   3.257  0.6024 -0.2245 -0.5903
13325TIP3   OH261465   1.972   2.268   3.373 -0.0503  0.3077 -0.0883
13325TIP3    H161466   1.932   2.307   3.451 -0.7867  1.1358 -0.8543
13325TIP3    H261467   1.899   2.223   3.329  0.1171  0.7552 -0.8427
13326TIP3   OH261468   2.090   3.206  17.104  0.1653 -0.3107  0.3326
13326TIP3    H161469   2.178   3.191  17.069  0.8625  1.0453  1.3784
13326TIP3    H261470   2.104   3.217  17.198 -1.3986 -1.9827  0.7973
13327TIP3   OH261471   1.846   3.435   4.560 -0.4557 -0.0012  0.0532
13327TIP3    H161472   1.782   3.372   4.593 -2.1089  1.4163 -0.3190
13327TIP3    H261473   1.910   3.382   4.512  0.3164 -1.7832  2.8011
13328TIP3   OH261474   4.626   4.913   3.389  0.3286  0.5616  0.4109
13328TIP3    H161475   4.573   4.836   3.370  1.5925 -0.1549 -0.3768
13328TIP3    H261476   4.708   4.898   3.340  0.5811  2.4162  0.2048
13329TIP3   OH261477   6.125   0.359  14.409  0.4009  0.3998 -0.0194
13329TIP3    H161478   6.087   0.351  14.321 -1.9765 -0.4025  1.0032
13329TIP3    H261479   6.062   0.317  14.467  3.3961 -2.1373  1.7644
13330TIP3   OH261480   5.673   6.745  12.572  0.0288  0.1619  0.2388
13330TIP3    H161481   5.621   6.802  12.629 -1.3909  0.4631 -1.2658
13330TIP3    H261482   5.636   6.658  12.585  1.3383 -0.2526  1.5537
13331TIP3   OH261483   1.627   4.695   5.035 -0.1312  0.4807  0.7974
13331TIP3    H161484   1.535   4.700   5.008  0.7245 -0.4451 -2.8331
13331TIP3    H261485   1.670   4.764   4.986  1.5127 -0.9329  0.1448
13332TIP3   OH261486   1.307   2.490   2.001 -0.0347  0.6765 -0.3746
13332TIP3    H161487   1.214   2.468   1.997 -0.1038  0.1319  2.2568
13332TIP3    H261488   1.329   2.484   2.094  2.2889  2.3108 -0.7273
13333TIP3   OH261489   1.064   6.478   2.573  0.4143 -0.0489 -0.2009
13333TIP3    H161490   0.993   6.415   2.585 -0.8464  1.3611  0.0614
13333TIP3    H261491   1.064   6.497   2.479  0.4368 -0.0511 -0.2013
13334TIP3   OH261492   5.070   0.127   1.116  0.5488  0.1385  0.2717
13334TIP3    H161493   5.077   0.047   1.063  0.3422  0.7206 -0.6712
13334TIP3    H261494   5.069   0.197   1.051  1.2298  0.9394  1.1098
13335TIP3   OH261495   6.336   3.822  11.129 -0.2799  0.4175  0.1833
13335TIP3    H161496   6.252   3.804  11.087 -0.5888 -2.3033  1.7984
13335TIP3    H261497   6.318   3.819  11.222  0.7984  4.3800  0.6975
13336TIP3   OH261498   0.252   3.325  12.613 -0.5901 -0.8087  0.6376
13336TIP3    H161499   0.162   3.295  12.604 -0.3456 -1.4860  0.3752
13336TIP3    H261500   0.259   3.400  12.554 -1.0146 -0.6843  0.7468
13337TIP3   OH261501   1.966   5.592  17.035  0.1227 -0.0631  1.1684
13337TIP3    H161502   1.961   5.499  17.055 -0.3470  0.0995  1.8587
13337TIP3    H261503   2.004   5.632  17.113  1.4895  0.1865  0.4056
13338TIP3   OH261504   3.090   5.065  12.811  0.0302  0.0657 -0.1115
13338TIP3    H161505   3.130   5.005  12.748 -1.8213  0.4924 -1.8191
13338TIP3    H261506   3.112   5.152  12.779  2.0817  0.4054  1.9429
13339TIP3   OH261507   3.280   1.536  12.981 -0.4317  0.4010 -0.7425
13339TIP3    H161508   3.360   1.583  13.004 -0.4023 -0.0320  0.0848
13339TIP3    H261509   3.269   1.552  12.888  0.4454  0.7311 -0.8016
13340TIP3   OH261510   5.633   3.377   1.857  0.1621 -0.5328  0.6093
13340TIP3    H161511   5.655   3.381   1.950 -0.6273 -2.6833  0.9417
13340TIP3    H261512   5.547   3.418   1.850 -0.4272 -1.6404  1.1046
13341TIP3   OH261513   4.794   6.356  15.969 -0.2749  0.2703  0.3439
13341TIP3    H161514   4.707   6.356  16.010 -0.1684  1.4225  0.5989
13341TIP3    H261515   4.782   6.406  15.888 -0.1040 -0.5899 -0.2314
13342TIP3   OH261516   5.900   3.279   1.768  0.0738  0.4252 -0.1047
13342TIP3    H161517   5.957   3.319   1.835  0.7931  1.0059 -1.0225
13342TIP3    H261518   5.812   3.308   1.791  0.2048 -0.0966  1.0802
13343TIP3   OH261519   0.169   5.509  13.832  0.0280 -0.1391  0.1139
13343TIP3    H161520   0.137   5.430  13.876  1.6468 -1.1434 -0.4223
13343TIP3    H261521   0.190   5.480  13.743  0.3537  0.9815 -0.1910
13344TIP3   OH261522   3.708   6.503   1.768 -0.1027 -0.5134  0.3322
13344TIP3    H161523   3.731   6.579   1.820 -1.3561 -0.0548  0.2585
13344TIP3    H261524   3.641   6.535   1.707  1.3916 -1.0063 -1.6534
13345TIP3   OH261525   0.842   2.801   3.494 -0.5339 -0.0521 -0.1883
13345TIP3    H161526   0.934   2.779   3.509 -0.1495  0.9329 -1.0226
13345TIP3    H261527   0.836   2.894   3.513 -0.3329  0.9810 -4.2510
13346TIP3   OH261528   0.955   4.705  12.011 -0.1672 -0.1254  0.4677
13346TIP3    H161529   1.046   4.689  11.985 -0.3030  0.8578 -0.7271
13346TIP3    H261530   0.955   4.794  12.045 -0.7343 -0.0376  0.2486
13347TIP3   OH261531   0.072   4.947  15.134  0.3122 -0.0973  0.4758
13347TIP3    H161532   0.144   4.890  15.109  0.8124 -0.1015  1.8582
13347TIP3    H261533   0.077   4.952  15.229  1.1362  3.2984  0.3918
13348TIP3   OH261534   4.215   0.742   4.021 -0.2219 -0.2351  0.5254
13348TIP3    H161535   4.209   0.685   4.098 -1.2181 -0.5825  0.2027
13348TIP3    H261536   4.203   0.830   4.056 -0.1022 -0.3408  0.8410
13349TIP3   OH261537   4.205   2.535   2.350  0.2138  0.3272  0.3651
13349TIP3    H161538   4.287   2.501   2.314  0.8676  1.5583  0.6374
13349TIP3    H261539   4.229   2.570   2.435 -0.4683  1.2256  0.2037
13350TIP3   OH261540   4.291   3.069  14.074 -0.1116 -0.6000  0.4461
13350TIP3    H161541   4.329   3.108  14.153 -2.4414  3.2936 -0.1101
13350TIP3    H261542   4.198   3.059  14.095 -0.8390  0.8033 -1.8018
13351TIP3   OH261543   2.065   3.153  13.487  0.1556 -0.0713  0.2512
13351TIP3    H161544   2.083   3.158  13.393  0.2011  2.0613  0.3195
13351TIP3    H261545   2.064   3.245  13.516  0.9730 -0.7066  2.4936
13352TIP3   OH261546   0.657   6.273  11.187  0.0770 -0.0922  0.1249
13352TIP3    H161547   0.634   6.287  11.095  0.7498  0.4121  0.0307
13352TIP3    H261548   0.745   6.308  11.196 -0.9534  2.3644  1.5984
13353TIP3   OH261549   4.904   1.191   0.724  0.2427  0.6588 -0.4336
13353TIP3    H161550   4.986   1.182   0.772 -1.0697 -2.4144  1.5209
13353TIP3    H261551   4.861   1.266   0.764 -0.1380 -0.9107  2.3641
13354TIP3   OH261552   6.378   0.573  13.217  0.2947  0.3414  0.0729
13354TIP3    H161553   6.408   0.502  13.159  0.9056  0.3710  0.3510
13354TIP3    H261554   6.323   0.529  13.282  1.0444  0.0458  0.5192
13355TIP3   OH261555   2.850   0.895  12.614  1.1899  0.2104 -0.1777
13355TIP3    H161556   2.789   0.969  12.621  0.9641  0.0654 -0.5389
13355TIP3    H261557   2.928   0.932  12.573  1.0567  0.2418 -0.4096
13356TIP3   OH261558   4.573   5.176  16.884  0.0233 -0.6637  0.0817
13356TIP3    H161559   4.642   5.116  16.909 -0.2347 -1.3347 -0.7610
13356TIP3    H261560   4.596   5.259  16.927 -0.3518 -1.6905  2.3852
13357TIP3   OH261561   2.815   2.582  14.580  0.5309  0.4863  0.6095
13357TIP3    H161562   2.854   2.515  14.637  1.9015  0.5200 -0.2278
13357TIP3    H261563   2.819   2.663  14.632  1.8510  0.5372  0.4747
13358TIP3   OH261564   2.255   3.807   4.957 -0.3976 -0.2150 -0.0163
13358TIP3    H161565   2.333   3.757   4.933  0.7900  1.5298  0.0259
13358TIP3    H261566   2.214   3.827   4.873 -0.1454 -0.1222 -0.1185
13359TIP3   OH261567   1.095   2.098   2.301  0.0889  0.2212  0.1699
13359TIP3    H161568   1.097   2.029   2.235  2.5270 -0.2165  0.6124
13359TIP3    H261569   1.012   2.143   2.286 -0.4352 -1.2484 -1.7382
13360TIP3   OH261570   4.758   3.368  16.208  0.1070  0.5108 -0.4012
13360TIP3    H161571   4.832   3.324  16.249 -0.7963  0.2677  1.0482
13360TIP3    H261572   4.790   3.456  16.187  0.8060  0.3946  0.1690
13361TIP3   OH261573   3.392   6.049  11.270 -0.0018 -0.1471  0.1478
13361TIP3    H161574   3.377   6.140  11.244 -0.5560 -0.1450  0.4616
13361TIP3    H261575   3.469   6.022  11.220 -0.8924 -0.0674 -1.3252
13362TIP3   OH261576   3.963   6.398  11.374  0.2767 -0.3879  0.0649
13362TIP3    H161577   3.900   6.430  11.438  1.4269 -0.5174  1.2920
13362TIP3    H261578   4.049   6.417  11.412  0.9977 -0.6543 -1.3428
13363TIP3   OH261579   1.419   3.434  11.095  0.1518  0.4153 -0.3977
13363TIP3    H161580   1.395   3.423  11.003 -0.0006  0.2052 -0.3349
13363TIP3    H261581   1.356   3.497  11.129  0.8697  1.3045 -0.6971
13364TIP3   OH261582   5.607   3.442  11.711  0.6490 -0.2084 -0.0024
13364TIP3    H161583   5.633   3.440  11.619  1.0017  1.2834  0.0363
13364TIP3    H261584   5.657   3.514  11.748 -0.3176 -0.0803  1.1067
13365TIP3   OH261585   0.179   6.807  13.976  0.3003 -0.1302  0.2653
13365TIP3    H161586   0.200   6.715  13.995 -0.3900 -0.6702 -1.3749
13365TIP3    H261587   0.092   6.820  14.015  1.1394  0.4136  2.0819
13366TIP3   OH261588   5.991   5.175   1.445  0.0626  0.1635 -0.1576
13366TIP3    H161589   6.041   5.093   1.435 -0.9278 -0.2642 -2.3183
13366TIP3    H261590   5.909   5.148   1.486 -0.0284  0.1652 -0.3368
13367TIP3   OH261591   4.202   1.252   1.425 -0.0451  0.1901 -0.0397
13367TIP3    H161592   4.216   1.163   1.394  1.4125  0.6182 -0.6656
13367TIP3    H261593   4.248   1.256   1.509  2.2791  1.0810 -1.2634
13368TIP3   OH261594   4.189   4.794  11.439  0.4846  0.2192 -0.4090
13368TIP3    H161595   4.245   4.825  11.510 -0.9525  0.8301  0.5187
13368TIP3    H261596   4.185   4.699  11.451  0.9888  0.2205 -0.2287
13369TIP3   OH261597   0.076   2.702  12.988 -0.2620 -0.4128 -0.2485
13369TIP3    H161598   0.145   2.693  13.053  0.0567  2.1110 -0.1378
13369TIP3    H261599   0.087   2.627  12.930  1.3686 -1.0670  0.8538
13370TIP3   OH261600   1.450   4.602   2.748  0.1126  0.0503 -0.2029
13370TIP3    H161601   1.382   4.593   2.682 -0.0484  2.1415 -0.3757
13370TIP3    H261602   1.531   4.579   2.703 -0.2036 -0.2247 -0.6360
13371TIP3   OH261603   1.846   3.940   1.069  0.3030 -0.8501 -0.3557
13371TIP3    H161604   1.874   3.852   1.092 -0.8951 -1.5739 -1.5349
13371TIP3    H261605   1.926   3.993   1.070  0.7588 -1.4677  2.3464
13372TIP3   OH261606   5.388   5.721  12.651 -0.1989  0.0172 -0.0472
13372TIP3    H161607   5.432   5.656  12.596  1.5805  1.1470 -0.0324
13372TIP3    H261608   5.332   5.769  12.591 -1.1624 -1.1763 -0.1451
13373TIP3   OH261609   0.518   1.435   6.446 -0.6087 -0.2063  0.6162
13373TIP3    H161610   0.442   1.445   6.503 -1.1149  2.0074 -0.3110
13373TIP3    H261611   0.520   1.517   6.396  1.8538 -0.6033 -0.0398
13374TIP3   OH261612   6.816   4.844  14.504  0.4959  0.5066 -0.0083
13374TIP3    H161613   6.833   4.750  14.494  1.0312  0.6761 -0.7108
13374TIP3    H261614   6.886   4.887  14.455 -0.1841  1.2671 -0.3385
13375TIP3   OH261615   2.335   2.568  12.331 -0.2945  0.1970 -0.1502
13375TIP3    H161616   2.312   2.501  12.396  0.3782 -1.1071 -1.1969
13375TIP3    H261617   2.255   2.619  12.320 -0.4037  0.5021  1.7323
13376TIP3   OH261618   3.841   6.114   5.093 -0.3088  0.1879  0.3531
13376TIP3    H161619   3.784   6.081   5.163 -0.6894  3.0741  1.5179
13376TIP3    H261620   3.792   6.185   5.053  0.9781  0.2786 -1.1509
13377TIP3   OH261621   4.518   0.814  15.039  0.0674  0.5977 -0.3648
13377TIP3    H161622   4.523   0.904  15.008  0.0802  1.2621  1.4315
13377TIP3    H261623   4.496   0.763  14.961 -0.1863  2.1714 -1.3742
13378TIP3   OH261624   0.958   1.846  11.752 -0.1589  0.4507 -0.6655
13378TIP3    H161625   0.886   1.819  11.810 -0.8072  0.9650 -1.2076
13378TIP3    H261626   1.009   1.908  11.804 -0.0911  0.0659 -0.2685
13379TIP3   OH261627   4.586   2.819   2.450 -0.3833  0.4203 -0.5606
13379TIP3    H161628   4.563   2.802   2.359 -0.3480  0.6661 -0.6144
13379TIP3    H261629   4.589   2.732   2.490 -1.0750  0.3591 -0.6289
13380TIP3   OH261630   3.935   6.339  16.338  0.8679  0.0574  0.5532
13380TIP3    H161631   3.951   6.254  16.295  2.6206 -0.7500  2.6120
13380TIP3    H261632   3.868   6.321  16.403 -0.6039  0.9019 -0.6701
13381TIP3   OH261633   0.461   4.018  13.332  0.0492 -0.2396 -0.3397
13381TIP3    H161634   0.465   3.970  13.415  0.5572  0.5276  0.0845
13381TIP3    H261635   0.367   4.020  13.311 -0.1070 -0.2283  0.3372
13382TIP3   OH261636   5.683   4.382  10.277 -0.3932  0.2907  0.5499
13382TIP3    H161637   5.610   4.330  10.244  0.0124 -0.0060  0.1221
13382TIP3    H261638   5.647   4.471  10.286 -0.7364  0.1955  0.1232
13383TIP3   OH261639   3.031   2.055  13.464 -0.0611 -0.2106 -0.1565
13383TIP3    H161640   3.041   2.089  13.375  0.1358 -0.2476 -0.1493
13383TIP3    H261641   3.060   1.964  13.459 -1.6776 -0.7492 -0.4341
13384TIP3   OH261642   5.389   3.229   5.208  0.2491 -0.3385 -0.5631
13384TIP3    H161643   5.305   3.275   5.215  0.3744 -0.2531  0.4677
13384TIP3    H261644   5.366   3.136   5.205  0.1162 -0.3103 -0.3812
13385TIP3   OH261645   1.913   6.078   3.338  0.4734 -0.0549  0.2537
13385TIP3    H161646   2.000   6.099   3.303  0.0367  0.5175 -0.5260
13385TIP3    H261647   1.895   5.990   3.307  0.0192  0.5067 -1.1564
13386TIP3   OH261648   0.612   3.294  15.430 -0.2723 -0.0127  0.0138
13386TIP3    H161649   0.695   3.273  15.388 -0.2747 -0.9040  0.4491
13386TIP3    H261650   0.564   3.343  15.364  0.1560 -0.4567 -0.6355
13387TIP3   OH261651   1.197   0.510  12.267  0.6365  0.2591  0.2776
13387TIP3    H161652   1.128   0.544  12.325  1.7431  1.5289  0.9116
13387TIP3    H261653   1.194   0.415  12.280  0.5838  0.4633  2.1721
13388TIP3   OH261654   3.642   0.438   0.056 -0.2563  0.5104 -0.4253
13388TIP3    H161655   3.732   0.423   0.085 -0.2678 -0.2654 -0.7809
13388TIP3    H261656   3.603   0.491   0.126  1.0284  2.5284 -1.1513
13389TIP3   OH261657   3.248   3.446  16.818  0.5671  0.3317 -0.3357
13389TIP3    H161658   3.342   3.439  16.801  0.5292  2.7170 -2.2519
13389TIP3    H261659   3.225   3.534  16.786 -2.2021  0.0718  0.6688
13390TIP3   OH261660   5.871   4.568   1.115 -0.2206 -0.3790 -0.1756
13390TIP3    H161661   5.954   4.533   1.085  1.5124  2.8434  0.4311
13390TIP3    H261662   5.851   4.517   1.194  0.6721 -1.7835 -0.8204
13391TIP3   OH261663   5.256   6.162  12.124 -0.1555  0.3868  0.2202
13391TIP3    H161664   5.332   6.106  12.134 -0.0458  0.5172  0.1097
13391TIP3    H261665   5.182   6.101  12.119 -0.0236  0.2432 -0.0379
13392TIP3   OH261666   2.519   3.648   1.669 -0.1001 -0.2889  0.7163
13392TIP3    H161667   2.446   3.709   1.675 -0.3680 -0.7450  2.7780
13392TIP3    H261668   2.478   3.561   1.675  0.2864 -0.7381 -1.9912
13393TIP3   OH261669   4.073   3.894   1.105  0.1733  1.0546  0.1257
13393TIP3    H161670   4.129   3.818   1.087 -0.3351  0.9577 -1.2060
13393TIP3    H261671   4.097   3.957   1.037 -1.3332  0.9866 -0.5062
13394TIP3   OH261672   0.093   6.588  16.543  0.5679  0.5288  0.6132
13394TIP3    H161673   0.090   6.647  16.468  0.5815  0.3647  0.4828
13394TIP3    H261674   0.186   6.568  16.555  0.3629 -2.6267 -1.8407
13395TIP3   OH261675   1.875   3.836  11.777 -0.5466  0.0542  0.1515
13395TIP3    H161676   1.901   3.813  11.866 -0.1760  0.1437  0.0671
13395TIP3    H261677   1.956   3.866  11.736 -0.6200 -0.4368 -0.3589
13396TIP3   OH261678   2.281   5.205  15.295 -0.3073 -0.9557 -0.2458
13396TIP3    H161679   2.203   5.165  15.256  0.7898 -2.7251 -0.7700
13396TIP3    H261680   2.282   5.172  15.385 -0.6150 -0.2257  0.0310
13397TIP3   OH261681   3.929   4.662  13.560 -0.0682  0.0445 -0.0977
13397TIP3    H161682   3.997   4.598  13.580 -0.8499 -2.0057 -3.2974
13397TIP3    H261683   3.969   4.720  13.495 -0.8178 -0.2067 -0.8072
13398TIP3   OH261684   5.139   4.705   3.139 -0.1388 -0.1646 -0.5427
13398TIP3    H161685   5.068   4.701   3.074  0.4012 -0.1360 -1.1383
13398TIP3    H261686   5.192   4.779   3.112  0.0708 -0.1292 -0.0397
13399TIP3   OH261687   3.916   5.617  15.274  0.4442 -0.2962  0.3514
13399TIP3    H161688   3.882   5.571  15.351 -0.7825 -1.4167 -0.7828
13399TIP3    H261689   3.868   5.700  15.272  0.1755 -0.4424  0.5905
13400TIP3   OH261690   6.216   3.599  14.190 -0.6376  0.1467  1.0929
13400TIP3    H161691   6.266   3.551  14.124  0.3676  0.5686  1.5160
13400TIP3    H261692   6.266   3.587  14.271  0.1430  2.5631  1.0574
13401TIP3   OH261693   6.395   6.172  16.192 -0.1322 -0.0092 -0.4634
13401TIP3    H161694   6.352   6.137  16.114 -0.1766 -0.2163 -0.3458
13401TIP3    H261695   6.327   6.171  16.260  0.1588 -0.7119 -0.1703
13402TIP3   OH261696   3.229   6.280  16.286  0.2897 -0.4158 -0.1722
13402TIP3    H161697   3.244   6.274  16.380  0.1510  0.8998 -0.0415
13402TIP3    H261698   3.278   6.357  16.258 -0.4657 -0.2101 -0.9969
13403TIP3   OH261699   3.520   6.474   6.313  0.7409  0.4452 -0.3118
13403TIP3    H161700   3.593   6.424   6.349  1.1043  0.5464 -0.9035
13403TIP3    H261701   3.530   6.562   6.349  1.9433  0.9425 -1.7744
13404TIP3   OH261702   3.375   0.567   2.629 -0.4209 -0.0686  0.3549
13404TIP3    H161703   3.385   0.474   2.610  2.7038 -0.1185  1.6908
13404TIP3    H261704   3.443   0.609   2.577 -1.6509  1.5002 -0.0653
13405TIP3   OH261705   0.301   3.898  16.132  0.1324 -0.0218  0.1948
13405TIP3    H161706   0.259   3.827  16.181 -0.1366  0.5863  0.8777
13405TIP3    H261707   0.357   3.854  16.068 -0.3794 -0.8431  0.2984
13406TIP3   OH261708   1.789   2.423   4.483 -0.0576 -0.2939 -0.3236
13406TIP3    H161709   1.788   2.376   4.566 -2.2687 -0.0737 -0.1720
13406TIP3    H261710   1.811   2.513   4.506  0.5739 -0.4959 -0.1402
13407TIP3   OH261711   0.507   4.250   0.368  0.4885  0.0407 -0.2174
13407TIP3    H161712   0.518   4.161   0.332  1.3743 -0.0494  0.2600
13407TIP3    H261713   0.596   4.284   0.375  0.3519  0.0380  1.9514
13408TIP3   OH261714   5.836   4.390   1.313  0.6700  0.4299  0.0192
13408TIP3    H161715   5.758   4.340   1.288  0.5289  0.3096  0.6780
13408TIP3    H261716   5.871   4.344   1.389  0.7390  1.1144  0.4170
13409TIP3   OH261717   5.699   0.307  14.945  0.4227  0.5364 -0.2960
13409TIP3    H161718   5.672   0.231  14.892 -0.4841 -0.1511  1.0988
13409TIP3    H261719   5.695   0.276  15.035  2.2865  1.5797  0.1997
13410TIP3   OH261720   0.253   6.509   3.949 -0.2208  0.2466  0.2063
13410TIP3    H161721   0.340   6.471   3.938  0.5016  2.0547 -0.8320
13410TIP3    H261722   0.193   6.443   3.916  0.8727 -0.4681 -0.4154
13411TIP3   OH261723   2.244   1.004   0.432 -0.1731 -0.6123  0.2614
13411TIP3    H161724   2.194   1.072   0.476  0.4626  0.5579 -0.7598
13411TIP3    H261725   2.195   0.986   0.351 -0.2005 -1.2014  0.3988
13412TIP3   OH261726   1.563   6.597  11.539 -0.0569  0.0160 -0.4642
13412TIP3    H161727   1.657   6.580  11.537  0.3741  2.1175 -0.2026
13412TIP3    H261728   1.550   6.658  11.612 -1.2873  1.4038 -1.7565
13413TIP3   OH261729   4.434   4.561  13.651  0.1227 -0.2646 -0.1729
13413TIP3    H161730   4.415   4.590  13.740  1.2470  0.3211 -0.1035
13413TIP3    H261731   4.506   4.619  13.622 -1.5460  0.9296 -2.2012
13414TIP3   OH261732   3.663   2.432  11.292 -0.1007 -0.1108 -0.0497
13414TIP3    H161733   3.661   2.397  11.203  0.0714  1.5237 -0.7245
13414TIP3    H261734   3.583   2.482  11.300  0.6637  1.1300  0.1138
13415TIP3   OH261735   3.311   4.799   4.134 -0.2967 -0.0505  0.5960
13415TIP3    H161736   3.398   4.828   4.160 -0.0873 -0.4979  0.4063
13415TIP3    H261737   3.278   4.751   4.210 -0.2893 -0.0691  0.5873
13416TIP3   OH261738   6.053   2.292  15.757  0.7895 -0.6791 -0.3555
13416TIP3    H161739   6.033   2.335  15.840 -0.0027 -0.9714 -0.3921
13416TIP3    H261740   6.062   2.200  15.779 -0.0121 -0.8438 -0.6810
13417TIP3   OH261741   2.986   0.417   6.183  0.2887 -0.3040 -0.2511
13417TIP3    H161742   3.060   0.472   6.156 -0.6225  1.4005  0.5856
13417TIP3    H261743   2.909   0.464   6.152 -0.4849 -2.2407 -1.4242
13418TIP3   OH261744   5.266   4.744  11.469  0.3499 -0.6144  0.0925
13418TIP3    H161745   5.302   4.809  11.408  1.1552 -1.4623 -0.3505
13418TIP3    H261746   5.290   4.660  11.431 -2.7509 -1.3117 -0.6896
13419TIP3   OH261747   6.080   3.958  16.469 -0.1621 -0.3517 -0.3928
13419TIP3    H161748   6.025   3.882  16.486 -1.6677  1.1246  1.8453
13419TIP3    H261749   6.120   3.940  16.384 -2.0280 -2.7019 -0.8780
13420TIP3   OH261750   5.010   0.949  13.447  0.0899 -0.1713  0.1593
13420TIP3    H161751   5.034   0.869  13.400 -1.9103 -1.5276  1.2910
13420TIP3    H261752   5.023   0.926  13.540  0.1765  1.0745  0.4672
13421TIP3   OH261753   0.829   1.042   3.730 -0.0964 -0.4346  0.4979
13421TIP3    H161754   0.907   1.093   3.753 -0.7697  0.5066  0.7613
13421TIP3    H261755   0.855   0.951   3.744  1.1699 -0.1854 -0.0706
13422TIP3   OH261756   1.556   6.630   2.634 -0.0137 -0.4584  0.3652
13422TIP3    H161757   1.617   6.606   2.564  0.6584 -1.5523  1.2973
13422TIP3    H261758   1.475   6.585   2.611 -0.6885  1.3621 -1.1234
13423TIP3   OH261759   4.680   4.125  15.001 -0.1392  0.1081  0.8519
13423TIP3    H161760   4.605   4.114  14.942  1.1756 -2.2514 -0.5101
13423TIP3    H261761   4.700   4.219  14.996 -1.4169  0.3385 -0.7790
13424TIP3   OH261762   6.566   2.816   6.239  0.2662 -0.6128 -0.2120
13424TIP3    H161763   6.585   2.905   6.269  2.0055 -1.4725  1.3782
13424TIP3    H261764   6.492   2.788   6.292  0.9493 -0.7893  0.6595
13425TIP3   OH261765   2.582   3.061  13.011 -0.1547  0.1212  0.2180
13425TIP3    H161766   2.513   3.057  13.078 -0.4593 -0.1750 -0.1083
13425TIP3    H261767   2.569   3.145  12.968 -0.3483  0.0423  0.1210
13426TIP3   OH261768   5.443   5.121  12.841 -0.0277  0.3702 -0.1940
13426TIP3    H161769   5.428   5.068  12.919  0.4931  1.3804  0.6051
13426TIP3    H261770   5.484   5.061  12.779 -1.1743 -0.6545 -0.0022
13427TIP3   OH261771   0.009   5.159  14.403 -0.2423 -0.0512 -0.3823
13427TIP3    H161772   0.024   5.174  14.497 -1.5267 -1.7890  0.1399
13427TIP3    H261773  -0.027   5.242  14.371 -0.8440  0.2097  0.9070
13428TIP3   OH261774   1.868   1.620  11.694  0.1656 -0.1336 -0.5459
13428TIP3    H161775   1.807   1.677  11.740  0.4914 -0.7750  0.7050
13428TIP3    H261776   1.827   1.534  11.695  1.7546 -0.9712  1.8036
13429TIP3   OH261777   5.896   5.705   0.565  0.3791 -0.3096 -0.3034
13429TIP3    H161778   5.822   5.765   0.549  0.2271 -0.7718 -1.3932
13429TIP3    H261779   5.928   5.683   0.478  1.2361 -0.8298  0.1375
13430TIP3   OH261780   2.835   6.532  16.764  0.1161 -0.1752 -0.5220
13430TIP3    H161781   2.887   6.612  16.764  1.7406 -1.1959 -0.7916
13430TIP3    H261782   2.746   6.562  16.745  1.0103  1.3780 -2.7338
13431TIP3   OH261783   4.399   5.832  13.234  0.4291 -0.0396 -0.4077
13431TIP3    H161784   4.390   5.895  13.162  1.1581  1.8297  1.0688
13431TIP3    H261785   4.443   5.757  13.194  2.0669  1.4905 -1.6508
13432TIP3   OH261786   4.414   5.737   4.018  0.2520 -0.6151 -0.3036
13432TIP3    H161787   4.455   5.783   4.092  2.1827 -1.6734 -0.6316
13432TIP3    H261788   4.357   5.802   3.978  1.0198  0.7324  0.6889
13433TIP3   OH261789   6.087   6.776   0.761  0.1403  0.2235  0.3337
13433TIP3    H161790   6.090   6.869   0.739  1.0751  0.5185  1.6039
13433TIP3    H261791   6.069   6.733   0.678 -0.8664  1.5635 -0.1898
13434TIP3   OH261792   6.297   3.275   3.101  0.4876  0.6293 -0.3123
13434TIP3    H161793   6.220   3.254   3.155 -0.1353  0.9375 -1.0648
13434TIP3    H261794   6.289   3.369   3.084  1.6227  0.8939  0.4922
13435TIP3   OH261795   3.715   2.296   1.889  0.5709 -0.5630 -0.0539
13435TIP3    H161796   3.746   2.382   1.858  2.5768 -1.1218  0.2742
13435TIP3    H261797   3.703   2.245   1.809 -0.3309 -0.0987 -0.2318
13436TIP3   OH261798   1.181   2.302   4.767 -0.6438 -0.2738  0.4508
13436TIP3    H161799   1.108   2.241   4.779  0.5677 -1.5096  1.9919
13436TIP3    H261800   1.222   2.274   4.685 -0.8484 -0.7187  0.4962
13437TIP3   OH261801   4.072   3.040   3.035  0.5545  0.5524  0.2681
13437TIP3    H161802   4.014   3.109   3.001  0.2013  0.3677  0.4863
13437TIP3    H261803   4.013   2.966   3.053  0.8851  0.2993  0.3279
13438TIP3   OH261804   5.295   6.170   4.109  0.0784  0.0935  0.2771
13438TIP3    H161805   5.313   6.151   4.017 -1.2054  0.0328  0.0252
13438TIP3    H261806   5.220   6.229   4.107  0.0285  0.0757  1.2872
13439TIP3   OH261807   0.838   5.366  13.102  0.3627  0.2032 -0.2062
13439TIP3    H161808   0.758   5.340  13.055 -0.7477  0.0953  1.6101
13439TIP3    H261809   0.841   5.306  13.177  1.2757  1.2447  0.6126
13440TIP3   OH261810   0.333   2.304  13.513  0.1899 -0.0678 -0.1001
13440TIP3    H161811   0.310   2.321  13.604 -1.7712 -1.2296 -0.3291
13440TIP3    H261812   0.393   2.230  13.516 -1.9258 -1.8518  0.1576
13441TIP3   OH261813   2.385   1.653   2.953 -0.2398 -0.1686  0.2660
13441TIP3    H161814   2.375   1.704   2.872 -0.0911 -1.6444 -0.7093
13441TIP3    H261815   2.313   1.590   2.951  0.7020 -1.2784  0.4664
13442TIP3   OH261816   2.735   2.424  16.203 -0.0443  0.2470 -0.5548
13442TIP3    H161817   2.673   2.478  16.252 -0.1119  0.0961 -0.4732
13442TIP3    H261818   2.718   2.335  16.233 -0.5368  0.0739 -1.3250
13443TIP3   OH261819   3.717   6.275   1.932  0.0563  0.6815 -0.2544
13443TIP3    H161820   3.729   6.345   1.868  0.6063 -0.3828 -1.3475
13443TIP3    H261821   3.706   6.321   2.015 -0.0607  2.0779 -1.0091
13444TIP3   OH261822   2.625   6.198  14.379 -0.5437  0.1120  0.3624
13444TIP3    H161823   2.588   6.110  14.374 -0.6949  0.2541 -1.4609
13444TIP3    H261824   2.553   6.253  14.408 -0.9467 -0.0882 -0.2503
13445TIP3   OH261825   0.428   0.196  12.647 -0.2272  0.2082 -0.6384
13445TIP3    H161826   0.481   0.227  12.573 -0.5304  2.6788  0.0829
13445TIP3    H261827   0.340   0.187  12.611 -0.1712  0.3993 -0.8317
13446TIP3   OH261828   5.921   4.082  13.761  0.2806 -0.5240 -0.0637
13446TIP3    H161829   6.015   4.064  13.749 -0.3320 -3.4654 -1.5813
13446TIP3    H261830   5.909   4.085  13.856  1.6605 -1.9502  0.1993
13447TIP3   OH261831   4.029   5.662  14.077 -0.4065  0.3605 -0.3139
13447TIP3    H161832   4.091   5.728  14.045 -0.2408 -0.1223 -1.0010
13447TIP3    H261833   4.046   5.585  14.023 -1.3828  0.1195 -0.2830
13448TIP3   OH261834   0.580   5.526   5.914 -0.0882  0.3371 -0.0521
13448TIP3    H161835   0.623   5.513   5.998  0.3212 -2.3618 -0.5822
13448TIP3    H261836   0.650   5.555   5.855 -0.0387  0.6486  0.1561
13449TIP3   OH261837   1.843   2.474   0.111 -0.0197  0.4177 -0.4234
13449TIP3    H161838   1.869   2.502   0.199  0.9043 -3.2533  0.6748
13449TIP3    H261839   1.749   2.489   0.108  0.2098  2.2974  0.4296
13450TIP3   OH261840   3.406   2.988   3.723  0.4967 -0.2817  0.1437
13450TIP3    H161841   3.432   2.900   3.698 -0.5791 -0.2577 -1.1968
13450TIP3    H261842   3.316   2.979   3.753  0.5321  0.2930  0.4361
13451TIP3   OH261843   2.725   1.633   6.024 -0.9365  0.2556  0.2314
13451TIP3    H161844   2.726   1.632   5.929  0.6557 -1.4784  0.2028
13451TIP3    H261845   2.635   1.611   6.048 -1.0804 -0.4216 -0.8811
13452TIP3   OH261846   1.325   4.463  11.916  0.1447  0.2888  0.0504
13452TIP3    H161847   1.395   4.443  11.978 -1.1481 -0.2474  1.4099
13452TIP3    H261848   1.299   4.378  11.880  1.5416  0.6829 -2.0443
13453TIP3   OH261849   4.793   0.754  13.300  0.2676  0.4728 -0.0625
13453TIP3    H161850   4.819   0.786  13.386  1.5786 -1.3039  0.2459
13453TIP3    H261851   4.875   0.736  13.254 -0.4013  1.7640 -1.8701
13454TIP3   OH261852   4.809   2.080   4.675 -0.1445 -0.1586 -0.1634
13454TIP3    H161853   4.889   2.030   4.657  0.5585  0.7298  0.4269
13454TIP3    H261854   4.739   2.026   4.639  0.9282  0.3053 -3.3609
13455TIP3   OH261855   4.608   2.494   2.807  0.0526 -0.2651  0.2838
13455TIP3    H161856   4.601   2.411   2.854 -2.0876 -2.4288 -3.3900
13455TIP3    H261857   4.553   2.555   2.856  1.2996 -1.0350  2.8108
13456TIP3   OH261858   3.968   2.765  16.206  0.4548  0.1131 -0.0103
13456TIP3    H161859   4.020   2.813  16.142  0.4779 -1.2973 -1.0760
13456TIP3    H261860   3.883   2.808  16.205  0.3481 -0.1051 -1.2500
13457TIP3   OH261861   4.468   1.983  11.952 -0.2594  0.0512 -0.0517
13457TIP3    H161862   4.526   2.030  11.891 -0.1157  0.0569  0.0899
13457TIP3    H261863   4.381   1.997  11.916 -0.1598 -0.1051 -0.3661
13458TIP3   OH261864   6.845   0.947  16.587  0.1507 -0.0405 -0.0572
13458TIP3    H161865   6.802   0.943  16.672 -1.9549 -0.2648 -1.0690
13458TIP3    H261866   6.853   1.041  16.569 -2.3313  0.0782 -0.9365
13459TIP3   OH261867   3.960   4.012  15.997  0.1429 -0.3147  0.0238
13459TIP3    H161868   4.017   4.025  15.921  1.0529  1.4159  0.9478
13459TIP3    H261869   3.924   4.099  16.016  1.3921 -0.2873  2.6676
13460TIP3   OH261870   4.713   0.007  13.814 -0.2324 -0.3650  0.0397
13460TIP3    H161871   4.755   0.087  13.845 -0.0195 -0.2546 -0.5152
13460TIP3    H261872   4.724  -0.055  13.885  0.5514 -0.2246  0.0440
13461TIP3   OH261873   6.537   5.422   1.457  0.5762  0.2450 -0.1864
13461TIP3    H161874   6.496   5.501   1.490  0.9725  0.4912 -0.2752
13461TIP3    H261875   6.609   5.405   1.517  0.1824 -0.3433  0.1341
13462TIP3   OH261876   3.507   1.093  15.182  1.2888 -0.1130  0.2973
13462TIP3    H161877   3.469   1.180  15.175  0.3781 -0.6227 -2.1368
13462TIP3    H261878   3.586   1.105  15.236  0.0399  1.7555  1.8486
13463TIP3   OH261879   1.172   2.320   1.126  0.0854 -0.7076  0.3281
13463TIP3    H161880   1.171   2.410   1.096 -0.1702 -0.8439 -0.0748
13463TIP3    H261881   1.093   2.281   1.089  0.5995 -1.3063 -0.1585
13464TIP3   OH261882   5.767   4.919  15.460  0.1760 -0.2113  0.0274
13464TIP3    H161883   5.804   4.998  15.498  0.8380  0.2430 -1.4949
13464TIP3    H261884   5.688   4.948  15.415  0.3953 -0.4287 -0.4975
13465TIP3   OH261885   0.759   1.944  16.073 -0.2968  0.0803 -0.2069
13465TIP3    H161886   0.769   1.940  15.978 -1.2836 -0.2071 -0.3093
13465TIP3    H261887   0.704   2.022  16.088 -0.3569 -0.0212  0.1092
13466TIP3   OH261888   1.267   0.471  11.192  0.1219 -0.5676  0.4223
13466TIP3    H161889   1.222   0.418  11.257  1.5099 -0.5977  1.3888
13466TIP3    H261890   1.304   0.408  11.130 -0.9565 -0.5495 -0.2766
13467TIP3   OH261891   1.078   3.268   0.241 -0.0257  0.0498  0.8333
13467TIP3    H161892   1.100   3.278   0.148  0.9107  3.5549  1.3019
13467TIP3    H261893   1.156   3.229   0.280 -0.2876 -1.1011  0.2708
13468TIP3   OH261894   6.707   6.346  15.449 -0.9800 -0.2358  0.5204
13468TIP3    H161895   6.771   6.410  15.478 -0.9579  0.3015 -0.6386
13468TIP3    H261896   6.662   6.318  15.528  1.1502 -1.1630  1.4794
13469TIP3   OH261897   0.854   2.708  16.760  0.3824  0.4635  0.1643
13469TIP3    H161898   0.861   2.630  16.814  1.1485 -1.5120 -2.5397
13469TIP3    H261899   0.944   2.734  16.742  0.2822 -0.3402 -1.8717
13470TIP3   OH261900   3.832   1.596   0.961 -0.3220  0.4398 -0.6601
13470TIP3    H161901   3.839   1.514   0.912 -1.1784  0.9785 -1.7104
13470TIP3    H261902   3.758   1.581   1.020  0.8606 -0.2975  0.7033
13471TIP3   OH261903   2.019   5.747  11.424 -0.1755 -0.6490 -0.6329
13471TIP3    H161904   2.043   5.715  11.336  0.8007 -1.8065  0.0231
13471TIP3    H261905   1.986   5.670  11.469 -0.4009 -0.1185  0.1099
13472TIP3   OH261906   1.017   1.300   0.314  0.3052 -0.2204  0.5005
13472TIP3    H161907   0.938   1.276   0.363  1.4283 -1.3889  1.8237
13472TIP3    H261908   1.035   1.225   0.258  2.6695 -1.8378  3.1535
13473TIP3   OH261909   2.338   0.273   2.968  0.6491 -0.3092  0.0277
13473TIP3    H161910   2.419   0.232   2.997  1.5999  1.1381 -0.4887
13473TIP3    H261911   2.358   0.367   2.965 -0.8647  0.0202 -0.6730
13474TIP3   OH261912   1.846   0.413  12.309 -0.7539 -0.2008 -0.3565
13474TIP3    H161913   1.800   0.457  12.380  1.1384  0.0110  0.8123
13474TIP3    H261914   1.899   0.346  12.353  1.6042  0.9187 -1.3639
13475TIP3   OH261915   5.967   0.866   0.224 -0.0612  0.0865 -0.1222
13475TIP3    H161916   5.891   0.895   0.175 -1.7297  0.4966  2.5196
13475TIP3    H261917   5.977   0.774   0.199 -0.5598  0.3682 -1.4848
13476TIP3   OH261918   1.831   5.450   2.343 -0.1347  0.2713  0.2984
13476TIP3    H161919   1.752   5.412   2.380 -0.3260 -0.7869 -1.1050
13476TIP3    H261920   1.875   5.493   2.416 -0.4188 -1.8208  1.7600
13477TIP3   OH261921   4.524   1.736  15.854 -0.1159 -0.1686 -0.3569
13477TIP3    H161922   4.583   1.698  15.789 -1.2258  1.6287 -2.5635
13477TIP3    H261923   4.543   1.829  15.853  1.5722 -0.2572  3.9015
13478TIP3   OH261924   5.875   5.606  12.494  0.4375  0.4485 -0.4655
13478TIP3    H161925   5.938   5.666  12.533  0.5565  0.3351 -0.4821
13478TIP3    H261926   5.927   5.529  12.470  1.0062  1.6196 -3.5418
13479TIP3   OH261927   0.176   6.338  15.494  0.3263 -0.4623 -0.3622
13479TIP3    H161928   0.270   6.334  15.510  0.3510 -0.1779 -0.4389
13479TIP3    H261929   0.145   6.248  15.510  0.2646 -0.0998  1.7709
13480TIP3   OH261930   0.146   1.157  15.635  0.7021  0.0421  0.6101
13480TIP3    H161931   0.131   1.070  15.599  0.8606  0.2202  0.1062
13480TIP3    H261932   0.236   1.153  15.668  0.1553 -0.5055  2.1292
13481TIP3   OH261933   1.909   5.803  13.825  0.0123 -0.0208  0.7384
13481TIP3    H161934   1.846   5.732  13.813  0.4704  0.0114 -3.4553
13481TIP3    H261935   1.874   5.875  13.773  2.0765  0.9835  0.6472
13482TIP3   OH261936   0.819   3.070  10.737 -0.5376 -0.0122  0.1614
13482TIP3    H161937   0.840   3.028  10.821 -2.9127 -0.9040  0.3874
13482TIP3    H261938   0.888   3.040  10.678  0.6258 -0.1728  1.5302
13483TIP3   OH261939   6.000   4.537  11.052 -0.3018  0.9113 -0.1455
13483TIP3    H161940   6.037   4.522  10.965  0.7164  0.3750  0.3694
13483TIP3    H261941   6.072   4.572  11.103 -0.3903 -0.4566  0.9641
13484TIP3   OH261942   0.978   1.893   4.038  0.3911 -0.4127 -0.3382
13484TIP3    H161943   0.889   1.888   4.072  1.2483 -0.7799  2.0948
13484TIP3    H261944   0.972   1.951   3.963 -1.6490  0.8947  0.7289
13485TIP3   OH261945   3.322   2.175  11.919  0.2070  0.3316 -0.0692
13485TIP3    H161946   3.277   2.258  11.904  3.8383  2.3726 -0.9345
13485TIP3    H261947   3.292   2.148  12.006 -0.6847  2.8877  0.5295
13486TIP3   OH261948   0.437   5.181  15.858  0.5311  0.1466 -0.3387
13486TIP3    H161949   0.483   5.183  15.774 -0.2686 -1.2612 -0.8496
13486TIP3    H261950   0.375   5.253  15.853 -1.2501 -1.3647 -2.0669
13487TIP3   OH261951   5.735   6.111  13.760  0.0553 -0.7644  0.5095
13487TIP3    H161952   5.795   6.132  13.689  1.0740  0.7536  1.7716
13487TIP3    H261953   5.648   6.125  13.722  0.5117 -1.2774 -0.8059
13488TIP3   OH261954   0.216   6.347   5.884 -0.1710  0.2131 -0.2588
13488TIP3    H161955   0.310   6.365   5.882 -0.2127  0.7053  1.4219
13488TIP3    H261956   0.208   6.257   5.852  0.9941 -0.2832  0.7944
13489TIP3   OH261957   6.044   1.077   5.950 -0.3102  0.4069 -0.0641
13489TIP3    H161958   5.979   1.029   5.898  0.8602  0.0019 -1.1878
13489TIP3    H261959   6.053   1.026   6.030  0.1751 -0.7317 -0.8135
13490TIP3   OH261960   0.863   0.960   5.105  0.3366  0.5905  0.2147
13490TIP3    H161961   0.951   0.975   5.140  0.3875  1.5491 -0.3058
13490TIP3    H261962   0.806   0.958   5.182  0.6989  0.8073  0.4916
13491TIP3   OH261963   1.319   1.724   2.350  0.3654 -0.1123  0.2923
13491TIP3    H161964   1.247   1.696   2.294 -0.2967 -0.2412  1.1848
13491TIP3    H261965   1.295   1.812   2.377 -0.2621 -0.7349  1.8652
13492TIP3   OH261966   2.592   4.328  10.556  0.1965 -0.2872 -0.3339
13492TIP3    H161967   2.659   4.384  10.596 -2.2734  0.8351  2.6689
13492TIP3    H261968   2.534   4.390  10.510 -0.5017 -0.8488 -0.2216
13493TIP3   OH261969   0.631   4.214   3.468  0.1974  0.5167 -0.2815
13493TIP3    H161970   0.565   4.282   3.482 -0.7625 -0.4398  0.0891
13493TIP3    H261971   0.677   4.208   3.551  0.5192  0.9546 -0.4288
13494TIP3   OH261972   2.601   2.090  16.814 -0.0955  0.3344  0.1386
13494TIP3    H161973   2.512   2.058  16.800 -0.1275 -0.2037  1.3693
13494TIP3    H261974   2.648   2.069  16.733 -1.2854  1.4416 -0.8796
13495TIP3   OH261975   4.130   2.258   2.358  0.0433  0.2034  0.3385
13495TIP3    H161976   4.123   2.353   2.346 -0.5302  0.1251  0.0031
13495TIP3    H261977   4.062   2.236   2.421 -2.3958 -0.4476 -2.2998
13496TIP3   OH261978   3.603   5.504  13.850 -0.1136  0.0383 -0.1305
13496TIP3    H161979   3.659   5.581  13.857 -0.4107  0.4894 -2.0329
13496TIP3    H261980   3.522   5.537  13.810 -1.6807 -0.6579  2.2459
13497TIP3   OH261981   6.808   1.649   2.888 -0.1340 -0.0073 -0.0635
13497TIP3    H161982   6.760   1.566   2.886  0.0489 -0.1090 -0.2502
13497TIP3    H261983   6.817   1.669   2.981 -0.1152 -0.2356 -0.0162
13498TIP3   OH261984   1.689   2.848   4.027 -0.6217 -0.1589 -0.1863
13498TIP3    H161985   1.668   2.761   4.061 -1.5214  0.2497  0.3485
13498TIP3    H261986   1.728   2.894   4.102  0.3900 -0.2728 -0.6253
13499TIP3   OH261987   5.924   3.984   2.675  0.0211  0.2990 -0.1984
13499TIP3    H161988   5.967   3.980   2.589 -0.3105  0.0725 -0.3561
13499TIP3    H261989   5.889   4.073   2.680  2.2237  1.1981  0.7826
13500TIP3   OH261990   1.938   4.805   2.280  0.1991  0.1116  0.0311
13500TIP3    H161991   1.911   4.763   2.361  0.1151  0.5748  0.2489
13500TIP3    H261992   1.883   4.766   2.213 -1.6250  1.5828  0.5714
13501TIP3   OH261993   5.365   2.925  16.240  0.0149  0.0225 -0.0360
13501TIP3    H161994   5.278   2.886  16.253  0.8778 -1.9994  0.0913
13501TIP3    H261995   5.400   2.934  16.328  1.1937 -2.3442 -0.2006
13502TIP3   OH261996   4.814   4.882   0.114 -0.0892  0.3955 -0.9798
13502TIP3    H161997   4.876   4.844   0.052  1.0384  0.5548  0.0201
13502TIP3    H261998   4.818   4.976   0.099 -1.7525  0.2873 -2.4080
13503TIP3   OH261999   3.157   4.223  17.015 -0.3559  0.1344  0.2432
13503TIP3    H162000   3.141   4.297  17.075  0.7056 -0.1961  0.9590
13503TIP3    H262001   3.201   4.262  16.940  0.0196  0.2741  0.5308
13504TIP3   OH262002   5.798   5.344   3.282 -0.3018  0.0224 -0.1005
13504TIP3    H162003   5.796   5.330   3.376 -2.3177  0.7619  0.0314
13504TIP3    H262004   5.793   5.256   3.245 -1.4315 -0.2004  0.5324
13505TIP3   OH262005   6.308   5.175   4.979 -0.4867  0.1729 -0.0584
13505TIP3    H162006   6.364   5.158   4.904  1.2516  1.2439  0.9390
13505TIP3    H262007   6.275   5.088   5.004  2.7437 -0.9368  0.8292
13506TIP3   OH262008   5.725   0.567   2.046  0.3790  0.0394  0.5102
13506TIP3    H162009   5.645   0.581   1.996 -0.4185  1.5946  2.1063
13506TIP3    H262010   5.790   0.623   2.005  0.3850 -0.4656 -0.1804
13507TIP3   OH262011   6.442   3.333   2.288 -0.0418 -0.1156 -0.0829
13507TIP3    H162012   6.477   3.254   2.328 -0.9762 -0.2883  0.4059
13507TIP3    H262013   6.367   3.357   2.342 -1.2976 -0.3203 -1.6625
13508TIP3   OH262014   1.568   2.261  16.605 -0.4268  0.3152  0.1554
13508TIP3    H162015   1.486   2.280  16.558 -0.6217  1.2522  0.8528
13508TIP3    H262016   1.637   2.297  16.549 -0.0931 -3.2873 -2.0985
13509TIP3   OH262017   0.808   4.317   5.821  0.2534 -0.1935  0.0271
13509TIP3    H162018   0.891   4.352   5.850  0.8395  0.1406 -1.8986
13509TIP3    H262019   0.810   4.225   5.846  0.9752 -0.0580  0.4613
13510TIP3   OH262020   1.389   1.893  14.551 -0.2380  0.1999  0.0323
13510TIP3    H162021   1.416   1.983  14.570 -0.8151  0.3960 -0.0687
13510TIP3    H262022   1.459   1.839  14.588 -0.8378  0.6000  1.8572
13511TIP3   OH262023   0.073   6.419   2.913 -0.3064  0.0658 -0.0551
13511TIP3    H162024   0.010   6.487   2.887  1.4274  1.5289 -0.6792
13511TIP3    H262025   0.063   6.412   3.008 -1.0877  0.6018 -0.0875
13512TIP3   OH262026   5.481   6.232  15.191 -0.2755 -0.6615 -0.1419
13512TIP3    H162027   5.485   6.138  15.209  0.0847 -0.8846 -1.2723
13512TIP3    H262028   5.429   6.238  15.111 -0.2833  0.1004 -0.0823
13513TIP3   OH262029   4.444   5.900  13.685 -0.0162 -0.0536  0.3047
13513TIP3    H162030   4.387   5.838  13.731  0.3612 -0.7025 -0.0763
13513TIP3    H262031   4.389   5.935  13.615 -0.5866  0.9247  1.2116
13514TIP3   OH262032   5.887   5.729   1.691 -0.2015  0.5878  0.4412
13514TIP3    H162033   5.815   5.784   1.722 -0.8313  0.9624 -1.5961
13514TIP3    H262034   5.965   5.770   1.728 -0.9219  0.5669  2.1208
13515TIP3   OH262035   0.550   5.990  13.271  0.4378  0.3440 -0.2804
13515TIP3    H162036   0.572   5.901  13.241  2.2953  0.0323  1.7046
13515TIP3    H262037   0.525   6.037  13.191 -0.2256 -1.8379 -1.4434
13516TIP3   OH262038   5.587   1.913   2.262 -0.4001 -0.0732  0.3556
13516TIP3    H162039   5.675   1.937   2.231  0.1160 -1.1746  0.9184
13516TIP3    H262040   5.599   1.829   2.304 -1.1617  1.1273  3.1746
13517TIP3   OH262041   1.389   3.694   2.938 -0.0332  0.5622  0.1455
13517TIP3    H162042   1.343   3.658   3.014 -0.6864  2.3350  0.6317
13517TIP3    H262043   1.358   3.785   2.932 -0.7117  0.2389 -2.7930
13518TIP3   OH262044   0.483   0.618  15.748 -0.1176  0.3076 -0.3704
13518TIP3    H162045   0.427   0.546  15.719  2.0081 -0.4862 -2.9082
13518TIP3    H262046   0.422   0.690  15.766 -2.4913 -2.2991  3.6180
13519TIP3   OH262047   0.066   2.619  16.150  0.0032  0.1248 -0.3232
13519TIP3    H162048   0.069   2.554  16.080 -1.8528 -1.0991  0.6553
13519TIP3    H262049   0.045   2.569  16.228  0.6768  1.6457  0.8742
13520TIP3   OH262050   3.513   4.093  11.032  0.0455 -0.0208 -0.1080
13520TIP3    H162051   3.484   4.015  11.080 -2.4986  0.9655  0.1643
13520TIP3    H262052   3.575   4.136  11.091  0.1028 -0.9191  0.5024
13521TIP3   OH262053   1.957   5.771   0.836 -0.7462  0.3511 -0.0713
13521TIP3    H162054   1.953   5.824   0.915 -1.1755  0.0132  0.1389
13521TIP3    H262055   2.000   5.828   0.771  0.4252  0.3083  0.6411
13522TIP3   OH262056   3.435   1.580   0.193  0.4843  0.0485 -0.9013
13522TIP3    H162057   3.364   1.519   0.215  0.6673  0.1208 -0.0625
13522TIP3    H262058   3.424   1.652   0.255  0.9519  0.3349 -1.1453
13523TIP3   OH262059   1.395   4.998  15.080 -0.0067 -0.6264 -0.4862
13523TIP3    H162060   1.337   4.984  15.154 -2.3043  2.2612 -1.5264
13523TIP3    H262061   1.408   4.911  15.043 -3.0277 -1.5579  0.3407
13524TIP3   OH262062   5.522   5.955   2.192  0.8588 -0.0023  0.2783
13524TIP3    H162063   5.489   5.879   2.144  0.3167  0.1975  0.3206
13524TIP3    H262064   5.535   5.924   2.281  1.6209 -0.3086  0.0664
13525TIP3   OH262065   5.745   2.691   5.682 -0.1781  0.3807 -0.3723
13525TIP3    H162066   5.826   2.730   5.715 -0.9016  0.6382  1.1807
13525TIP3    H262067   5.724   2.743   5.604  1.3565  0.0285 -1.0568
13526TIP3   OH262068   0.317   4.616   1.105  0.4125  0.4492  0.2469
13526TIP3    H162069   0.369   4.559   1.048  0.4345  1.6341 -0.9426
13526TIP3    H262070   0.345   4.705   1.084 -0.0568  0.9601  1.6448
13527TIP3   OH262071   1.729   5.472   5.668 -0.0868  0.3040 -0.0012
13527TIP3    H162072   1.729   5.378   5.688 -1.1613  0.5330  1.2163
13527TIP3    H262073   1.688   5.478   5.582 -2.8303 -0.1682  1.1601
13528TIP3   OH262074   6.538   2.111  14.529  0.4479  0.3999  0.6383
13528TIP3    H162075   6.548   2.083  14.438 -2.0788  0.5302  0.2462
13528TIP3    H262076   6.458   2.163  14.530  0.6001  0.7137  2.8861
13529TIP3   OH262077   5.649   2.224  15.517 -0.2542 -0.0791 -0.1128
13529TIP3    H162078   5.736   2.217  15.477 -0.6874 -3.0143 -0.7786
13529TIP3    H262079   5.667   2.244  15.609  1.0436  0.6207 -0.4903
13530TIP3   OH262080   0.498   5.364  14.537  0.4330  0.3858  0.2994
13530TIP3    H162081   0.581   5.373  14.583  1.6380  0.4003 -1.7568
13530TIP3    H262082   0.443   5.312  14.595  0.9515  2.4434  2.8303
13531TIP3   OH262083   4.829   4.166  12.860  0.3771 -0.5584 -0.2614
13531TIP3    H162084   4.834   4.151  12.954 -2.0112 -2.3441 -0.3029
13531TIP3    H262085   4.828   4.261  12.851 -0.2892 -0.3394  1.6139
13532TIP3   OH262086   2.400   3.204  11.937 -0.7625  0.1472 -0.4544
13532TIP3    H162087   2.325   3.262  11.948  0.4242  1.6677 -0.1462
13532TIP3    H262088   2.431   3.188  12.026 -0.1529  0.2848 -0.6431
13533TIP3   OH262089   5.994   2.785   3.083 -0.6055  0.2213  0.0030
13533TIP3    H162090   5.984   2.877   3.061 -0.6421  0.7908  2.1525
13533TIP3    H262091   6.077   2.780   3.131 -1.3128 -0.5546  1.2195
13534TIP3   OH262092   5.222   1.130  15.061  0.4512  0.2556 -0.4011
13534TIP3    H162093   5.142   1.121  15.009 -0.7194  2.9476  0.7313
13534TIP3    H262094   5.223   1.054  15.119 -0.3858 -0.6612 -1.5681
13535TIP3   OH262095   0.638   0.378   0.067 -0.3281 -0.1602 -0.4116
13535TIP3    H162096   0.600   0.346   0.149  1.7792  0.6225  0.9775
13535TIP3    H262097   0.660   0.299   0.018 -0.3309 -0.7050  0.4384
13536TIP3   OH262098   1.001   0.727   5.565  0.2922  0.6248  0.6482
13536TIP3    H162099   1.085   0.772   5.556  1.2639 -1.3874 -1.6640
13536TIP3    H262100   0.999   0.696   5.655  1.9466  0.9256  0.8076
13537TIP3   OH262101   1.051   5.046  16.244 -0.3538  0.0730 -0.4667
13537TIP3    H162102   1.024   5.119  16.188  0.5750 -0.2170 -1.3297
13537TIP3    H262103   0.975   4.989  16.247 -0.6225  0.3980 -0.9397
13538TIP3   OH262104   3.248   6.115  11.794  0.2905 -0.0180 -0.1379
13538TIP3    H162105   3.223   6.023  11.808 -0.2296  0.2478  0.7669
13538TIP3    H262106   3.289   6.116  11.708 -0.9659 -0.8516 -0.7688
13539TIP3   OH262107   3.766   5.986  13.226  0.2426  0.5537  0.6609
13539TIP3    H162108   3.795   5.897  13.206 -1.6868  0.2030 -1.0174
13539TIP3    H262109   3.712   5.977  13.304 -0.0487  0.2159  0.4240
13540TIP3   OH262110   4.860   1.606   4.347  0.1629  0.3519 -0.2154
13540TIP3    H162111   4.888   1.549   4.419  0.9386  0.1892 -0.6319
13540TIP3    H262112   4.916   1.581   4.274 -2.2841 -1.3030 -1.6889
13541TIP3   OH262113   2.783   0.231   1.167 -0.3898 -0.0985 -0.7152
13541TIP3    H162114   2.763   0.227   1.261 -0.7815 -0.7601 -0.8235
13541TIP3    H262115   2.722   0.296   1.132  0.7850  1.3257 -0.2704
13542TIP3   OH262116   0.529   3.044  16.069  0.1345  0.3927 -0.4446
13542TIP3    H162117   0.527   3.117  16.007  0.5852 -0.0188 -0.9566
13542TIP3    H262118   0.538   2.966  16.015  1.2440  0.0715  0.1479
13543TIP3   OH262119   0.112   2.972  10.899 -0.3294  0.3713 -0.2233
13543TIP3    H162120   0.051   3.045  10.906  1.2639  1.6426  1.3806
13543TIP3    H262121   0.148   2.978  10.810 -2.5724 -0.5295 -1.2683
13544TIP3   OH262122   4.233   0.761   2.122  0.4752 -0.1383 -1.1141
13544TIP3    H162123   4.272   0.812   2.052 -1.7555  1.8057 -1.0435
13544TIP3    H262124   4.141   0.751   2.097 -0.5090  0.9499  1.6210
13545TIP3   OH262125   6.170   2.577   1.251 -0.7257  0.0909  0.5386
13545TIP3    H162126   6.216   2.493   1.249 -0.8720  0.0039 -1.7208
13545TIP3    H262127   6.104   2.568   1.319 -0.4741 -1.4836  0.5932
13546TIP3   OH262128   0.322   0.214   2.661 -0.3857 -0.2759  0.3615
13546TIP3    H162129   0.382   0.140   2.674  1.1372  0.1985 -2.9992
13546TIP3    H262130   0.236   0.180   2.687  0.4358 -2.8390  0.0348
13547TIP3   OH262131   2.596   3.787   5.577  0.2874 -0.1709  0.5296
13547TIP3    H162132   2.628   3.704   5.543 -0.2216 -0.4684  0.7590
13547TIP3    H262133   2.523   3.763   5.635  0.2014  0.4247  0.6816
13548TIP3   OH262134   5.606   6.500  16.810 -0.2941  0.2997 -0.8028
13548TIP3    H162135   5.547   6.425  16.821 -1.3529  1.2965  0.9153
13548TIP3    H262136   5.611   6.514  16.716 -0.5134 -1.5714 -1.1256
13549TIP3   OH262137   5.899   3.341  12.318 -0.2716 -0.3822  0.2392
13549TIP3    H162138   5.816   3.324  12.273 -2.0697  2.3469  2.2283
13549TIP3    H262139   5.940   3.412  12.269 -0.0735 -0.3776  0.4088
13550TIP3   OH262140   2.242   3.153  11.427 -0.0316 -0.1998 -0.3438
13550TIP3    H162141   2.231   3.186  11.337 -1.4250  0.5151  0.0466
13550TIP3    H262142   2.336   3.138  11.436 -0.0405 -2.1601 -2.5528
13551TIP3   OH262143   3.527   3.900   2.775  0.1445 -0.0751  1.0858
13551TIP3    H162144   3.593   3.958   2.814 -1.7832  2.8540  0.3938
13551TIP3    H262145   3.552   3.894   2.683 -1.5899  3.0070  0.2581
13552TIP3   OH262146   1.448   6.550   2.908  0.2012  0.3002 -0.8745
13552TIP3    H162147   1.356   6.531   2.889 -0.0808  0.8787 -0.1452
13552TIP3    H262148   1.470   6.622   2.849  0.0120  0.5529 -0.6373
13553TIP3   OH262149   2.323   5.827   1.431 -0.2958  0.1863  0.2096
13553TIP3    H162150   2.417   5.835   1.412 -0.6472  0.7357 -1.4758
13553TIP3    H262151   2.303   5.902   1.487  0.4985 -0.6457  1.6648
13554TIP3   OH262152   2.105   5.866  13.587 -0.9083  0.1441 -0.3266
13554TIP3    H162153   2.053   5.786  13.594 -0.4314 -0.0572  1.3446
13554TIP3    H262154   2.135   5.867  13.496 -1.7789 -1.0143 -0.6594
13555TIP3   OH262155   2.267   4.180   3.503 -0.2080  0.2006 -0.2605
13555TIP3    H162156   2.260   4.096   3.459 -0.3504  0.8448 -1.5206
13555TIP3    H262157   2.317   4.235   3.443 -1.9912  1.6614 -0.5197
13556TIP3   OH262158   1.230   2.589  16.517 -0.4233 -0.1854 -0.0206
13556TIP3    H162159   1.151   2.633  16.487  0.2055  0.1321 -1.2849
13556TIP3    H262160   1.295   2.607  16.449  0.6896 -0.5923  0.8968
13557TIP3   OH262161   5.133   6.228   0.728 -0.3639  0.1709 -0.2743
13557TIP3    H162162   5.071   6.293   0.761 -0.9863 -0.2477 -0.6155
13557TIP3    H262163   5.188   6.208   0.804 -2.0351 -1.0787  0.6560
13558TIP3   OH262164   6.125   2.307   3.068 -0.3504 -0.4968 -0.2537
13558TIP3    H162165   6.061   2.307   3.139 -1.5147 -0.3470 -1.2736
13558TIP3    H262166   6.208   2.330   3.111 -1.1714  0.4486  0.9069
13559TIP3   OH262167   3.474   1.911   6.267 -0.6054 -0.0333 -0.0554
13559TIP3    H162168   3.475   1.858   6.187  0.4699 -3.0790  1.7958
13559TIP3    H262169   3.394   1.884   6.312 -2.0408  2.8134 -0.6801
13560TIP3   OH262170   3.912   4.977  13.263  0.0448 -0.0925  0.1307
13560TIP3    H162171   3.826   4.994  13.301  0.1216  2.6363 -0.7283
13560TIP3    H262172   3.900   4.899  13.209 -1.2478 -1.1419  1.8127
13561TIP3   OH262173   2.017   2.194   0.524 -0.2538 -0.2388  0.0489
13561TIP3    H162174   2.043   2.254   0.593  0.8474  1.9620 -2.1201
13561TIP3    H262175   1.925   2.215   0.508  0.6250  2.6601 -2.1418
13562TIP3   OH262176   1.831   2.323   3.596  0.2727 -0.2970 -0.3261
13562TIP3    H162177   1.837   2.415   3.622  1.6515  0.0094 -1.6034
13562TIP3    H262178   1.844   2.274   3.676  0.9774  0.6195  0.1341
13563TIP3   OH262179   4.103   1.703  13.111  0.4847 -0.2173 -0.8657
13563TIP3    H162180   4.186   1.743  13.136  0.4565  0.5064 -1.9011
13563TIP3    H262181   4.117   1.672  13.022 -0.4334  0.1163 -1.1320
13564TIP3   OH262182   0.852   1.912   0.010  0.4787 -0.4736 -0.2605
13564TIP3    H162183   0.887   1.866  -0.066  0.4588 -1.4864  0.3344
13564TIP3    H262184   0.795   1.848   0.054 -0.3156  0.4177  0.0520
13565TIP3   OH262185   2.759   1.671  15.121 -0.2044 -0.3571 -0.0273
13565TIP3    H162186   2.702   1.700  15.193  0.4813  1.5345 -0.1917
13565TIP3    H262187   2.760   1.575  15.129 -0.3012 -0.2265  2.3695
13566TIP3   OH262188   6.567   1.667   2.319 -0.1938  0.0555 -0.5091
13566TIP3    H162189   6.608   1.618   2.390 -0.2090 -0.9323 -1.1489
13566TIP3    H262190   6.640   1.709   2.273  0.0511 -0.9664 -1.1050
13567TIP3   OH262191   2.572   1.823  14.350 -0.0109 -0.2841  0.9233
13567TIP3    H162192   2.567   1.729  14.334 -0.5691 -0.3547  1.4914
13567TIP3    H262193   2.519   1.838  14.428 -2.2394  0.8824 -0.6938
13568TIP3   OH262194   2.475   0.309  14.544  0.2581  0.4144  0.6063
13568TIP3    H162195   2.445   0.284  14.457  0.2120  0.9069  0.4787
13568TIP3    H262196   2.565   0.342  14.530  0.9204 -1.1512  0.9948
13569TIP3   OH262197   1.007   6.206  14.103  0.4896 -0.3172  0.4843
13569TIP3    H162198   1.030   6.252  14.184  0.2909 -0.1937  0.4723
13569TIP3    H262199   1.057   6.250  14.035 -0.7600  0.8224  0.2524
13570TIP3   OH262200   4.499   3.871  11.060 -0.3234 -0.1001 -0.7197
13570TIP3    H162201   4.544   3.941  11.013 -1.2819 -0.3083 -2.0013
13570TIP3    H262202   4.569   3.809  11.083  0.3610  0.7098 -0.5887
13571TIP3   OH262203   2.828   0.730   0.735 -0.4468  0.4036  0.4591
13571TIP3    H162204   2.829   0.653   0.792 -1.3313  0.2631  0.3058
13571TIP3    H262205   2.755   0.714   0.676  1.9682 -0.6990 -2.4678
13572TIP3   OH262206   3.361   4.232  11.404 -0.6974 -0.2936 -0.3510
13572TIP3    H162207   3.322   4.181  11.333 -0.0425 -1.5787  0.1673
13572TIP3    H262208   3.339   4.183  11.483  0.2225  0.0481  0.1377
13573TIP3   OH262209   0.173   0.485   2.511 -0.9310  0.4540 -0.4321
13573TIP3    H162210   0.126   0.487   2.595 -0.1986 -0.8868  0.0320
13573TIP3    H262211   0.111   0.523   2.449 -1.5662  1.2962  0.6715
13574TIP3   OH262212   4.770   2.807   4.114 -0.0189 -0.4871 -0.2646
13574TIP3    H162213   4.721   2.876   4.068 -1.3294 -1.5470 -0.5079
13574TIP3    H262214   4.716   2.786   4.191  0.0823 -1.6158 -0.4875
13575TIP3   OH262215   3.001   6.693   3.373 -0.2375 -0.5826  0.0006
13575TIP3    H162216   3.078   6.737   3.336 -1.0853  0.6241 -0.3848
13575TIP3    H262217   3.024   6.679   3.465  0.7945 -1.0859 -0.3091
13576TIP3   OH262218   4.938   6.729  16.567 -0.3869  0.0239  0.4160
13576TIP3    H162219   5.000   6.665  16.532  0.1165  0.9807 -0.4851
13576TIP3    H262220   4.961   6.736  16.660  0.2572 -0.3021  0.2866
13577TIP3   OH262221   5.391   0.066  11.384 -0.3450  0.1608 -0.1372
13577TIP3    H162222   5.459  -0.001  11.386 -1.0110 -0.5198  0.1788
13577TIP3    H262223   5.350   0.056  11.298 -1.3794 -0.8100  0.4451
13578TIP3   OH262224   1.165   4.941  15.302 -0.3051 -0.0439 -0.3736
13578TIP3    H162225   1.159   4.846  15.314 -0.6698 -0.0763 -0.7893
13578TIP3    H262226   1.203   4.973  15.384 -0.4813 -0.5128 -0.1029
13579TIP3   OH262227   2.923   0.380  13.681  0.3486 -0.7231 -0.3820
13579TIP3    H162228   2.906   0.335  13.598 -1.1900 -0.1268 -0.4279
13579TIP3    H262229   2.999   0.435  13.662 -1.9749  2.0513 -2.5638
13580TIP3   OH262230   5.313   1.404   5.798 -0.1050 -0.2669  0.7025
13580TIP3    H162231   5.262   1.454   5.861  0.3232  0.1300  0.7460
13580TIP3    H262232   5.309   1.456   5.717  0.8564  0.1735  0.9201
13581TIP3   OH262233   2.851   0.049   6.623 -0.8348  0.1448  0.0569
13581TIP3    H162234   2.936   0.063   6.664 -1.3716  0.9936  0.9604
13581TIP3    H262235   2.853   0.103   6.544  0.9083 -2.9436 -2.2483
13582TIP3   OH262236   2.563   4.637   1.115 -0.3451 -0.3490 -0.2045
13582TIP3    H162237   2.617   4.709   1.081  0.8564 -1.4675 -0.7797
13582TIP3    H262238   2.481   4.643   1.066 -0.5575  1.0591  0.2865
13583TIP3   OH262239   2.941   4.200  15.272  0.4551 -0.9339 -0.0589
13583TIP3    H162240   2.929   4.286  15.231 -3.9445 -0.1503  2.3192
13583TIP3    H262241   3.004   4.216  15.343 -1.0377  0.7019  0.9840
13584TIP3   OH262242   5.987   1.397  14.182 -0.2880  0.6709  0.6491
13584TIP3    H162243   5.909   1.450  14.199  0.5721  1.8892  0.8702
13584TIP3    H262244   6.059   1.447  14.218  0.5310 -0.8322  1.2146
13585TIP3   OH262245   3.199   4.313  15.138 -0.3918  0.3627 -0.1279
13585TIP3    H162246   3.126   4.375  15.149 -0.3824  0.1622  1.1973
13585TIP3    H262247   3.170   4.254  15.068 -0.9732  1.0434 -0.4695
13586TIP3   OH262248   1.517   6.752  14.070 -0.2950 -0.1445  0.3909
13586TIP3    H162249   1.445   6.763  14.133  0.6305 -0.2823  1.5128
13586TIP3    H262250   1.586   6.708  14.121  0.7031  0.2748 -0.5671
13587TIP3   OH262251   2.198   1.267  10.348 -0.4485  0.0411 -0.0070
13587TIP3    H162252   2.217   1.174  10.341  0.3457  0.2425 -0.5840
13587TIP3    H262253   2.260   1.310  10.289  1.1826  1.1759  2.3812
13588TIP3   OH262254   5.219   3.775  14.048 -0.0880  0.1798  0.6652
13588TIP3    H162255   5.141   3.727  14.073 -0.6920  0.9446  0.2890
13588TIP3    H262256   5.240   3.742  13.960  0.9815 -1.1905  1.3748
13589TIP3   OH262257   5.709   3.284  14.025 -0.0577 -0.2792 -0.6473
13589TIP3    H162258   5.789   3.313  13.983  1.1356 -1.2572  0.8126
13589TIP3    H262259   5.652   3.361  14.026  1.1365  0.6350 -1.1069
13590TIP3   OH262260   2.500   5.551  15.038  0.6021 -0.6277  0.0912
13590TIP3    H162261   2.565   5.554  15.108 -0.3519 -1.1821  1.0262
13590TIP3    H262262   2.449   5.632  15.049  0.5898 -0.6084 -0.1006
13591TIP3   OH262263   1.343   4.307  14.221 -0.4972 -0.1574  0.1172
13591TIP3    H162264   1.273   4.293  14.158  0.0729 -1.3203 -0.3081
13591TIP3    H262265   1.389   4.384  14.189 -1.3378  0.3780  0.1806
13592TIP3   OH262266   4.476   4.966   2.646  0.2631 -0.8353 -0.1119
13592TIP3    H162267   4.390   4.926   2.657 -0.7780  1.0642 -0.9324
13592TIP3    H262268   4.458   5.054   2.612  2.4936 -0.1354  0.3323
13593TIP3   OH262269   4.862   5.312   4.540 -0.3457 -0.0201 -0.3588
13593TIP3    H162270   4.795   5.273   4.596 -0.5831 -0.2826 -0.8129
13593TIP3    H262271   4.889   5.392   4.585 -0.8000 -0.0352 -0.0630
13594TIP3   OH262272   0.099   6.272  14.512  0.0942  0.0587 -0.4262
13594TIP3    H162273   0.071   6.345  14.456 -0.6933 -0.7310 -1.0932
13594TIP3    H262274   0.017   6.228  14.537  0.5915 -1.0179 -0.6306
13595TIP3   OH262275   1.129   3.749  16.270  0.2699 -0.1731  0.0123
13595TIP3    H162276   1.188   3.824  16.270  0.8771 -0.6388 -0.1246
13595TIP3    H262277   1.048   3.781  16.311  0.0448  0.9212 -1.1948
13596TIP3   OH262278   2.527   1.183  13.869 -0.3829 -0.3859  0.1359
13596TIP3    H162279   2.621   1.163  13.862 -0.4304 -0.8842  0.8092
13596TIP3    H262280   2.516   1.264  13.820  1.0870  1.7622  3.0414
13597TIP3   OH262281   2.762   1.287  12.121  0.3713  0.3233  0.0096
13597TIP3    H162282   2.668   1.281  12.105  0.2962  0.1067  0.5192
13597TIP3    H262283   2.800   1.309  12.036 -0.2158  1.1512 -0.0447
13598TIP3   OH262284   0.838   5.576  11.766 -0.3213 -0.1258 -0.6544
13598TIP3    H162285   0.835   5.646  11.831  1.7086 -1.3754  0.9117
13598TIP3    H262286   0.749   5.539  11.768 -0.9392  1.2854 -0.2851
13599TIP3   OH262287   5.386   2.702   5.728 -0.3276 -0.1951 -0.2095
13599TIP3    H162288   5.353   2.760   5.660 -0.3586  0.9733  0.7636
13599TIP3    H262289   5.427   2.630   5.680  2.5454  2.1114 -1.6102
13600TIP3   OH262290   5.407   4.384   3.805  0.0299 -0.0970 -0.1559
13600TIP3    H162291   5.340   4.317   3.819 -0.3212 -0.2482 -2.2953
13600TIP3    H262292   5.358   4.465   3.791  0.0966 -0.4702 -3.2616
13601TIP3   OH262293   0.413   5.856  14.051  0.4441  0.2226  0.6576
13601TIP3    H162294   0.434   5.805  13.973  1.1073  1.9443 -0.3496
13601TIP3    H262295   0.330   5.820  14.082  0.7010 -1.1888 -0.2054
13602TIP3   OH262296   6.081   4.176   4.402 -0.6525 -0.4372 -0.0569
13602TIP3    H162297   5.988   4.189   4.386 -0.3833  2.3824  0.1925
13602TIP3    H262298   6.084   4.107   4.469 -2.4725 -1.1729 -0.6600
13603TIP3   OH262299   6.814   4.865   4.784  0.5922  0.0133  0.7441
13603TIP3    H162300   6.809   4.770   4.773 -3.9338  0.2815 -2.3870
13603TIP3    H262301   6.733   4.888   4.829  2.1297  2.4404  2.5303
13604TIP3   OH262302   4.453   1.365  15.822 -0.3300  0.0535 -0.3932
13604TIP3    H162303   4.397   1.332  15.892  1.7235 -0.9290  0.8859
13604TIP3    H262304   4.414   1.331  15.742 -1.3874 -0.8459  0.4711
13605TIP3   OH262305   3.926   0.167   3.375  0.3053 -0.5243  0.1708
13605TIP3    H162306   4.018   0.165   3.401  0.0778 -0.2363  1.0433
13605TIP3    H262307   3.925   0.221   3.295  0.7012  0.8097  1.0224
13606TIP3   OH262308   4.362   1.661   4.427  0.0133  0.1410  0.1067
13606TIP3    H162309   4.319   1.575   4.423  0.9340 -0.3951  1.0563
13606TIP3    H262310   4.391   1.668   4.518  0.7486  1.0635 -0.1911
13607TIP3   OH262311   5.606   2.689   7.055  1.3585  0.5102 -0.0930
13607TIP3    H162312   5.629   2.621   6.991  1.1315  1.7183 -1.5236
13607TIP3    H262313   5.610   2.770   7.005  0.9118  1.4791  1.3981
13608TIP3   OH262314   4.207   0.237   1.352  0.6820  0.9758  0.3364
13608TIP3    H162315   4.138   0.181   1.315  0.4185  2.0323 -0.8471
13608TIP3    H262316   4.180   0.251   1.443  0.1536  0.1234  0.3253
13609TIP3   OH262317   0.632   0.385  11.525 -0.0227 -0.0793  0.1375
13609TIP3    H162318   0.709   0.337  11.556  1.0332  2.0900  1.1247
13609TIP3    H262319   0.617   0.353  11.437  2.5239 -0.0546 -0.3744
13610TIP3   OH262320   2.558   2.096  13.571  0.4580  0.0062 -0.0751
13610TIP3    H162321   2.504   2.079  13.495 -0.1271 -0.8514  0.5203
13610TIP3    H262322   2.549   2.018  13.626  1.4864  0.2771  0.5125
13611TIP3   OH262323   3.730   5.686  13.207 -0.3430  0.6302  0.0458
13611TIP3    H162324   3.817   5.661  13.175 -0.5033 -0.4539  0.4144
13611TIP3    H262325   3.743   5.706  13.300 -0.5215  0.2404  0.1576
13612TIP3   OH262326   6.202   1.140  13.934  0.1836  0.2070  0.1159
13612TIP3    H162327   6.283   1.102  13.901 -0.3731 -0.3562 -0.6323
13612TIP3    H262328   6.198   1.110  14.025  0.3472 -0.5396 -0.1180
13613TIP3   OH262329   4.997   6.405   0.917 -0.5173  0.2100 -0.2285
13613TIP3    H162330   5.017   6.352   0.994  2.7633  1.0453 -0.3512
13613TIP3    H262331   4.943   6.477   0.950  0.2074  0.1422  1.1357
13614TIP3   OH262332   0.653   3.487  13.658  0.4741  0.0737 -0.0939
13614TIP3    H162333   0.584   3.510  13.721  1.3253  0.0625  0.8796
13614TIP3    H262334   0.723   3.550  13.676  0.2109  0.9716 -1.9971
13615TIP3   OH262335   6.295   0.277   5.930  0.0832  0.0526 -0.4563
13615TIP3    H162336   6.322   0.360   5.970  0.7670 -0.6619  0.5838
13615TIP3    H262337   6.264   0.223   6.003 -2.9233  0.2982 -1.4037
13616TIP3   OH262338   5.161   2.128   1.359 -0.1746  0.0562 -0.0744
13616TIP3    H162339   5.157   2.035   1.338  0.9926  0.1456 -0.7532
13616TIP3    H262340   5.118   2.135   1.444  0.1173 -1.1676  0.1896
13617TIP3   OH262341   6.013   2.336  16.972  0.0280 -0.8359  0.3157
13617TIP3    H162342   5.999   2.424  17.009 -1.2930 -1.0000  0.2690
13617TIP3    H262343   5.938   2.323  16.914 -1.0181 -2.8721  2.0037
13618TIP3   OH262344   0.840   5.857  12.703  0.4881  0.2381  0.3025
13618TIP3    H162345   0.775   5.922  12.675 -0.0189  0.0771  1.0891
13618TIP3    H262346   0.866   5.885  12.791  1.6574  0.4215 -0.0700
13619TIP3   OH262347   0.454   2.208   2.619  0.0311 -0.4988 -0.5868
13619TIP3    H162348   0.460   2.300   2.593  0.0985 -0.4943 -0.5563
13619TIP3    H262349   0.366   2.198   2.655 -1.0719 -1.1242 -3.2257
13620TIP3   OH262350   5.115   2.094   2.940 -0.5797  0.2694  0.0510
13620TIP3    H162351   5.195   2.112   2.990  1.8302  1.6828 -3.8527
13620TIP3    H262352   5.050   2.153   2.978  0.8746  0.8222  1.8595
13621TIP3   OH262353   3.242   5.586   4.992  0.4752  0.2577  0.4148
13621TIP3    H162354   3.188   5.606   4.916  0.4953  0.7111  0.5212
13621TIP3    H262355   3.321   5.547   4.956  0.9519  1.4552  0.1276
13622TIP3   OH262356   4.682   5.400   4.323 -0.9219  0.3817 -0.9585
13622TIP3    H162357   4.746   5.348   4.371 -1.4878 -0.6919 -1.3224
13622TIP3    H262358   4.608   5.410   4.384 -0.1237  2.3489 -0.2194
13623TIP3   OH262359   5.983   5.369   3.037 -0.0339 -0.0979  0.1990
13623TIP3    H162360   6.048   5.421   3.084 -0.4734  1.5046 -0.9177
13623TIP3    H262361   5.912   5.357   3.100  0.1860  0.4022  0.5475
13624TIP3   OH262362   2.333   6.050   3.137  0.2027 -0.2304  0.6941
13624TIP3    H162363   2.419   6.086   3.115  1.1611 -1.2234  2.5360
13624TIP3    H262364   2.334   5.961   3.103 -0.0985 -0.2471  0.7193
13625TIP3   OH262365   5.659   4.871  13.378 -0.3353 -0.4057  0.2461
13625TIP3    H162366   5.684   4.857  13.470 -0.4634 -1.6947  0.1076
13625TIP3    H262367   5.699   4.955  13.355  1.5295 -1.0737  0.8442
13626TIP3   OH262368   4.503   3.414   3.201 -0.6223  0.2628  0.0016
13626TIP3    H162369   4.424   3.439   3.250  0.3413 -1.0633  2.4182
13626TIP3    H262370   4.530   3.331   3.240  0.6034 -0.5823 -2.4564
13627TIP3   OH262371   4.805   6.809  11.437 -0.2518  0.0755  0.0860
13627TIP3    H162372   4.869   6.840  11.502 -0.5015  1.1037 -0.1483
13627TIP3    H262373   4.721   6.839  11.470 -0.4141  0.3384 -0.5505
13628TIP3   OH262374   1.957   3.369  11.029 -0.4763 -0.1221 -0.3527
13628TIP3    H162375   1.868   3.397  11.047 -0.8889 -0.5468 -1.6778
13628TIP3    H262376   1.958   3.347  10.936  1.5731  2.0233 -0.9447
13629TIP3   OH262377   4.251   5.861  11.911 -0.4138  0.4225 -0.1491
13629TIP3    H162378   4.295   5.776  11.902  0.7539  0.8920  0.8069
13629TIP3    H262379   4.190   5.849  11.984 -0.8616  0.1826 -0.5540
13630TIP3   OH262380   3.892   4.222  16.296  0.5642 -0.1815  0.2937
13630TIP3    H162381   3.857   4.217  16.207 -0.6111 -3.4961  0.8064
13630TIP3    H262382   3.985   4.201  16.286  1.3851  3.1704 -0.4399
13631TIP3   OH262383   1.647   2.523  12.635  0.5519 -0.0541 -0.3121
13631TIP3    H162384   1.654   2.435  12.598  3.1739  0.8897 -2.3216
13631TIP3    H262385   1.685   2.515  12.723  1.6659 -0.7665 -0.8402
13632TIP3   OH262386   5.896   6.496   3.924  0.2562 -0.3600 -0.2868
13632TIP3    H162387   5.824   6.525   3.979  1.6691  2.5564  0.1873
13632TIP3    H262388   5.943   6.432   3.978 -0.8362 -0.8020  0.1555
13633TIP3   OH262389   1.504   3.392  16.073 -0.0880 -0.8415 -0.0417
13633TIP3    H162390   1.501   3.482  16.106  1.7608  0.0739 -2.1199
13633TIP3    H262391   1.413   3.365  16.067 -0.6333  0.4359  1.7094
13634TIP3   OH262392   5.111   6.669  13.615  0.7034 -0.1706 -0.4587
13634TIP3    H162393   5.194   6.716  13.600  0.1871  0.7438 -0.5116
13634TIP3    H262394   5.125   6.625  13.699 -0.3918  3.9268  2.2077
13635TIP3   OH262395   6.446   2.688   1.959  0.3372  0.4534 -0.1172
13635TIP3    H162396   6.494   2.625   1.905 -0.2349 -0.0811 -0.0099
13635TIP3    H262397   6.471   2.667   2.049 -1.3796 -0.9559  0.0748
13636TIP3   OH262398   4.999   4.756   3.776  0.2226 -0.2138  0.9472
13636TIP3    H162399   4.964   4.827   3.829  1.4442  1.0984  0.0368
13636TIP3    H262400   5.044   4.799   3.704 -0.1339 -1.9340 -0.3626
13637TIP3   OH262401   6.812   4.049   1.861  0.0443 -0.3886  0.3278
13637TIP3    H162402   6.842   4.126   1.909 -0.3540  0.4560 -0.7526
13637TIP3    H262403   6.865   3.977   1.896  2.8673  0.9093 -0.9830
13638TIP3   OH262404   6.367   0.877   0.285 -0.2729 -0.3322 -0.1576
13638TIP3    H162405   6.414   0.850   0.364  0.9145  3.4565  0.6501
13638TIP3    H262406   6.431   0.929   0.237 -2.2794  1.1167 -1.3961
13639TIP3   OH262407   2.220   6.497  15.512  0.0531 -0.4956  0.6391
13639TIP3    H162408   2.267   6.537  15.586  0.2618  1.0570 -0.2895
13639TIP3    H262409   2.224   6.563  15.443 -1.4238 -1.3208 -0.2776
13640TIP3   OH262410   4.557   5.455   5.501 -0.2311 -0.2183  0.4090
13640TIP3    H162411   4.636   5.436   5.451 -0.1646 -0.7925  0.7172
13640TIP3    H262412   4.589   5.472   5.590 -0.3309  0.9399  0.2433
13641TIP3   OH262413   5.029   4.364  11.421  0.5649  0.5899 -0.2238
13641TIP3    H162414   4.933   4.363  11.411  0.4685  0.4979  0.6239
13641TIP3    H262415   5.061   4.312  11.348  0.0237  1.3808 -1.0501
13642TIP3   OH262416   1.210   4.373  13.066  0.1279  0.3502  0.0572
13642TIP3    H162417   1.175   4.349  13.152  2.0474 -1.1278  0.5115
13642TIP3    H262418   1.250   4.458  13.079 -1.3699  1.0881  0.0564
13643TIP3   OH262419   0.768   2.201  11.566 -1.1098 -0.2935  0.6398
13643TIP3    H162420   0.674   2.185  11.554 -0.9376 -0.7341 -0.2377
13643TIP3    H262421   0.793   2.255  11.491 -0.3172 -1.6826 -0.1534
13644TIP3   OH262422   5.265   0.712  13.975 -0.1036 -0.1847 -0.2719
13644TIP3    H162423   5.305   0.785  14.022  1.4597 -0.6204 -0.8529
13644TIP3    H262424   5.243   0.748  13.889 -0.4780 -0.0813 -0.1330
13645TIP3   OH262425   5.569   1.093  11.617 -0.5606  0.1840  0.1411
13645TIP3    H162426   5.524   1.177  11.611  0.2259  0.6103  0.0912
13645TIP3    H262427   5.547   1.061  11.705  0.9289  1.5149  1.0554
13646TIP3   OH262428   3.213   6.538   2.752 -0.2542 -0.2555 -0.5437
13646TIP3    H162429   3.223   6.466   2.815  0.7286  0.4140  0.0869
13646TIP3    H262430   3.274   6.517   2.682  1.0088  0.6059  0.2671
13647TIP3   OH262431   2.539   4.574   2.945 -0.5594  0.3213  0.0356
13647TIP3    H162432   2.612   4.570   3.007  0.3076  0.1725 -0.9684
13647TIP3    H262433   2.468   4.525   2.988  0.7128 -1.6381  0.0041
13648TIP3   OH262434   4.649   3.064  16.288  0.5717 -0.5158 -0.1925
13648TIP3    H162435   4.603   3.142  16.320 -0.6655 -1.4976  0.5327
13648TIP3    H262436   4.741   3.092  16.281  0.3151  0.7500  0.8988
13649TIP3   OH262437   3.648   2.976  12.976  0.2792  0.3380  0.0952
13649TIP3    H162438   3.555   2.983  12.999  0.2941  2.6681 -0.3170
13649TIP3    H262439   3.672   3.063  12.945  2.8568  0.0791  1.0899
13650TIP3   OH262440   3.339   0.610  14.545 -0.0081  0.6836 -0.1435
13650TIP3    H162441   3.281   0.657  14.606  0.3203  0.4423  0.3575
13650TIP3    H262442   3.412   0.580  14.599 -1.0099 -1.8796 -0.0983
13651TIP3   OH262443   3.292   4.987  16.069 -0.4063  0.9382 -0.5280
13651TIP3    H162444   3.272   5.033  15.988 -0.1056  3.0158  0.5319
13651TIP3    H262445   3.298   5.055  16.136 -2.2504 -0.8216  1.6180
13652TIP3   OH262446   1.744   6.572   2.450  0.0767 -0.1843 -0.1347
13652TIP3    H162447   1.830   6.535   2.467 -0.3080 -1.6599 -1.2318
13652TIP3    H262448   1.758   6.634   2.379  0.2885 -0.1366 -0.0508
13653TIP3   OH262449   3.371   4.987  15.391  0.6135 -0.2293  0.5319
13653TIP3    H162450   3.378   4.898  15.357 -1.5695 -0.4903  0.6277
13653TIP3    H262451   3.428   5.039  15.333  1.0371 -1.4842 -0.2307
13654TIP3   OH262452   2.386   1.831   3.695 -0.1007  0.1361  0.6562
13654TIP3    H162453   2.375   1.767   3.765  1.3914 -2.2323 -1.1189
13654TIP3    H262454   2.476   1.819   3.665 -1.1493 -0.2656 -2.8046
13655TIP3   OH262455   4.550   6.141  11.098 -0.3028 -0.3664 -0.2451
13655TIP3    H162456   4.465   6.106  11.070 -1.6010  1.1359  1.5261
13655TIP3    H262457   4.605   6.136  11.020 -1.4493 -2.9983 -0.9963
13656TIP3   OH262458   1.975   4.514  16.277  0.0547  0.6021 -0.0692
13656TIP3    H162459   1.896   4.498  16.225 -0.5288  1.5971  0.4949
13656TIP3    H262460   2.030   4.438  16.259 -0.4268  0.5789 -1.5824
13657TIP3   OH262461   4.284   4.572   2.274  0.5041  0.2486 -0.3978
13657TIP3    H162462   4.367   4.619   2.273  0.5184  0.3780  1.9629
13657TIP3    H262463   4.295   4.504   2.340 -1.5058  0.7630  0.5549
13658TIP3   OH262464   6.579   3.905   1.079  0.3211  0.3097 -0.2286
13658TIP3    H162465   6.512   3.953   1.030 -0.3064 -1.7767 -1.5200
13658TIP3    H262466   6.651   3.892   1.017 -0.1075 -1.5821 -0.3893
13659TIP3   OH262467   6.069   5.415   2.183 -0.1740 -0.4488 -0.0105
13659TIP3    H162468   6.047   5.394   2.274  0.2197  0.7753  0.3786
13659TIP3    H262469   6.164   5.404   2.177 -0.1878 -0.4486 -0.2566
13660TIP3   OH262470   1.969   0.041   1.696 -0.0952  0.3629  0.4605
13660TIP3    H162471   2.024   0.016   1.621  1.0920  0.3717  1.2942
13660TIP3    H262472   1.922  -0.039   1.719  0.9226 -0.1451  0.8351
13661TIP3   OH262473   3.327   6.762  11.944  0.0555  0.3174  0.0302
13661TIP3    H162474   3.304   6.692  11.883  0.6283 -1.0951  1.3583
13661TIP3    H262475   3.247   6.780  11.993 -0.0859  0.5791 -0.2967
13662TIP3   OH262476   1.942   6.520  15.824  0.3380 -0.8889 -0.0748
13662TIP3    H162477   2.011   6.499  15.887  0.1758 -1.9699 -0.2380
13662TIP3    H262478   1.864   6.536  15.878  0.0238 -2.5094 -0.0078
13663TIP3   OH262479   4.455   5.120   3.017 -0.0457 -0.0890  0.5387
13663TIP3    H162480   4.470   5.209   2.986  1.7935 -0.3710  0.5242
13663TIP3    H262481   4.398   5.081   2.951 -0.8365  1.0367  0.5225
13664TIP3   OH262482   4.206   0.426  16.078  0.3229 -0.5614  0.4891
13664TIP3    H162483   4.225   0.335  16.101 -0.0775 -0.6258  0.5763
13664TIP3    H262484   4.151   0.419  15.999  1.3943 -0.3575 -0.3007
13665TIP3   OH262485   6.742   0.318   5.090 -0.1921 -0.5722  0.2743
13665TIP3    H162486   6.714   0.318   4.998  0.1843 -2.4531  0.1212
13665TIP3    H262487   6.720   0.231   5.122 -0.0142 -0.0512  1.8972
13666TIP3   OH262488   0.434   3.784   2.270  0.2127  0.1368 -0.4230
13666TIP3    H162489   0.473   3.841   2.336 -1.3186  0.7220  0.0165
13666TIP3    H262490   0.457   3.696   2.298 -1.7267  0.2551  1.8813
13667TIP3   OH262491   3.243   1.265  11.767 -0.2086 -0.2714 -0.6418
13667TIP3    H162492   3.312   1.272  11.701  0.4148 -0.7816 -0.0636
13667TIP3    H262493   3.169   1.227  11.721 -0.3840  1.0353 -1.4656
13668TIP3   OH262494   0.065   0.473   4.673 -0.2397 -0.1962  0.4092
13668TIP3    H162495   0.080   0.561   4.708  0.6855  0.3454 -1.2242
13668TIP3    H262496   0.145   0.454   4.624 -0.2706 -2.1245  1.0376
13669TIP3   OH262497   2.092   3.843   0.531 -0.5063  0.4042  0.1717
13669TIP3    H162498   2.161   3.877   0.474 -0.2789 -1.6442 -0.9030
13669TIP3    H262499   2.017   3.832   0.473 -0.9885  0.3826  0.7923
13670TIP3   OH262500   5.522   0.328  13.879 -0.0024  0.1544  0.4525
13670TIP3    H162501   5.496   0.390  13.947  0.6078  0.1334  0.7083
13670TIP3    H262502   5.519   0.242  13.920  2.2111  0.3080  1.0417
13671TIP3   OH262503   5.078   2.821  14.318  0.0985 -0.0747 -0.0745
13671TIP3    H162504   5.091   2.735  14.357  0.2644 -0.5841 -1.2149
13671TIP3    H262505   5.164   2.847  14.287  0.3776  1.2266  1.6260
13672TIP3   OH262506   6.295   3.906   4.831 -0.5949  0.2161  0.4874
13672TIP3    H162507   6.368   3.844   4.828  0.5097  1.4872  0.3445
13672TIP3    H262508   6.289   3.932   4.923 -2.0369 -1.1743  0.8411
13673TIP3   OH262509   6.261   4.296  15.096  0.4750 -0.0953 -0.2642
13673TIP3    H162510   6.282   4.308  15.004  0.0383  0.9190 -0.2450
13673TIP3    H262511   6.343   4.318  15.142  0.3825  0.4527 -0.3582
13674TIP3   OH262512   5.162   3.375  14.885  0.6753 -0.3176 -0.5228
13674TIP3    H162513   5.147   3.468  14.865  1.8323  0.2967  1.1680
13674TIP3    H262514   5.197   3.338  14.804  0.1715  0.7065 -1.2347
13675TIP3   OH262515   2.115   3.932  11.660  0.3747  0.3258 -0.1665
13675TIP3    H162516   2.210   3.927  11.669  0.2078 -0.0966  1.7963
13675TIP3    H262517   2.096   3.892  11.575  1.9145  0.0846 -0.4101
13676TIP3   OH262518   4.551   0.865  15.580  0.1576  0.4921  0.6448
13676TIP3    H162519   4.590   0.914  15.508  0.5797 -0.0216  0.5193
13676TIP3    H262520   4.552   0.774  15.551  1.0841  0.1677  1.6146
13677TIP3   OH262521   1.784   1.954  11.036 -0.2420 -0.2235  0.2578
13677TIP3    H162522   1.749   1.991  10.955  1.0749  2.2370  0.7427
13677TIP3    H262523   1.722   1.884  11.059 -1.0913 -0.4293 -2.3952
13678TIP3   OH262524   5.566   6.352   4.681 -0.0091  0.4541 -0.1960
13678TIP3    H162525   5.634   6.390   4.735  0.2148 -1.3529  0.8949
13678TIP3    H262526   5.597   6.362   4.591  1.2948  0.4306  0.2371
13679TIP3   OH262527   3.915   0.760  14.649 -0.0063  0.3051 -0.1369
13679TIP3    H162528   3.907   0.665  14.639 -2.0737  0.4651 -0.4536
13679TIP3    H262529   3.851   0.782  14.717 -1.7988  1.7662 -2.1411
13680TIP3   OH262530   0.121   4.463   0.646  0.0953  0.0092  0.2486
13680TIP3    H162531   0.110   4.497   0.557 -0.2822  0.0205  0.2972
13680TIP3    H262532   0.149   4.538   0.698  3.9339 -0.6869 -0.5373
13681TIP3   OH262533   1.571   1.712  10.884  0.3445  0.2079 -0.1191
13681TIP3    H162534   1.620   1.771  10.827  1.4653  0.2162  0.8130
13681TIP3    H262535   1.561   1.632  10.833 -1.3856  1.2411 -1.4806
13682TIP3   OH262536   5.850   4.590  11.477  0.8325  0.2498 -0.0108
13682TIP3    H162537   5.923   4.592  11.416  2.6312 -3.6448  1.6620
13682TIP3    H262538   5.776   4.557  11.426  1.3466  0.3206 -0.8093
13683TIP3   OH262539   1.018   1.119  15.023  0.3644  0.2820 -0.3556
13683TIP3    H162540   1.020   1.207  15.059 -0.2713 -0.6856  2.2747
13683TIP3    H262541   0.926   1.092  15.031  1.0506 -1.6755  1.8328
13684TIP3   OH262542   3.538   1.316   0.417  0.6915  0.3936  0.3528
13684TIP3    H162543   3.568   1.398   0.456 -0.8000  1.3112 -0.3412
13684TIP3    H262544   3.588   1.308   0.336 -1.1201  2.1651 -1.0506
13685TIP3   OH262545   2.900   4.542  14.880 -0.0270 -0.0509  0.1174
13685TIP3    H162546   2.837   4.614  14.878  0.6616  0.6333  1.3182
13685TIP3    H262547   2.857   4.470  14.835 -1.8428  0.2546  1.2540
13686TIP3   OH262548   0.021   1.153  12.105 -0.4330 -0.3206  0.1020
13686TIP3    H162549  -0.033   1.230  12.089  1.5632  1.4513  1.3129
13686TIP3    H262550   0.029   1.148  12.200  1.6287 -0.3573 -0.0135
13687TIP3   OH262551   3.851   6.607  11.587 -0.0860  0.2931  0.4083
13687TIP3    H162552   3.841   6.675  11.654 -0.4407  1.4098 -0.7466
13687TIP3    H262553   3.773   6.553  11.597 -0.0024  0.2786  1.0657
13688TIP3   OH262554   0.751   5.606  13.194  0.4954 -0.1345  0.7045
13688TIP3    H162555   0.795   5.533  13.151  2.4108  2.4511 -2.1298
13688TIP3    H262556   0.663   5.606  13.156  0.7204 -0.5267  0.1681
13689TIP3   OH262557   4.394   5.454  16.464  0.3630  0.0098  0.1846
13689TIP3    H162558   4.431   5.389  16.523 -1.1277 -2.1711 -1.1222
13689TIP3    H262559   4.311   5.480  16.505  0.7766  0.8320  0.5187
13690TIP3   OH262560   5.277   3.882  15.231 -0.0547 -0.3590 -0.4342
13690TIP3    H162561   5.233   3.947  15.286  0.0165 -0.4619 -0.2538
13690TIP3    H262562   5.208   3.820  15.208 -0.3739  0.3659 -1.5146
13691TIP3   OH262563   6.607   1.903  12.833  0.2459  0.1127  0.3454
13691TIP3    H162564   6.639   1.830  12.886  0.3193  0.3009  0.5638
13691TIP3    H262565   6.552   1.953  12.893 -1.2258 -0.7102 -0.2652
13692TIP3   OH262566   0.550   3.965   2.667  0.0480  0.1614  0.3356
13692TIP3    H162567   0.568   3.885   2.717  0.4042  0.1593  0.2042
13692TIP3    H262568   0.633   4.012   2.665  0.2267 -0.1811 -0.8634
13693TIP3   OH262569   3.671   4.866   2.252  0.3878  0.6294  0.1769
13693TIP3    H162570   3.653   4.782   2.294  2.4302  1.1842  2.4289
13693TIP3    H262571   3.729   4.911   2.313  0.8839  2.9258 -1.8181
13694TIP3   OH262572   2.538   1.403  15.605 -0.3765  0.1287  0.3199
13694TIP3    H162573   2.480   1.408  15.529 -0.4324 -0.0497  0.3520
13694TIP3    H262574   2.551   1.495  15.630 -2.2522  0.1155  1.5395
13695TIP3   OH262575   4.861   1.174  13.474 -0.5344 -0.3168  0.1028
13695TIP3    H162576   4.885   1.235  13.404 -0.8452 -1.5942 -1.1747
13695TIP3    H262577   4.915   1.097  13.458  0.4616 -0.0941  2.1922
13696TIP3   OH262578   4.569   5.459   6.155 -0.3102 -0.2922  0.0499
13696TIP3    H162579   4.607   5.486   6.238  0.1579  0.9188 -0.5343
13696TIP3    H262580   4.476   5.480   6.163  0.1378  2.1715 -0.6073
13697TIP3   OH262581   2.665   1.849  11.240 -0.3969 -0.1992  0.0430
13697TIP3    H162582   2.710   1.797  11.173  0.0697  1.5557 -1.0783
13697TIP3    H262583   2.678   1.800  11.321  0.7158 -1.4009 -0.8170
13698TIP3   OH262584   2.016   0.564  15.847 -0.3634 -0.4480 -0.2267
13698TIP3    H162585   1.942   0.581  15.905 -0.4123 -0.1588 -0.3747
13698TIP3    H262586   1.994   0.610  15.766 -0.5959 -1.3669 -0.7075
13699TIP3   OH262587   2.217   6.210  16.473  0.2447  0.1444  0.2741
13699TIP3    H162588   2.206   6.299  16.506  0.2448 -0.1296  1.0438
13699TIP3    H262589   2.281   6.217  16.402 -0.6987  0.9387 -0.5263
13700TIP3   OH262590   1.257   2.740   1.870 -0.1671 -0.1441 -0.3376
13700TIP3    H162591   1.293   2.680   1.935  1.2587 -0.2077 -1.1610
13700TIP3    H262592   1.198   2.686   1.818  0.9532 -0.8069 -0.9442
13701TIP3   OH262593   0.645   4.918  11.124 -0.1137  0.0829  0.2336
13701TIP3    H162594   0.633   4.941  11.216 -0.2029 -2.3172  0.8854
13701TIP3    H262595   0.557   4.926  11.086 -0.0112  1.4292  0.2328
13702TIP3   OH262596   6.691   4.939   5.472 -0.2666  0.2476  0.1435
13702TIP3    H162597   6.627   4.984   5.417 -0.9075 -0.5863  0.1858
13702TIP3    H262598   6.745   5.009   5.509 -1.5536  1.0254  0.6146
13703TIP3   OH262599   0.282   3.931   4.774 -0.2448 -0.2499 -0.7531
13703TIP3    H162600   0.346   4.003   4.777  0.5263 -0.8956  2.2250
13703TIP3    H262601   0.331   3.858   4.738  0.5395 -0.5243  0.7738
13704TIP3   OH262602   1.243   6.638   2.008  0.5834 -0.0884  0.0199
13704TIP3    H162603   1.245   6.703   2.079  2.7604 -0.0691  0.0301
13704TIP3    H262604   1.317   6.663   1.952 -0.3085 -0.8773 -1.5660
13705TIP3   OH262605   1.676   1.578   6.429  0.0185 -0.7654 -0.3682
13705TIP3    H162606   1.610   1.616   6.486 -0.0909 -1.1529 -0.2338
13705TIP3    H262607   1.749   1.640   6.433  1.2615 -2.1876  2.6185
13706TIP3   OH262608   0.738   6.753  15.014 -0.0707  0.3195  0.5539
13706TIP3    H162609   0.711   6.661  15.015 -1.0339  0.5712  2.2958
13706TIP3    H262610   0.663   6.799  14.975  0.2213  0.4324  0.1122
13707TIP3   OH262611   3.541   1.254   3.312 -0.5281  0.3018 -0.3429
13707TIP3    H162612   3.473   1.190   3.289  0.4957 -0.2586 -2.0266
13707TIP3    H262613   3.593   1.210   3.379 -1.3445  0.4220  0.3825
13708TIP3   OH262614   0.981   6.203   4.976 -0.1455  0.1936 -0.2671
13708TIP3    H162615   0.967   6.200   4.881  1.1754  0.7013 -0.4940
13708TIP3    H262616   0.898   6.172   5.013 -0.1595 -1.5190 -1.6048
13709TIP3   OH262617   6.653   0.228   3.050 -0.5621  0.8409 -0.4997
13709TIP3    H162618   6.617   0.294   3.110  0.3136  1.7487 -0.9565
13709TIP3    H262619   6.727   0.190   3.098 -1.5469 -0.4235  0.0927
13710TIP3   OH262620   5.432   2.332  13.558  0.3409 -0.3139  0.0232
13710TIP3    H162621   5.380   2.318  13.637  0.6177  0.1686  0.2960
13710TIP3    H262622   5.386   2.284  13.489 -0.8399  0.6674  0.1076
13711TIP3   OH262623   0.771   4.633  16.161 -0.6693  0.2731  0.0612
13711TIP3    H162624   0.856   4.589  16.164 -0.7953 -0.1009 -1.2147
13711TIP3    H262625   0.756   4.663  16.251  1.2249  1.1565  0.1386
13712TIP3   OH262626   0.126   3.291  14.662 -0.9436  0.0949  0.2260
13712TIP3    H162627   0.067   3.363  14.643  1.0463  1.6034 -0.6609
13712TIP3    H262628   0.144   3.251  14.576 -0.4183 -0.1221  0.4298
13713TIP3   OH262629   1.357   5.062   3.829  0.0111 -0.1048 -0.4721
13713TIP3    H162630   1.433   5.115   3.805 -0.1120  0.2644 -0.0550
13713TIP3    H262631   1.394   4.991   3.882 -0.0096  0.4624  0.3179
13714TIP3   OH262632   0.846   0.952   4.200  0.1479  0.5070 -0.3072
13714TIP3    H162633   0.838   0.878   4.141 -1.7413  1.5993 -1.5223
13714TIP3    H262634   0.926   0.935   4.249  1.0414 -1.1298 -2.2037
13715TIP3   OH262635   4.985   1.100  16.111 -0.0184 -0.1847 -0.2243
13715TIP3    H162636   5.077   1.080  16.122 -0.0201  0.8240  2.1704
13715TIP3    H262637   4.950   1.107  16.200 -2.4143 -0.5492 -1.0462
13716TIP3   OH262638   1.117   5.934  12.048  0.0916 -0.2650  0.0359
13716TIP3    H162639   1.132   5.899  12.135  1.5042  1.9616  0.7516
13716TIP3    H262640   1.029   5.973  12.053  0.9402  1.6181  1.1360
13717TIP3   OH262641   2.930   0.413  11.649  0.5947 -0.1357 -0.1037
13717TIP3    H162642   2.992   0.429  11.578  0.2288  0.2711 -0.3356
13717TIP3    H262643   2.954   0.326  11.683  1.6320  0.2369  0.1613
13718TIP3   OH262644   6.820   2.182  15.601 -0.5290 -0.6879 -0.3395
13718TIP3    H162645   6.817   2.210  15.693  0.4826 -0.3429 -0.3982
13718TIP3    H262646   6.731   2.193  15.569 -0.9804 -1.1803  0.7104
13719TIP3   OH262647   3.854   1.671   4.431  0.4185 -0.0917 -0.2719
13719TIP3    H162648   3.805   1.634   4.358 -1.0428  0.6431  0.2891
13719TIP3    H262649   3.791   1.673   4.504  1.7930 -0.6950  0.9874
13720TIP3   OH262650   4.022   2.771  10.756  0.6425  0.0511 -0.6396
13720TIP3    H162651   3.946   2.824  10.734  1.2906  1.1747 -0.2591
13720TIP3    H262652   4.025   2.703  10.689 -1.0624 -0.4171 -0.2785
13721TIP3   OH262653   5.408   1.770  13.148 -0.9581 -0.2906  0.8625
13721TIP3    H162654   5.324   1.726  13.143 -0.5606 -1.1502  1.4644
13721TIP3    H262655   5.467   1.705  13.187 -0.2000  0.5594  1.1689
13722TIP3   OH262656   2.936   1.405  14.395  0.5829  0.2305 -1.2653
13722TIP3    H162657   2.873   1.473  14.419  0.5193  0.0023 -0.7690
13722TIP3    H262658   2.885   1.324  14.395  0.9914 -0.0493 -0.2548
13723TIP3   OH262659   5.357   2.276   1.929  0.0954 -0.3208 -0.1396
13723TIP3    H162660   5.377   2.352   1.982  4.0465 -0.5057 -1.1025
13723TIP3    H262661   5.400   2.203   1.973 -1.4027 -1.5742 -0.6271
13724TIP3   OH262662   4.523   1.163   1.363  0.0648  0.4679  0.2188
13724TIP3    H162663   4.529   1.114   1.445  1.9208  0.6927  0.2589
13724TIP3    H262664   4.566   1.106   1.298 -0.9272  0.5155 -0.4930
13725TIP3   OH262665   2.014   5.969  16.937 -0.1935 -0.2837 -0.2306
13725TIP3    H162666   2.034   5.939  16.848  0.4942 -0.5769  0.0141
13725TIP3    H262667   2.047   5.899  16.994 -0.8580 -0.2164  0.2456
13726TIP3   OH262668   1.475   1.425  16.483  0.3566  0.3246 -0.6074
13726TIP3    H162669   1.471   1.511  16.525  0.2054 -1.2435  2.9742
13726TIP3    H262670   1.530   1.439  16.406 -1.5468  4.0381 -1.5350
13727TIP3   OH262671   3.794   1.399  10.543  0.6739 -0.3225 -0.5666
13727TIP3    H162672   3.874   1.448  10.560  0.8236 -0.8316  0.2382
13727TIP3    H262673   3.779   1.349  10.623  0.1625 -1.0838 -1.1272
13728TIP3   OH262674   1.626   1.547   0.429 -0.4453 -0.2936 -0.1324
13728TIP3    H162675   1.657   1.631   0.395 -1.6710  0.1417 -0.2269
13728TIP3    H262676   1.595   1.566   0.517 -2.6018 -0.1491 -0.8390
13729TIP3   OH262677   6.715   5.494  11.184 -0.1523  0.1148 -0.3611
13729TIP3    H162678   6.788   5.460  11.236  1.2101  1.0869 -1.5367
13729TIP3    H262679   6.745   5.580  11.154 -0.6555 -0.5331 -3.0498
13730TIP3   OH262680   5.650   4.086   1.271  0.0211  0.0357  0.6093
13730TIP3    H162681   5.652   4.047   1.183 -0.0826  1.1680  0.0851
13730TIP3    H262682   5.593   4.162   1.262  1.4562  1.2369  1.1856
13731TIP3   OH262683   3.899   2.541   5.613 -0.4734 -0.0075  0.3106
13731TIP3    H162684   3.992   2.544   5.590 -0.1459  1.8951  1.6821
13731TIP3    H262685   3.894   2.587   5.697 -2.4157 -1.6117  1.1665
13732TIP3   OH262686   1.571   1.393  13.618 -0.3194 -0.9597  0.9072
13732TIP3    H162687   1.620   1.447  13.557 -0.3540 -0.4847  1.2975
13732TIP3    H262688   1.597   1.303  13.597 -0.3818 -0.8098  0.1534
13733TIP3   OH262689   6.552   1.325  14.171 -0.6375 -0.1668 -0.4140
13733TIP3    H162690   6.554   1.367  14.085  0.5423 -0.2192 -0.4262
13733TIP3    H262691   6.465   1.285  14.176 -1.2857  1.1163 -0.9545
13734TIP3   OH262692   6.285   3.623  13.290  0.1376 -0.7213  0.1067
13734TIP3    H162693   6.301   3.654  13.379  0.2671  1.9182 -0.7470
13734TIP3    H262694   6.326   3.537  13.286  2.0310  0.0307  1.9818
13735TIP3   OH262695   6.490   3.696   6.041 -0.1472  0.3336  0.2021
13735TIP3    H162696   6.576   3.669   6.071  1.2510 -1.6076 -4.6448
13735TIP3    H262697   6.430   3.629   6.075  0.5682  0.3591  1.6032
13736TIP3   OH262698   4.182   3.709  16.920  0.4003 -0.1033  0.3569
13736TIP3    H162699   4.268   3.667  16.921  0.6070  0.2845 -0.4487
13736TIP3    H262700   4.128   3.656  16.979  0.9265 -0.9099  0.1240
13737TIP3   OH262701   3.164   1.993   6.199  0.0860 -0.0382  0.3790
13737TIP3    H162702   3.209   2.075   6.219  1.5250 -0.7407  0.1616
13737TIP3    H262703   3.166   1.944   6.281 -0.0914 -0.1642  0.3089
13738TIP3   OH262704   3.421   4.211   2.882  0.0198  0.0596  0.0135
13738TIP3    H162705   3.353   4.146   2.863  0.9083 -1.1031  0.6705
13738TIP3    H262706   3.410   4.230   2.975  0.3398  0.1704  0.0300
13739TIP3   OH262707   1.547   5.487  15.038  0.4037 -0.1673  0.0522
13739TIP3    H162708   1.576   5.397  15.053 -1.6693 -0.7608  0.8020
13739TIP3    H262709   1.545   5.527  15.124  1.4744  0.6950 -0.2944
13740TIP3   OH262710   5.502   4.015  11.179 -0.0593 -0.5298 -0.5649
13740TIP3    H162711   5.522   4.068  11.256 -2.1308  0.2868 -0.5384
13740TIP3    H262712   5.549   4.058  11.108 -1.9178  1.6304 -0.6100
13741TIP3   OH262713   5.204   2.972  11.781  0.0944  0.2152 -0.3283
13741TIP3    H162714   5.141   2.916  11.826 -0.9261  0.0267 -1.9339
13741TIP3    H262715   5.156   3.008  11.707  2.0332 -0.4597 -2.0097
13742TIP3   OH262716   3.010   2.099  16.937 -0.2755 -0.4797  0.3771
13742TIP3    H162717   3.052   2.097  16.851  0.9806 -1.2124  0.9811
13742TIP3    H262718   2.974   2.011  16.948 -0.8296 -0.2495  0.4228
13743TIP3   OH262719   0.793   2.011  12.960  0.4184 -0.4882  0.7050
13743TIP3    H162720   0.813   1.919  12.980  0.4433 -0.7616 -0.5013
13743TIP3    H262721   0.781   2.012  12.865  1.3774  0.9358  0.5774
13744TIP3   OH262722   3.112   5.382  14.886 -0.4357 -0.2395 -0.2037
13744TIP3    H162723   3.061   5.303  14.903 -0.0415 -0.3556  0.4731
13744TIP3    H262724   3.141   5.372  14.795  2.1105 -2.3661  0.7058
13745TIP3   OH262725   0.976   1.790   0.324 -0.0653  0.7160  0.0081
13745TIP3    H162726   0.897   1.806   0.273 -1.1715  0.5768  1.5789
13745TIP3    H262727   1.016   1.876   0.335 -1.7673  1.3667  1.8426
13746TIP3   OH262728   6.120   0.895  12.501  0.1890  0.3133  0.4393
13746TIP3    H162729   6.047   0.839  12.475 -0.0161  0.7899 -0.0114
13746TIP3    H262730   6.197   0.838  12.495 -0.1701 -0.2865  1.2242
13747TIP3   OH262731   4.457   6.659   1.175  0.0599  0.2917  0.1230
13747TIP3    H162732   4.392   6.670   1.244  0.4266  2.9263  0.1230
13747TIP3    H262733   4.419   6.591   1.118 -0.6682 -1.2854  2.3302
13748TIP3   OH262734   6.616   6.351  14.372 -0.3094 -0.5681  0.5023
13748TIP3    H162735   6.665   6.299  14.308  0.1500 -1.4055  1.5083
13748TIP3    H262736   6.527   6.356  14.335  0.6702  1.9626 -1.9368
13749TIP3   OH262737   4.314   0.463   5.519  0.2108 -0.0580 -0.1296
13749TIP3    H162738   4.250   0.393   5.533  0.5742 -0.8787 -2.1810
13749TIP3    H262739   4.263   0.543   5.515 -0.5691 -0.5764 -0.7003
13750TIP3   OH262740   5.336   3.179  15.962 -0.1110 -0.0954  0.1945
13750TIP3    H162741   5.393   3.249  15.930  0.1716 -0.3566  0.1214
13750TIP3    H262742   5.268   3.224  16.011 -0.8369  0.3639 -1.1724
13751TIP3   OH262743   3.172   0.511  16.134 -0.1329  0.0996 -0.5843
13751TIP3    H162744   3.214   0.561  16.064 -0.5306  1.3954  0.0731
13751TIP3    H262745   3.080   0.505  16.108  0.1908 -1.8441 -1.5095
13752TIP3   OH262746   1.096   5.815   5.833 -0.1464 -0.0557  0.3543
13752TIP3    H162747   1.182   5.790   5.865  0.7522  2.4106  0.0692
13752TIP3    H262748   1.081   5.903   5.868 -0.7670  1.2373 -2.7435
13753TIP3   OH262749   5.944   0.123   3.061 -0.2495  0.2733 -0.3470
13753TIP3    H162750   5.859   0.109   3.019 -0.6912 -0.7003  0.8130
13753TIP3    H262751   5.965   0.215   3.041 -0.9762  0.1855 -1.6675
13754TIP3   OH262752   6.179   5.331   1.312  0.1611  0.4534 -0.1844
13754TIP3    H162753   6.166   5.397   1.380 -0.5957 -0.4223  0.5461
13754TIP3    H262754   6.129   5.255   1.342  1.0824 -0.4940 -0.9570
13755TIP3   OH262755   0.754   3.329   5.968  0.3491 -0.8027  0.1454
13755TIP3    H162756   0.806   3.355   6.044  1.5839 -0.8197 -0.6617
13755TIP3    H262757   0.663   3.346   5.993  0.8464  0.5657  1.0801
13756TIP3   OH262758   2.543   1.601   0.305  0.1959  0.2121 -0.7679
13756TIP3    H162759   2.617   1.541   0.306  1.2634  1.4907  0.2132
13756TIP3    H262760   2.568   1.672   0.365 -2.5633 -0.2221  1.0900
13757TIP3   OH262761   3.191   5.107   3.470  0.2017  0.8035 -0.2461
13757TIP3    H162762   3.259   5.077   3.531  1.1530  1.7871 -0.7792
13757TIP3    H262763   3.109   5.073   3.506  0.6614  1.8257  1.9098
13758TIP3   OH262764   0.806   6.589   4.492  0.3812  0.0666  0.2702
13758TIP3    H162765   0.847   6.507   4.519  0.6742 -0.0880 -0.6071
13758TIP3    H262766   0.827   6.651   4.562  2.2986  0.0501 -0.2558
13759TIP3   OH262767   6.087   5.739  10.785 -0.0275 -0.2632  0.0793
13759TIP3    H162768   6.054   5.805  10.725 -2.1809 -0.1689  1.2662
13759TIP3    H262769   6.134   5.677  10.730 -0.1309  0.9166 -1.3837
13760TIP3   OH262770   5.886   3.705   2.214 -0.2970 -0.0962  0.2286
13760TIP3    H162771   5.800   3.736   2.183 -0.5347 -0.9039  0.0533
13760TIP3    H262772   5.947   3.773   2.187 -0.6815 -0.1762 -0.9222
13761TIP3   OH262773   6.732   3.644   6.150 -0.0285  0.4370 -0.0113
13761TIP3    H162774   6.784   3.572   6.187 -2.7049 -0.8058  1.6348
13761TIP3    H262775   6.794   3.716   6.140  2.9113 -2.1378 -2.1285
13762TIP3   OH262776   6.023   2.647   5.260  0.4440  0.1564 -0.2680
13762TIP3    H162777   6.074   2.663   5.339  1.5841  0.0761 -0.9660
13762TIP3    H262778   5.949   2.707   5.267  0.2263 -0.2289  1.1026
13763TIP3   OH262779   2.910   6.198   2.794  0.1878 -0.4632 -0.2858
13763TIP3    H162780   2.965   6.245   2.730  0.3945 -1.9394 -1.2527
13763TIP3    H262781   2.825   6.191   2.751 -0.4315  0.6970  0.6798
13764TIP3   OH262782   1.058   2.413  10.240 -0.0709  0.7586 -0.0154
13764TIP3    H162783   1.093   2.329  10.268  1.4126  1.0989 -0.7122
13764TIP3    H262784   0.981   2.391  10.187  0.0107 -0.1202  0.2135
13765TIP3   OH262785   6.623   5.026   2.189 -0.2281  0.5628 -0.5441
13765TIP3    H162786   6.668   5.019   2.105 -0.8091  0.3889 -0.8477
13765TIP3    H262787   6.594   5.118   2.193 -0.7228  0.4197 -0.8087
13766TIP3   OH262788   5.418   5.604  11.385 -0.3586  0.1543  0.3422
13766TIP3    H162789   5.438   5.670  11.320  0.6032  1.5160  1.9596
13766TIP3    H262790   5.431   5.521  11.339  1.5788  1.0424 -0.8302
13767TIP3   OH262791   1.298   5.015  16.061  0.0845 -0.2861  0.5424
13767TIP3    H162792   1.231   5.058  16.115  1.3563  1.9801  0.4350
13767TIP3    H262793   1.369   4.996  16.122  0.7822  0.6007  0.0201
13768TIP3   OH262794   2.182   5.482   4.074 -0.0950  0.1230  0.5548
13768TIP3    H162795   2.225   5.552   4.024 -1.9900 -0.2896 -1.8448
13768TIP3    H262796   2.098   5.520   4.100  0.2559 -0.1810  2.2441
13769TIP3   OH262797   0.405   6.078  12.890 -0.2992 -0.2303 -0.0683
13769TIP3    H162798   0.360   6.012  12.837  0.7237  0.7114 -2.2470
13769TIP3    H262799   0.364   6.161  12.865  0.5953  0.3006  0.1835
13770TIP3   OH262800   2.666   4.858  16.452 -0.4368 -0.3290  0.0312
13770TIP3    H162801   2.607   4.799  16.498 -0.1495  0.3100  1.2698
13770TIP3    H262802   2.723   4.800  16.402 -1.3133 -1.0072 -0.2140
13771TIP3   OH262803   1.926   2.741  13.775 -0.4420 -0.4522 -0.6674
13771TIP3    H162804   1.833   2.730  13.755 -0.6719  0.9646 -0.4812
13771TIP3    H262805   1.942   2.680  13.847 -0.7399 -2.1386 -1.9744
13772TIP3   OH262806   2.309   4.627   1.737  0.0979  0.2835 -0.0334
13772TIP3    H162807   2.251   4.649   1.810  0.7531  0.8239  0.3373
13772TIP3    H262808   2.361   4.554   1.770 -0.3901 -0.2356 -0.3850
13773TIP3   OH262809   3.338   3.045  16.822 -0.3073 -0.0187 -0.2864
13773TIP3    H162810   3.396   2.971  16.841  1.4880  1.0055 -1.4462
13773TIP3    H262811   3.330   3.091  16.905  1.0601  0.1288 -0.2039
13774TIP3   OH262812   1.215   2.648   5.392 -0.0084 -0.3957  0.2660
13774TIP3    H162813   1.192   2.563   5.355 -0.6957  0.7620 -2.1910
13774TIP3    H262814   1.310   2.652   5.385 -0.0423 -0.6433 -0.4220
13775TIP3   OH262815   3.786   3.608   4.473  0.4650 -0.4487  0.2635
13775TIP3    H162816   3.713   3.575   4.421  0.5835  1.2467 -1.0915
13775TIP3    H262817   3.764   3.586   4.563 -1.1501 -0.9952 -0.2391
13776TIP3   OH262818   6.257   1.555   0.301 -0.2488 -0.6928  0.1871
13776TIP3    H162819   6.179   1.524   0.347 -1.3454 -1.7932 -2.2330
13776TIP3    H262820   6.309   1.476   0.287  1.9195  0.1582  2.6546
13777TIP3   OH262821   1.610   2.653  14.365 -0.3893  0.1688  0.0911
13777TIP3    H162822   1.676   2.584  14.365 -0.0163  0.4855 -1.3422
13777TIP3    H262823   1.529   2.609  14.337 -0.5712 -0.0300  0.9160
13778TIP3   OH262824   5.234   3.011   6.091  0.0410 -0.5284 -0.1617
13778TIP3    H162825   5.245   3.097   6.132  1.5488 -0.7031 -0.1328
13778TIP3    H262826   5.276   3.020   6.005  1.6171 -1.6511  0.4453
13779TIP3   OH262827   5.036   3.876  15.871 -0.0732 -0.0791  0.1004
13779TIP3    H162828   4.957   3.854  15.821 -0.2096  0.1885  0.1925
13779TIP3    H262829   5.003   3.930  15.944  0.3932  1.5696 -0.8595
13780TIP3   OH262830   1.272   5.293  11.809  0.2825 -0.3907 -0.2187
13780TIP3    H162831   1.188   5.299  11.763  0.3061 -1.0841 -0.3586
13780TIP3    H262832   1.267   5.362  11.875 -0.2890 -0.2477 -0.3970
13781TIP3   OH262833   6.504   6.007   3.005  0.1265 -0.1912 -0.0096
13781TIP3    H162834   6.499   5.986   2.912 -3.7616 -2.2792  0.4817
13781TIP3    H262835   6.511   6.102   3.007  1.8615 -0.1594 -2.3386
13782TIP3   OH262836   3.741   6.655  10.768 -0.2590 -0.1781 -0.1227
13782TIP3    H162837   3.771   6.745  10.758 -1.4653  0.2175 -0.3253
13782TIP3    H262838   3.681   6.642  10.694 -0.0522 -1.1706 -0.1283
13783TIP3   OH262839   2.067   4.091  14.899 -0.5716  0.4190 -0.8392
13783TIP3    H162840   2.156   4.124  14.908  1.0532 -3.9462  4.5754
13783TIP3    H262841   2.014   4.148  14.955 -0.2181  0.3627 -0.4496
13784TIP3   OH262842   0.478   6.601  16.071 -0.7700 -0.3431 -0.8823
13784TIP3    H162843   0.509   6.511  16.084 -0.9087 -0.2138  0.5350
13784TIP3    H262844   0.537   6.637  16.005 -0.8493 -1.5350 -1.6424
13785TIP3   OH262845   4.472   5.421   0.008  0.4919 -0.2294  0.1144
13785TIP3    H162846   4.460   5.403  -0.085  0.9340  1.5643 -0.3304
13785TIP3    H262847   4.388   5.398   0.047 -0.9812  2.2530 -1.3138
13786TIP3   OH262848   0.394   6.539   6.067 -0.4606 -0.4024 -0.4785
13786TIP3    H162849   0.319   6.584   6.029 -0.5827 -1.1058 -1.0935
13786TIP3    H262850   0.445   6.608   6.109 -1.1156  0.1713 -0.6153
13787TIP3   OH262851   2.784   0.451  16.495 -0.4702  0.5220  0.0767
13787TIP3    H162852   2.692   0.452  16.468 -0.2516  1.0189 -0.7011
13787TIP3    H262853   2.831   0.416  16.420 -0.0123  0.3629  0.4316
13788TIP3   OH262854   4.152   1.734  14.049 -0.2195 -0.1864  0.3232
13788TIP3    H162855   4.065   1.750  14.011  0.0763  0.8590  0.0520
13788TIP3    H262856   4.188   1.822  14.063  1.5748 -0.6069 -1.3497
13789TIP3   OH262857   5.375   3.989   0.389  0.1806 -0.5765  0.9385
13789TIP3    H162858   5.361   3.899   0.419  0.5311  0.2477  3.9175
13789TIP3    H262859   5.465   4.009   0.415 -0.5799  1.2914  2.3715
13790TIP3   OH262860   2.988   1.216   2.072 -0.1006 -0.3295 -0.3856
13790TIP3    H162861   2.927   1.169   2.015 -1.4647  0.3418  0.4557
13790TIP3    H262862   2.937   1.236   2.151  1.6236 -0.9175  0.9413
13791TIP3   OH262863   2.797   1.345   5.756  0.1831  0.0031 -0.2121
13791TIP3    H162864   2.881   1.389   5.766  0.3824 -0.3844 -0.1856
13791TIP3    H262865   2.788   1.332   5.661  0.9542 -1.4990 -0.1045
13792TIP3   OH262866   2.844   0.622  14.219  0.1268 -0.0448 -0.4648
13792TIP3    H162867   2.857   0.599  14.311  0.3629 -0.2901 -0.5588
13792TIP3    H262868   2.770   0.683  14.220 -0.8189 -1.1622 -0.2640
13793TIP3   OH262869   2.836   6.228   3.519  0.1438  0.0465  0.4173
13793TIP3    H162870   2.824   6.319   3.492 -1.0665 -0.0283  0.6453
13793TIP3    H262871   2.881   6.234   3.604 -0.7899  0.4821  0.8990
13794TIP3   OH262872   0.923   3.225  11.083 -0.3048 -0.1279 -0.0767
13794TIP3    H162873   0.960   3.204  10.998 -4.3402 -2.6076 -1.5116
13794TIP3    H262874   0.871   3.304  11.068  1.2908  1.1934  0.9726
13795TIP3   OH262875   5.935   2.837   5.844  0.0847  0.4254 -0.5392
13795TIP3    H162876   5.914   2.931   5.841  0.4806  0.5863  0.8240
13795TIP3    H262877   5.968   2.823   5.933  0.7478 -0.8635 -0.9608
13796TIP3   OH262878   2.846   2.609  10.891 -0.1125 -0.0062  0.2145
13796TIP3    H162879   2.922   2.624  10.947 -0.7171 -0.1246  1.0818
13796TIP3    H262880   2.814   2.522  10.917  0.0458 -0.4009 -0.8558
13797TIP3   OH262881   6.663   2.314   2.535  0.1035 -0.4464 -0.0602
13797TIP3    H162882   6.752   2.278   2.534 -0.4070 -1.8365 -2.1365
13797TIP3    H262883   6.606   2.238   2.523 -1.5478  0.1662  2.9161
13798TIP3   OH262884   4.862   0.514   5.930  0.2695 -0.0266 -0.1837
13798TIP3    H162885   4.835   0.586   5.873  2.6121  0.1897 -1.1428
13798TIP3    H262886   4.784   0.493   5.982 -1.7526  0.3232 -2.8652
13799TIP3   OH262887   0.610   1.424   5.637  0.1224  0.4990 -0.0766
13799TIP3    H162888   0.614   1.328   5.637 -0.0672  0.4920  0.5036
13799TIP3    H262889   0.691   1.451   5.593  0.2019  0.0777 -0.1943
13800TIP3   OH262890   4.867   6.325  12.068 -0.2410 -0.2935 -0.0606
13800TIP3    H162891   4.795   6.280  12.025  1.0538  0.2199 -3.0362
13800TIP3    H262892   4.906   6.378  11.999  1.2855  1.6030  2.1279
13801TIP3   OH262893   1.869   1.215  15.965  0.7407 -0.1486  0.3942
13801TIP3    H162894   1.921   1.150  16.013 -0.2638 -0.9272  0.4513
13801TIP3    H262895   1.834   1.168  15.890  0.3229  0.4300  0.2188
13802TIP3   OH262896   0.366   6.580  10.878 -0.0490  0.0483  0.1911
13802TIP3    H162897   0.350   6.579  10.783 -0.4429  1.7682  0.2070
13802TIP3    H262898   0.283   6.551  10.916  0.2872 -1.1932  0.0163
13803TIP3   OH262899   2.049   3.806  11.429  0.1800 -0.3465  0.4257
13803TIP3    H162900   2.074   3.751  11.355  0.0317 -0.5159  0.5018
13803TIP3    H262901   1.961   3.837  11.408  1.3338  2.2740 -1.0445
13804TIP3   OH262902   5.003   5.720   4.255  0.4413 -0.4319  0.4761
13804TIP3    H162903   5.026   5.642   4.206 -0.2662 -1.9696  2.4332
13804TIP3    H262904   4.945   5.688   4.325 -2.0348  2.1983 -0.1553
13805TIP3   OH262905   0.106   1.972   2.457  0.1031 -0.3263 -0.1319
13805TIP3    H162906   0.051   2.005   2.386  1.9649 -0.4818 -1.7077
13805TIP3    H262907   0.130   1.883   2.429 -0.1296 -0.8675  1.2981
13806TIP3   OH262908   1.931   3.486   5.608 -0.3737  0.0431 -0.2511
13806TIP3    H162909   2.021   3.510   5.583  0.3181 -1.2982  0.8100
13806TIP3    H262910   1.942   3.425   5.681 -2.1978  2.0923  1.9042
13807TIP3   OH262911   6.827   5.409  15.791  0.1167 -0.7838  0.3692
13807TIP3    H162912   6.744   5.390  15.748  0.1999 -0.0946 -0.1181
13807TIP3    H262913   6.851   5.496  15.759  1.5194 -1.3771 -0.2815
13808TIP3   OH262914   0.534   0.749   5.774  0.1622  0.2599 -0.1567
13808TIP3    H162915   0.487   0.766   5.855 -0.2697  1.0410 -0.5551
13808TIP3    H262916   0.598   0.681   5.797 -0.9575 -0.6176  0.4525
13809TIP3   OH262917   5.622   6.054   6.410  0.3038 -0.6899 -0.0469
13809TIP3    H162918   5.590   5.964   6.408  0.3137 -0.6753 -1.3707
13809TIP3    H262919   5.667   6.066   6.327  0.1971  0.5781  0.0577
13810TIP3   OH262920   5.390   6.219  14.940 -0.0643 -0.5510  0.1175
13810TIP3    H162921   5.340   6.264  14.872  0.7409 -0.0738 -0.1790
13810TIP3    H262922   5.481   6.225  14.911  0.4945  0.9502  1.9035
13811TIP3   OH262923   0.500   3.270  15.878  0.2687 -0.0633 -0.1739
13811TIP3    H162924   0.487   3.346  15.820 -1.2196  1.9259  2.5082
13811TIP3    H262925   0.457   3.198  15.833 -0.4642  1.2745 -1.7454
13812TIP3   OH262926   5.382   6.524   5.760 -0.0717  0.1979 -0.4459
13812TIP3    H162927   5.468   6.481   5.756  0.8587  1.9757 -0.5496
13812TIP3    H262928   5.378   6.577   5.681 -0.8764  0.8497  0.0185
13813TIP3   OH262929   0.494   3.707   3.848 -0.1303 -0.1868 -0.1972
13813TIP3    H162930   0.424   3.709   3.783  0.1159  1.8373 -0.4663
13813TIP3    H262931   0.562   3.653   3.810 -1.2574 -1.6399 -0.2160
13814TIP3   OH262932   3.847   3.227   0.559  0.2312 -0.4314  0.4090
13814TIP3    H162933   3.798   3.270   0.629  2.0762  1.3539  0.6920
13814TIP3    H262934   3.923   3.188   0.602  0.6104 -0.6070 -0.3984
13815TIP3   OH262935   2.780   0.450  13.236  0.4426  0.5239 -0.3396
13815TIP3    H162936   2.691   0.425  13.209  0.8295 -1.2529 -0.0869
13815TIP3    H262937   2.767   0.499  13.318 -0.4552  2.6947 -1.6605
13816TIP3   OH262938   2.419   4.107  15.300 -0.0453  0.1125 -0.8160
13816TIP3    H162939   2.411   4.028  15.354  0.9744 -0.0238 -0.8579
13816TIP3    H262940   2.443   4.074  15.213  0.1465  0.4514 -0.8912
13817TIP3   OH262941   1.398   5.364  16.116 -0.9889  0.1972 -0.0652
13817TIP3    H162942   1.367   5.402  16.198 -1.3193  0.1059 -0.1438
13817TIP3    H262943   1.331   5.390  16.052  0.2399  1.9562 -0.7264
13818TIP3   OH262944   4.593   2.543  13.258  0.4323  0.6087  0.4478
13818TIP3    H162945   4.570   2.621  13.309 -0.4269  1.3586 -1.0175
13818TIP3    H262946   4.591   2.573  13.167 -1.1979 -1.4300 -0.2529
13819TIP3   OH262947   1.653   4.189   4.117  0.1940 -0.3899 -0.4184
13819TIP3    H162948   1.680   4.270   4.162  1.7942 -0.8164 -0.5262
13819TIP3    H262949   1.648   4.124   4.187 -0.6175 -0.3216 -0.4032
13820TIP3   OH262950   2.936   1.109   4.840 -0.7108  0.4269  0.1024
13820TIP3    H162951   2.895   1.187   4.801 -0.4447  0.3345 -0.3662
13820TIP3    H262952   2.902   1.036   4.788 -1.0741  0.2119  0.6352
13821TIP3   OH262953   5.959   2.933   3.648  0.5836  0.1658 -0.4034
13821TIP3    H162954   5.952   2.954   3.741  0.7646 -1.2755 -0.0421
13821TIP3    H262955   5.959   3.018   3.604  2.3128  0.9600  1.0241
13822TIP3   OH262956   1.016   6.396  10.599  0.1218  0.1536  0.5028
13822TIP3    H162957   1.013   6.486  10.566  0.0603 -1.1816 -3.8673
13822TIP3    H262958   0.931   6.382  10.641 -0.9299  1.4605 -1.0549
13823TIP3   OH262959   4.881   5.957   3.343  0.4265 -0.0401 -0.3766
13823TIP3    H162960   4.825   6.015   3.395 -1.1451 -1.6552 -0.1679
13823TIP3    H262961   4.962   5.950   3.394 -0.2982  0.0370  0.8246
13824TIP3   OH262962   5.688   1.275   1.176 -0.1948 -0.3296  0.7948
13824TIP3    H162963   5.780   1.269   1.201 -0.2839 -0.2916  1.1360
13824TIP3    H262964   5.659   1.358   1.214 -0.1273  0.1092 -0.0983
13825TIP3   OH262965   5.897   1.428  16.739  0.4014  0.2114 -0.1355
13825TIP3    H162966   5.982   1.384  16.739  0.8333  1.0003  0.6474
13825TIP3    H262967   5.918   1.520  16.729 -0.5362  0.2206 -2.4758
13826TIP3   OH262968   2.766   0.994   0.847 -0.6983  0.1205 -0.6616
13826TIP3    H162969   2.700   1.015   0.781  2.4839 -0.6936 -4.5495
13826TIP3    H262970   2.803   0.910   0.818  2.0143  0.5387  1.1919
13827TIP3   OH262971   2.022   0.566   2.674  0.3250 -0.2600 -0.7570
13827TIP3    H162972   1.934   0.551   2.710  0.8654  0.9461  1.1904
13827TIP3    H262973   2.080   0.514   2.729  1.3367  2.7152  1.2300
13828TIP3   OH262974   5.776   3.429  15.140 -0.3150 -0.1324 -0.0357
13828TIP3    H162975   5.870   3.417  15.147 -0.4639 -0.6581  1.1815
13828TIP3    H262976   5.739   3.341  15.148 -0.8109 -0.3804 -3.4830
13829TIP3   OH262977   2.359   6.503   0.976  0.0832 -0.0444  0.4037
13829TIP3    H162978   2.394   6.557   1.047  1.7675  0.9212 -1.1048
13829TIP3    H262979   2.436   6.475   0.926 -1.0224 -1.1151 -0.7750
13830TIP3   OH262980   5.455   1.914   0.380  0.0219  0.1018 -0.0466
13830TIP3    H162981   5.537   1.873   0.352  1.9737  1.9827  2.3838
13830TIP3    H262982   5.437   1.978   0.312  1.1832  0.3583 -0.1458
13831TIP3   OH262983   0.155   2.383  16.024  0.2730  0.0348  0.1553
13831TIP3    H162984   0.249   2.392  16.011  0.5071  2.4821  2.6538
13831TIP3    H262985   0.145   2.303  16.076  0.8548 -0.5841 -0.6540
13832TIP3   OH262986   1.968   6.807   1.011  0.0566  0.8816  0.2039
13832TIP3    H162987   1.971   6.770   0.923  0.9276 -0.6849  0.8309
13832TIP3    H262988   2.051   6.855   1.020 -0.0589  1.0910  0.1407
13833TIP3   OH262989   4.200   1.301   0.341  0.6460 -0.2936 -0.5181
13833TIP3    H162990   4.157   1.364   0.284  0.6077  0.4132  0.2759
13833TIP3    H262991   4.149   1.220   0.331  1.7266 -0.7917 -2.9036
13834TIP3   OH262992   6.365   3.096  11.635  0.2756 -0.1201  0.0214
13834TIP3    H162993   6.385   3.075  11.543 -0.5639  0.5416 -0.3222
13834TIP3    H262994   6.316   3.178  11.630  1.9147  1.0032  1.1870
13835TIP3   OH262995   0.246   1.061   0.733  0.0406 -0.0368  0.6582
13835TIP3    H162996   0.192   1.079   0.811  0.1160  1.1313  0.4627
13835TIP3    H262997   0.279   0.972   0.747 -0.9981 -0.3465  1.3351
13836TIP3   OH262998   1.240   2.212   0.624 -0.1584 -0.3093  0.0246
13836TIP3    H162999   1.237   2.126   0.666 -1.1232 -1.6497 -2.5633
13836TIP3    H263000   1.165   2.259   0.661 -0.3067 -0.9985  0.6326
13837TIP3   OH263001   1.431   4.297  12.866  0.8103 -0.2690 -0.2588
13837TIP3    H163002   1.402   4.274  12.778  0.9392 -0.9658 -0.1199
13837TIP3    H263003   1.351   4.327  12.910  0.4896 -1.1636 -0.2106
13838TIP3   OH263004   0.451   1.272   0.882  0.1817 -0.7615  0.1359
13838TIP3    H163005   0.509   1.314   0.818  0.4286  1.0898  1.5058
13838TIP3    H263006   0.374   1.246   0.831  0.3482  0.7014 -0.9285
13839TIP3   OH263007   6.044   6.332   0.164 -0.3531  0.4443  0.1481
13839TIP3    H163008   5.971   6.278   0.196 -0.0108 -0.0069  0.1878
13839TIP3    H263009   6.122   6.282   0.189 -0.0662  0.3604 -0.9013
13840TIP3   OH263010   6.278   0.713  14.337 -0.1412 -0.0655  0.1005
13840TIP3    H163011   6.331   0.659  14.396 -0.9381 -1.8494 -0.7131
13840TIP3    H263012   6.240   0.650  14.275 -1.1708  1.4548 -0.8917
13841TIP3   OH263013   3.730   6.645   3.540 -0.2022  0.8754  0.0851
13841TIP3    H163014   3.688   6.560   3.527  0.9539  0.1012  1.2218
13841TIP3    H263015   3.713   6.693   3.459 -2.0009  0.0664 -0.0584
13842TIP3   OH263016   4.026   5.823   5.740 -0.1946 -0.4200  0.8703
13842TIP3    H163017   4.095   5.879   5.705 -1.6718  0.2231 -1.1922
13842TIP3    H263018   4.027   5.839   5.834  2.2152 -0.1964  0.8652
13843TIP3   OH263019   6.550   3.659   3.405 -0.0385 -0.2646 -0.1000
13843TIP3    H163020   6.530   3.749   3.431 -0.4500 -0.5299  0.5069
13843TIP3    H263021   6.468   3.611   3.418  0.3048 -0.8276  0.0230
13844TIP3   OH263022   2.316   1.929  16.268 -0.4491  0.2480 -0.2257
13844TIP3    H163023   2.255   1.869  16.309 -1.2054  2.3895  2.0123
13844TIP3    H263024   2.263   1.979  16.206 -0.2217 -0.1437 -0.7400
13845TIP3   OH263025   0.698   3.961  14.648  0.0113 -0.0489  0.1427
13845TIP3    H163026   0.776   3.950  14.702 -0.2201  0.5529  0.6124
13845TIP3    H263027   0.723   4.028  14.584 -0.1373  0.2138  0.3526
13846TIP3   OH263028   5.608   1.237  16.192 -0.0398  0.4532 -0.0004
13846TIP3    H163029   5.580   1.146  16.197 -0.5322  0.4946 -1.4430
13846TIP3    H263030   5.534   1.287  16.227 -1.7525  0.5253 -3.3032
13847TIP3   OH263031   6.040   6.601   0.149  0.5319 -0.0924 -0.0988
13847TIP3    H163032   6.008   6.613   0.060 -1.1703  0.7007  0.5763
13847TIP3    H263033   6.032   6.507   0.166 -0.6672 -0.0339 -0.2544
13848TIP3   OH263034   4.292   3.855   4.097  0.1144 -0.1440  0.0107
13848TIP3    H163035   4.319   3.872   4.188 -2.7919 -2.2815  1.4413
13848TIP3    H263036   4.278   3.943   4.061 -0.3706  0.7917  2.2431
13849TIP3   OH263037   1.730   1.447   4.295 -0.1268 -0.6051 -0.5846
13849TIP3    H163038   1.670   1.509   4.252 -0.2846 -0.5061 -0.2244
13849TIP3    H263039   1.695   1.361   4.274  0.2440 -0.5943 -1.3156
13850TIP3   OH263040   2.741   2.782   2.974  0.3415 -0.6942 -0.1006
13850TIP3    H163041   2.698   2.770   2.889  0.5119 -0.4779 -0.2184
13850TIP3    H263042   2.818   2.835   2.954 -0.6938  1.1245  0.4759
13851TIP3   OH263043   3.348   1.338  14.590  0.2871  0.0867  0.3878
13851TIP3    H163044   3.415   1.339  14.522  0.8638 -1.1803  0.9044
13851TIP3    H263045   3.280   1.280  14.555  0.1746  0.1403  0.5179
13852TIP3   OH263046   4.377   2.074   5.213  0.5529  0.4832  0.3084
13852TIP3    H163047   4.423   2.138   5.159  0.3560  2.8128  2.6766
13852TIP3    H263048   4.445   2.038   5.270  0.4509 -0.6298 -0.2443
13853TIP3   OH263049   1.434   1.402   3.974  0.4437 -0.5139 -0.5068
13853TIP3    H163050   1.368   1.369   4.035 -1.2846  1.4465 -1.2026
13853TIP3    H263051   1.427   1.345   3.898  1.3690 -1.8748  0.3935
13854TIP3   OH263052   1.202   6.399   5.619  0.0224 -0.0856  0.1692
13854TIP3    H163053   1.137   6.418   5.552 -0.3642 -1.2228  0.1973
13854TIP3    H263054   1.191   6.468   5.684 -0.0281  0.6657 -0.6220
13855TIP3   OH263055   5.404   1.745   1.976 -0.1542 -0.8619 -0.1261
13855TIP3    H163056   5.348   1.701   2.040 -1.0178 -1.3814 -1.2154
13855TIP3    H263057   5.352   1.821   1.948  0.5741 -0.1580  0.4024
13856TIP3   OH263058   1.895   3.038   0.311 -0.2869 -0.5022 -0.0579
13856TIP3    H163059   1.911   2.981   0.236 -0.5617 -0.5070 -0.1171
13856TIP3    H263060   1.938   2.994   0.385  1.0791  0.1508 -0.4527
13857TIP3   OH263061   3.102   3.560  16.223  0.6911  0.6251 -0.6122
13857TIP3    H163062   3.031   3.544  16.285 -0.6177  1.4438 -1.8343
13857TIP3    H263063   3.175   3.590  16.277  0.1205 -0.2156  0.6718
13858TIP3   OH263064   1.654   2.789   0.339 -0.3272  0.4559 -0.0035
13858TIP3    H163065   1.656   2.709   0.286 -1.2339  1.6581 -1.9643
13858TIP3    H263066   1.608   2.764   0.418  0.5400 -1.2701  0.0071
13859TIP3   OH263067   5.042   5.818  11.218  0.1159 -0.0219 -0.3812
13859TIP3    H163068   5.128   5.860  11.227  0.8212 -0.1832 -4.5385
13859TIP3    H263069   5.062   5.729  11.189 -1.4111 -0.0608 -1.4386
13860TIP3   OH263070   2.825   6.512   3.440  0.4871  0.0178  0.0998
13860TIP3    H163071   2.762   6.574   3.478  0.6641  0.7845 -0.8271
13860TIP3    H263072   2.890   6.567   3.397 -2.5502 -0.4877 -6.3579
13861TIP3   OH263073   5.297   6.604  12.964 -0.0433  0.1679  0.4033
13861TIP3    H163074   5.328   6.515  12.978  1.1690  0.4519 -0.3065
13861TIP3    H263075   5.202   6.596  12.954 -0.0507 -0.9196  1.2313
13862TIP3   OH263076   3.126   5.129  13.841  0.4000  0.6047 -0.6937
13862TIP3    H163077   3.173   5.085  13.770 -0.3570 -0.7608 -0.3845
13862TIP3    H263078   3.084   5.058  13.889 -1.7807  1.7433 -0.8016
13863TIP3   OH263079   2.256   1.929   2.220  0.3564 -0.1417  0.1917
13863TIP3    H163080   2.219   1.860   2.165  0.8963  0.5298 -1.0433
13863TIP3    H263081   2.195   1.936   2.294  0.3991 -2.0738  0.4727
13864TIP3   OH263082   2.255   0.339   2.633 -0.2817 -0.0608 -0.3290
13864TIP3    H163083   2.219   0.280   2.700 -1.9174  0.1871 -0.9502
13864TIP3    H263084   2.350   0.338   2.649 -0.3702 -1.9961  0.3586
13865TIP3   OH263085   6.594   0.236  13.305  0.0096  0.1357  0.3431
13865TIP3    H163086   6.533   0.168  13.274  0.6226 -0.9628  1.4585
13865TIP3    H263087   6.603   0.295  13.230  0.4558 -1.7220 -1.1874
13866TIP3   OH263088   2.274   4.342   0.585  0.3120  0.0840 -0.0077
13866TIP3    H163089   2.246   4.386   0.505 -0.1575  1.6954  1.0020
13866TIP3    H263090   2.361   4.378   0.603  0.6604 -0.6975 -0.0802
13867TIP3   OH263091   5.963   2.253   4.813  0.0690 -0.5296 -0.2708
13867TIP3    H163092   5.998   2.183   4.869 -0.7717 -1.1565 -0.5008
13867TIP3    H263093   5.905   2.303   4.870  0.7039  0.0036 -0.0955
13868TIP3   OH263094   0.560   4.840   2.444  0.0164 -0.2491 -0.1818
13868TIP3    H163095   0.601   4.759   2.413 -2.6757 -1.1024 -1.7876
13868TIP3    H263096   0.542   4.890   2.364 -0.5433  0.8519  0.6115
13869TIP3   OH263097   2.048   5.943   1.636 -0.6984  0.0023  0.0529
13869TIP3    H163098   2.140   5.917   1.628 -0.4140  0.9577  0.0674
13869TIP3    H263099   2.048   6.012   1.702 -1.0891  1.5811 -1.5203
13870TIP3   OH263100   5.135   4.666  14.589  0.0595  0.2027 -0.2309
13870TIP3    H163101   5.113   4.611  14.513 -0.3658 -0.5772  0.4379
13870TIP3    H263102   5.095   4.751  14.569  0.6888  0.2723 -1.2618
13871TIP3   OH263103   5.447   2.741   1.206  0.1355 -0.1180  0.2717
13871TIP3    H163104   5.488   2.670   1.255  2.1473  1.2829  0.7523
13871TIP3    H263105   5.507   2.756   1.132 -2.1698 -1.3456 -1.9862
13872TIP3   OH263106   3.753   5.669   3.654  0.4201  0.4765 -0.3324
13872TIP3    H163107   3.698   5.726   3.600 -0.3620  0.3585  0.3101
13872TIP3    H263108   3.826   5.724   3.682  0.8102  0.5492 -1.4507
13873TIP3   OH263109   6.114   6.000   0.450  0.0420  0.4524 -0.1044
13873TIP3    H163110   6.205   6.013   0.423 -0.3771  1.9786 -0.9336
13873TIP3    H263111   6.105   6.053   0.529  0.6037 -2.0228  1.6964
13874TIP3   OH263112   5.580   6.714  16.101 -0.0418 -0.3001 -0.1288
13874TIP3    H163113   5.579   6.645  16.167 -1.6740 -0.1758  0.0201
13874TIP3    H263114   5.612   6.792  16.147 -2.0661  0.0328  0.8359
13875TIP3   OH263115   1.422   0.319   3.929  0.1249 -0.3298  0.0529
13875TIP3    H163116   1.341   0.297   3.974  0.7960  0.0973  1.5323
13875TIP3    H263117   1.418   0.270   3.847 -1.7095 -0.1541 -0.0101
13876TIP3   OH263118   1.786   4.903  12.212 -0.3432  0.1658  0.2145
13876TIP3    H163119   1.836   4.964  12.158  3.0576 -0.1324  2.7196
13876TIP3    H263120   1.708   4.884  12.160  0.9065  2.6278 -2.9062
13877TIP3   OH263121   6.248   2.068   1.165  0.3266  0.3631  0.8695
13877TIP3    H163122   6.287   2.040   1.248  0.5524  0.2024  0.7090
13877TIP3    H263123   6.194   1.994   1.138 -0.1611  0.6195  1.1351
13878TIP3   OH263124   0.546   2.192   1.638  0.7133  0.4577 -0.4291
13878TIP3    H163125   0.522   2.284   1.648  0.4487  0.2760  0.7015
13878TIP3    H263126   0.642   2.191   1.646  0.8293  0.7605 -1.5862
13879TIP3   OH263127   4.744   1.614  14.148 -0.0504  0.1212  0.3974
13879TIP3    H163128   4.822   1.651  14.108  0.5409  0.0512  1.4478
13879TIP3    H263129   4.674   1.630  14.084  0.6461  0.9588 -0.1784
13880TIP3   OH263130   0.707   6.466  12.975  0.1252 -0.5365  0.3752
13880TIP3    H163131   0.794   6.426  12.974  0.2880 -0.2765  1.9999
13880TIP3    H263132   0.724   6.560  12.974 -0.1175 -0.4818  0.9979
13881TIP3   OH263133   5.160   2.757   6.120  0.0673  0.4355 -0.1484
13881TIP3    H163134   5.068   2.778   6.132  0.4533  1.2794  1.6325
13881TIP3    H263135   5.203   2.842   6.111  0.5890  0.0310 -2.0417
13882TIP3   OH263136   5.362   5.234   2.960 -0.3837 -0.1151 -0.4103
13882TIP3    H163137   5.335   5.211   3.049 -0.7191  0.2762 -0.4110
13882TIP3    H263138   5.429   5.168   2.938  1.1428  0.9353  0.8507
13883TIP3   OH263139   0.072   5.300   6.152 -0.1705  0.0978 -0.0539
13883TIP3    H163140   0.037   5.213   6.173 -1.6854  0.3070 -1.5251
13883TIP3    H263141   0.096   5.337   6.237 -0.1650 -1.4743  0.6644
13884TIP3   OH263142   2.587   1.758  16.422  0.2501  0.9521  0.6221
13884TIP3    H163143   2.507   1.758  16.475  0.0606 -2.3623  0.5609
13884TIP3    H263144   2.577   1.682  16.365  2.5144  1.7344 -0.9283
13885TIP3   OH263145   6.196   2.101  13.123 -0.0100 -0.3366  0.4467
13885TIP3    H163146   6.126   2.148  13.078 -0.3660 -1.3798 -0.1116
13885TIP3    H263147   6.158   2.074  13.207 -0.0044 -0.1830  0.4996
13886TIP3   OH263148   1.385   4.348   3.276  0.2116 -0.5460  0.1251
13886TIP3    H163149   1.377   4.443   3.276  2.6985 -0.2719  0.8672
13886TIP3    H263150   1.387   4.324   3.368 -0.0630 -1.2885 -0.0538
13887TIP3   OH263151   5.273   1.530   5.059  0.2369 -0.4095 -0.6895
13887TIP3    H163152   5.178   1.535   5.064  0.3488  0.5924  1.5222
13887TIP3    H263153   5.299   1.610   5.013  0.0884  0.2947  0.4279
13888TIP3   OH263154   3.576   1.823  11.539 -0.7892  0.3314  0.8154
13888TIP3    H163155   3.529   1.905  11.522 -0.4313  0.6732  1.4244
13888TIP3    H263156   3.539   1.761  11.476 -0.8635  1.0324  0.1511
13889TIP3   OH263157   5.926   2.423  16.291 -0.1136  0.0453 -0.1996
13889TIP3    H163158   5.889   2.366  16.223  0.9149  1.7978 -2.3748
13889TIP3    H263159   6.004   2.378  16.321 -0.6818 -0.8429 -0.0308
13890TIP3   OH263160   6.843   1.683  12.381 -0.5300  0.4116 -0.1104
13890TIP3    H163161   6.925   1.721  12.413 -0.2439  1.3589 -1.8828
13890TIP3    H263162   6.776   1.745  12.408 -0.5826  0.0626  0.5934
13891TIP3   OH263163   1.705   5.790   1.637 -0.1105  0.3215 -0.4648
13891TIP3    H163164   1.748   5.847   1.573 -1.4112  1.0055 -0.7776
13891TIP3    H263165   1.757   5.801   1.717  2.1554 -1.3274 -1.5982
13892TIP3   OH263166   2.573   2.284  13.995 -0.2075 -0.0277  0.5486
13892TIP3    H163167   2.548   2.375  14.011  0.1498  0.2519 -0.4158
13892TIP3    H263168   2.496   2.233  14.020 -1.3152  0.7234 -1.2069
13893TIP3   OH263169   2.046   2.257   2.335 -0.0366 -0.3080 -0.6689
13893TIP3    H163170   2.078   2.183   2.387  2.6732  1.7921  0.9653
13893TIP3    H263171   2.076   2.238   2.246  1.6828 -0.7080 -0.0565
13894TIP3   OH263172   6.676   0.453  14.750  0.0384 -0.3596  0.0637
13894TIP3    H163173   6.771   0.442  14.744 -0.2058 -2.5390 -0.2567
13894TIP3    H263174   6.653   0.414  14.835 -0.7944 -1.6338 -0.7293
13895TIP3   OH263175   3.553   1.158   5.282 -0.5834 -0.8591 -0.7477
13895TIP3    H163176   3.625   1.179   5.222 -0.5818 -2.2649 -1.2570
13895TIP3    H263177   3.570   1.213   5.359  0.3460 -0.2642 -1.3541
13896TIP3   OH263178   3.374   0.419   4.952 -0.3562  0.1971 -0.1120
13896TIP3    H163179   3.304   0.460   4.901 -0.4018  0.1026 -0.1269
13896TIP3    H263180   3.357   0.325   4.944 -1.0344  0.2067  1.0333
13897TIP3   OH263181   0.038   2.059  16.423 -0.1914  0.3785 -0.3037
13897TIP3    H163182  -0.003   1.974  16.435  0.9379 -0.0953  0.3606
13897TIP3    H263183   0.117   2.055  16.477 -0.3375  1.9994  0.0819
13898TIP3   OH263184   3.958   0.623  12.930 -0.5098  0.0125 -0.4420
13898TIP3    H163185   3.956   0.541  12.882  0.3818 -0.7869  0.8116
13898TIP3    H263186   4.020   0.678  12.882  1.5853 -1.3274  0.5454
13899TIP3   OH263187   6.785   1.342   2.925  0.0948  0.2228  0.2903
13899TIP3    H163188   6.717   1.287   2.886  1.7694 -2.1111  0.4780
13899TIP3    H263189   6.787   1.317   3.017  2.1197 -0.8913  0.0177
13900TIP3   OH263190   4.997   4.015   0.400  0.0728  0.1724 -0.5449
13900TIP3    H163191   4.969   3.945   0.341  0.0561 -0.4655  0.1855
13900TIP3    H263192   4.921   4.029   0.457 -0.6190  2.1411 -1.8709
13901TIP3   OH263193   5.158   4.964   5.635 -0.6873  0.3669 -0.3135
13901TIP3    H163194   5.203   4.883   5.615  0.9275  0.8521  1.1473
13901TIP3    H263195   5.074   4.936   5.672 -0.0218 -0.6688  0.4832
13902TIP3   OH263196   3.027   3.965  13.635 -0.1720 -0.2450  0.3014
13902TIP3    H163197   3.044   3.914  13.714 -2.7597 -0.4177  0.8318
13902TIP3    H263198   2.941   4.003  13.649 -0.1499  0.7826 -1.9221
13903TIP3   OH263199   0.921   0.226  12.431 -0.2071  0.1256 -0.0848
13903TIP3    H163200   0.965   0.201  12.513  0.1484  0.0661 -0.2928
13903TIP3    H263201   0.970   0.181  12.363 -1.7804 -1.5420 -0.1893
13904TIP3   OH263202   6.211   0.040  15.649  0.3184  0.1255 -0.2177
13904TIP3    H163203   6.147   0.038  15.719 -0.7633 -1.5518 -1.2018
13904TIP3    H263204   6.288  -0.003  15.685 -0.8364 -2.3611 -0.5671
13905TIP3   OH263205   1.998   3.411  16.921 -0.5990 -0.3939 -0.5187
13905TIP3    H163206   2.034   3.486  16.968  0.0220 -0.3728 -1.0212
13905TIP3    H263207   1.966   3.353  16.990  0.4441 -0.4300 -0.0387
13906TIP3   OH263208   4.351   5.426   3.228  0.4064 -0.6025 -0.1183
13906TIP3    H163209   4.434   5.408   3.273 -0.2938  2.2110  2.6638
13906TIP3    H263210   4.302   5.345   3.236  2.8019 -2.3636 -1.8756
13907TIP3   OH263211   1.875   0.424   1.868 -0.0920 -0.5735  0.4375
13907TIP3    H163212   1.887   0.459   1.956  1.2004 -1.0149  0.4563
13907TIP3    H263213   1.787   0.387   1.869 -0.7764  0.9672  0.9918
13908TIP3   OH263214   5.919   2.470   6.884  0.0216  0.1189 -0.1577
13908TIP3    H163215   5.864   2.398   6.916 -1.6515  1.4911  0.2089
13908TIP3    H263216   5.994   2.427   6.844 -1.4013 -1.8642 -0.8399
13909TIP3   OH263217   4.364   6.188  14.904  0.2570  0.5263 -0.1125
13909TIP3    H163218   4.343   6.166  14.814 -1.6161  3.2309 -0.4621
13909TIP3    H263219   4.283   6.171  14.953  0.6556  0.8401  0.6925
13910TIP3   OH263220   1.382   1.648  14.757 -0.7994 -0.0884 -0.3410
13910TIP3    H163221   1.326   1.623  14.831 -2.7627  2.2969 -0.8648
13910TIP3    H263222   1.322   1.652  14.683  0.2539  1.6421 -1.1516
13911TIP3   OH263223   1.395   4.898   0.254  0.5664  0.2711 -0.7196
13911TIP3    H163224   1.424   4.811   0.230  0.1289  0.3472 -1.5500
13911TIP3    H263225   1.299   4.892   0.256  0.5461  0.6183 -0.3328
13912TIP3   OH263226   4.329   3.590  12.967 -0.3799 -0.1928  0.0697
13912TIP3    H163227   4.321   3.624  13.056  1.1365 -0.4827  0.3303
13912TIP3    H263228   4.295   3.500  12.973 -1.6461  0.2538  0.0083
13913TIP3   OH263229   5.832   6.175   0.227  0.0934 -0.0819  0.4445
13913TIP3    H163230   5.738   6.160   0.236 -0.5131  1.1547 -2.5177
13913TIP3    H263231   5.872   6.090   0.243 -1.6127 -0.8229  0.9466
13914TIP3   OH263232   1.202   2.767  12.711  0.4550  0.4475  0.0479
13914TIP3    H163233   1.270   2.835  12.712 -0.1305  1.1090 -1.3831
13914TIP3    H263234   1.250   2.685  12.699  1.0506  0.8437 -0.3374
13915TIP3   OH263235   0.138   4.529  12.801 -0.0643 -0.3359 -0.0813
13915TIP3    H163236   0.122   4.614  12.761 -3.1404 -0.4638  0.6376
13915TIP3    H263237   0.161   4.548  12.891 -0.4407 -0.2281 -0.0047
13916TIP3   OH263238   6.062   2.034  11.903  0.3852 -0.2579 -0.3418
13916TIP3    H163239   6.009   2.106  11.867 -1.0640 -0.8375  0.5460
13916TIP3    H263240   6.142   2.036  11.851  0.0586  1.4993 -0.8626
13917TIP3   OH263241   3.738   2.948   2.624 -0.3625 -0.2158 -0.3086
13917TIP3    H163242   3.738   2.885   2.696 -1.3118 -0.3786 -0.4461
13917TIP3    H263243   3.812   3.006   2.644 -0.0894 -0.7723  0.3418
13918TIP3   OH263244   3.044   0.579  12.229  0.2123 -0.2474 -0.4475
13918TIP3    H163245   2.984   0.545  12.163 -0.5880 -1.5446  0.8720
13918TIP3    H263246   3.127   0.534  12.213  0.0816 -0.4012 -0.6843
13919TIP3   OH263247   5.257   2.349  11.796  0.5446 -0.2480  0.6744
13919TIP3    H163248   5.171   2.364  11.757  0.2684  0.4617  1.5196
13919TIP3    H263249   5.251   2.389  11.883  1.3503 -1.2023  1.1904
13920TIP3   OH263250   2.403   0.902  17.053  0.3878 -0.4466 -0.7719
13920TIP3    H163251   2.430   0.909  16.962  0.4213 -0.4783 -0.7644
13920TIP3    H263252   2.319   0.857  17.050 -1.2530  2.3831 -1.0601
13921TIP3   OH263253   5.054   1.505  11.571  0.6020 -0.0357 -0.0787
13921TIP3    H163254   5.059   1.432  11.633 -0.5903  1.4452  1.8665
13921TIP3    H263255   4.974   1.488  11.521  0.7189 -0.4399 -0.1315
13922TIP3   OH263256   4.138   0.074  16.437 -0.3751 -0.3567 -0.2512
13922TIP3    H163257   4.076   0.015  16.394  0.9713 -0.9250 -1.4945
13922TIP3    H263258   4.109   0.162  16.411 -1.6781 -0.4832  0.6445
13923TIP3   OH263259   0.922   4.191  16.932 -0.6981  0.1279 -0.4136
13923TIP3    H163260   0.874   4.179  17.014 -1.0051  0.2570 -0.5744
13923TIP3    H263261   0.864   4.155  16.865 -0.6674  0.4870 -0.6335
13924TIP3   OH263262   1.250   4.224  16.900  0.1093 -0.2215  0.3794
13924TIP3    H163263   1.219   4.282  16.830  1.9841  1.4176  0.7945
13924TIP3    H263264   1.191   4.240  16.973  0.6396  1.3171  0.5148
13925TIP3   OH263265   2.122   2.536   3.506 -0.8534  0.6684 -0.2004
13925TIP3    H163266   2.143   2.628   3.526 -0.0576  0.9542 -2.1297
13925TIP3    H263267   2.134   2.529   3.411 -1.1367 -1.3873 -0.1258
13926TIP3   OH263268   0.466   4.039  15.065  0.1535  0.0361  0.4550
13926TIP3    H163269   0.547   4.062  15.018 -0.0076  2.7663  1.3469
13926TIP3    H263270   0.490   3.961  15.116  1.5888 -0.4431 -0.8607
13927TIP3   OH263271   1.963   0.508   1.623  0.3059 -0.1453  0.0645
13927TIP3    H163272   1.933   0.484   1.710 -0.0759 -2.0165 -0.5256
13927TIP3    H263273   1.925   0.441   1.565  0.8213  0.8399 -1.4912
13928TIP3   OH263274   1.618   3.301  12.472  0.8108  0.0133 -0.0665
13928TIP3    H163275   1.584   3.289  12.383 -1.7766  0.0281  0.8463
13928TIP3    H263276   1.681   3.230  12.483 -1.4939 -2.2950 -0.7338
13929TIP3   OH263277   0.412   5.689   3.955  0.5153 -0.2047  0.2190
13929TIP3    H163278   0.322   5.671   3.930  0.5848  1.1939 -1.1566
13929TIP3    H263279   0.461   5.612   3.924 -0.3596 -1.7910  2.4773
13930TIP3   OH263280   6.676   0.715   1.721  0.4231  0.3919 -0.0069
13930TIP3    H163281   6.735   0.640   1.713  0.9183  0.6843  0.7966
13930TIP3    H263282   6.686   0.744   1.811 -2.3245 -0.7024  0.7673
13931TIP3   OH263283   2.471   5.803   3.785  0.3316  0.1086 -0.2926
13931TIP3    H163284   2.463   5.762   3.870 -0.2030  0.7775 -0.0120
13931TIP3    H263285   2.523   5.742   3.733  1.3673  0.0785  0.7567
13932TIP3   OH263286   1.850   5.903  14.157  0.1024  0.3120 -0.3210
13932TIP3    H163287   1.920   5.867  14.102 -1.0572 -0.3947 -1.3814
13932TIP3    H263288   1.858   5.998  14.147  0.4939  0.2192 -0.9626
13933TIP3   OH263289   0.506   2.557  15.283  0.3327 -0.1612 -0.5224
13933TIP3    H163290   0.525   2.498  15.210 -0.6199 -0.8288 -0.2503
13933TIP3    H263291   0.496   2.500  15.359 -0.5154  0.3541 -0.2302
13934TIP3   OH263292   5.596   0.709   4.004  0.6363  0.1799  0.6567
13934TIP3    H163293   5.651   0.750   3.937  0.4197  0.0994  0.4279
13934TIP3    H263294   5.593   0.773   4.075 -1.0877  1.3296 -0.3793
13935TIP3   OH263295   4.105   1.663  14.345 -0.3415  0.3257  0.2082
13935TIP3    H163296   4.086   1.625  14.431 -0.2180  0.7425  0.4227
13935TIP3    H263297   4.147   1.591  14.296 -2.1592 -0.5252 -0.1876
13936TIP3   OH263298   4.227   5.789   6.078  0.0006  0.1493  0.6576
13936TIP3    H163299   4.155   5.827   6.027  1.5688  0.6645 -1.2986
13936TIP3    H263300   4.305   5.836   6.048  1.7414 -3.0707 -0.2662
13937TIP3   OH263301   0.046   6.452   3.199 -0.3585  0.6075 -0.4342
13937TIP3    H163302   0.064   6.502   3.278  0.6978  0.0751 -0.3155
13937TIP3    H263303  -0.049   6.449   3.193 -0.4813  3.1991 -0.8246
13938TIP3   OH263304   0.078   1.400   5.956  0.2203 -0.0138  0.1561
13938TIP3    H163305   0.025   1.326   5.984 -0.6075 -0.1169 -1.5722
13938TIP3    H263306   0.109   1.376   5.869 -0.3927  1.8028 -0.6141
13939TIP3   OH263307   1.263   3.194   3.306 -0.5297 -0.3302 -0.0485
13939TIP3    H163308   1.344   3.145   3.322 -0.5752 -0.6406 -0.7249
13939TIP3    H263309   1.291   3.285   3.303 -0.0853 -0.4820 -0.9467
13940TIP3   OH263310   6.723   0.019   4.235  0.1339 -0.2810 -0.1561
13940TIP3    H163311   6.727  -0.076   4.226  2.3412 -0.4121  1.4753
13940TIP3    H263312   6.710   0.051   4.146 -1.2163 -2.0861 -0.6704
13941TIP3   OH263313   6.146   6.470   1.602  0.5607  0.8723 -0.2129
13941TIP3    H163314   6.238   6.460   1.579  0.5906 -2.0809  0.8238
13941TIP3    H263315   6.109   6.382   1.596 -2.2156  1.9307 -0.5096
13942TIP3   OH263316   6.549   1.444   4.563  0.4930 -0.5722  0.3733
13942TIP3    H163317   6.484   1.378   4.586  1.2068 -1.2161  0.6235
13942TIP3    H263318   6.619   1.430   4.627  1.5193 -0.8799 -0.7754
13943TIP3   OH263319   2.065   1.287  16.693  0.0456  0.2511  0.0001
13943TIP3    H163320   2.044   1.296  16.786  1.2620 -1.7765  0.5488
13943TIP3    H263321   2.111   1.203  16.687  0.8929  0.7949 -2.2881
13944TIP3   OH263322   5.266   3.827   5.283  0.1753 -0.3602  0.3419
13944TIP3    H163323   5.328   3.804   5.214  0.4145 -0.8346  0.7100
13944TIP3    H263324   5.238   3.916   5.261  0.2735 -0.4943 -0.3421
13945TIP3   OH263325   3.054   3.512  11.891  0.0894  0.0935  0.2999
13945TIP3    H163326   2.959   3.504  11.882  0.0553  1.5240 -1.2282
13945TIP3    H263327   3.083   3.545  11.806  1.8826  0.3175  0.9512
13946TIP3   OH263328   4.909   1.722  12.160  0.2799 -0.2411  0.4087
13946TIP3    H163329   4.857   1.769  12.096  0.6435 -0.7432 -0.2690
13946TIP3    H263330   4.980   1.683  12.110  0.2832 -1.0770  1.0306
13947TIP3   OH263331   4.769   0.564  15.439 -0.2899  0.4121  0.0278
13947TIP3    H163332   4.812   0.571  15.354  0.3140  2.7881  0.4509
13947TIP3    H263333   4.821   0.619  15.497 -1.1873 -0.4747  1.7472
13948TIP3   OH263334   0.394   1.543  14.587 -0.3095 -0.3589  0.0293
13948TIP3    H163335   0.406   1.634  14.559  0.1071 -0.0418  1.1872
13948TIP3    H263336   0.347   1.501  14.514 -1.0578  0.9341 -0.2573
13949TIP3   OH263337   3.378   2.860  12.635 -0.3445  0.3886 -0.5581
13949TIP3    H163338   3.317   2.821  12.572  0.4066  0.2316 -1.2030
13949TIP3    H263339   3.441   2.790  12.653 -0.1822  0.6446 -0.1172
13950TIP3   OH263340   2.324   0.470   2.414 -0.8663  0.1330 -0.0504
13950TIP3    H163341   2.297   0.433   2.498  0.0609 -1.2145 -0.3147
13950TIP3    H263342   2.284   0.557   2.413 -1.0627  0.1136  1.6977
13951TIP3   OH263343   4.128   5.264   3.960  0.0760 -0.3345 -0.4032
13951TIP3    H163344   4.099   5.277   3.870 -0.2808  1.3064 -0.0950
13951TIP3    H263345   4.188   5.190   3.956  1.6027  0.8834 -2.3365
13952TIP3   OH263346   4.354   4.682  17.041 -0.2583 -0.1181  0.5261
13952TIP3    H163347   4.397   4.740  16.978  0.9870  0.4543  1.8420
13952TIP3    H263348   4.362   4.727  17.125 -0.7117 -1.4517  1.3280
13953TIP3   OH263349   1.217   5.673   0.970 -0.2163 -0.2612 -0.4321
13953TIP3    H163350   1.185   5.587   0.941  2.2871 -1.1696 -0.7430
13953TIP3    H263351   1.213   5.668   1.066 -1.1643 -0.2568 -0.4608
13954TIP3   OH263352   0.450   5.013  11.484 -0.6452  0.1504  1.0431
13954TIP3    H163353   0.467   4.925  11.451  0.8039  0.4652  0.8909
13954TIP3    H263354   0.435   5.065  11.405  0.2598  0.3827  1.0138
13955TIP3   OH263355   5.261   6.454  15.542 -0.1253 -0.1193  0.0460
13955TIP3    H163356   5.328   6.488  15.602 -2.2029  3.5532  0.6340
13955TIP3    H263357   5.284   6.490  15.457 -0.1866 -0.6654 -0.2067
13956TIP3   OH263358   3.150   2.523  14.461 -0.2391 -0.2613  0.4873
13956TIP3    H163359   3.213   2.588  14.491  0.1057 -0.5817  0.4740
13956TIP3    H263360   3.081   2.573  14.419  0.8687  0.0116 -1.0844
13957TIP3   OH263361   2.505   0.551  16.320 -0.5430  0.3761 -0.1769
13957TIP3    H163362   2.439   0.565  16.251  0.6939 -1.1643 -1.7588
13957TIP3    H263363   2.575   0.612  16.299 -0.1137 -0.1759 -0.3733
13958TIP3   OH263364   3.289   2.854  11.196  0.2445 -0.2778  0.2027
13958TIP3    H163365   3.333   2.775  11.162  1.9949  1.3470 -1.5638
13958TIP3    H263366   3.357   2.899  11.247 -0.3306  0.7261  0.1088
13959TIP3   OH263367   1.717   3.937   2.113 -0.3341 -0.4839 -0.3804
13959TIP3    H163368   1.804   3.933   2.074  0.8601  0.2298  2.0419
13959TIP3    H263369   1.674   3.857   2.084  1.5804 -1.4718 -0.6260
13960TIP3   OH263370   0.584   0.855  12.275  0.0351 -0.2418  0.7566
13960TIP3    H163371   0.631   0.923  12.227 -0.6285  0.3090  0.8683
13960TIP3    H263372   0.633   0.774  12.257  1.5461  0.4438  1.5901
13961TIP3   OH263373   5.575   3.984   4.753  0.1523 -0.0727 -0.0047
13961TIP3    H163374   5.486   3.986   4.786  0.0306  0.6577 -0.3599
13961TIP3    H263375   5.570   3.932   4.672 -0.0258  0.2722 -0.2192
13962TIP3   OH263376   3.550   0.349  14.566  0.0186 -0.2247  0.1847
13962TIP3    H163377   3.570   0.441  14.578  1.7462 -0.6073  0.5582
13962TIP3    H263378   3.461   0.339  14.599 -0.0735  1.2439  0.4433
13963TIP3   OH263379   5.383   6.534   3.784 -0.3061 -0.5845  0.5816
13963TIP3    H163380   5.392   6.542   3.879 -1.4987  0.9451  0.6139
13963TIP3    H263381   5.335   6.613   3.758  0.8318 -0.4723 -1.4217
13964TIP3   OH263382   4.350   6.406  10.876 -0.1483  0.6114  0.1169
13964TIP3    H163383   4.352   6.318  10.836 -1.9853  0.7303 -0.3075
13964TIP3    H263384   4.422   6.453  10.833  0.4150 -0.4624 -0.1600
13965TIP3   OH263385   0.595   5.263  15.608  0.4159  0.4703 -0.5988
13965TIP3    H163386   0.527   5.200  15.586 -0.4850  1.9948 -2.4670
13965TIP3    H263387   0.629   5.293  15.524  3.1726  0.0458  0.2805
13966TIP3   OH263388   5.502   5.811  15.276  0.6387  0.9468 -0.9393
13966TIP3    H163389   5.438   5.878  15.254 -0.0126  0.1312 -1.6181
13966TIP3    H263390   5.518   5.823  15.370 -2.5353 -0.4148 -0.0676
13967TIP3   OH263391   1.666   5.904  11.547  0.7045 -0.1083 -0.5145
13967TIP3    H163392   1.579   5.870  11.568  0.5975  0.4891  0.0574
13967TIP3    H263393   1.726   5.848  11.596  0.4490  1.3534  1.5826
13968TIP3   OH263394   6.040   5.784  16.410 -0.2571 -0.3364  0.3827
13968TIP3    H163395   5.954   5.820  16.392  0.7295  1.7054 -0.6411
13968TIP3    H263396   6.060   5.813  16.499 -0.5153 -0.5895  0.5244
13969TIP3   OH263397   4.997   6.606   2.237 -0.6849  0.5949 -0.1873
13969TIP3    H163398   5.061   6.677   2.236 -2.0646  1.9516  1.3274
13969TIP3    H263399   5.049   6.526   2.238  0.9287  1.5050 -2.2911
13970TIP3   OH263400   4.744   0.022  15.300 -0.4076 -0.1601  0.1500
13970TIP3    H163401   4.729  -0.030  15.379 -1.1565  0.6746  0.5841
13970TIP3    H263402   4.801  -0.032  15.246  0.7324 -0.4556  1.5792
13971TIP3   OH263403   3.136   6.201  15.200  0.3061  0.3127 -0.5504
13971TIP3    H163404   3.204   6.135  15.186 -0.9560 -0.8256 -1.6170
13971TIP3    H263405   3.090   6.172  15.279  0.1200  0.2457 -0.6830
13972TIP3   OH263406   4.937   0.502  16.289 -0.1693  0.0987  0.4467
13972TIP3    H163407   4.927   0.546  16.204  1.1618 -1.4658 -0.5877
13972TIP3    H263408   4.986   0.422  16.268 -0.7502 -0.8608  2.5455
13973TIP3   OH263409   3.519   2.802  16.792 -0.3234  0.8231  0.1225
13973TIP3    H163410   3.519   2.803  16.696 -0.6872 -0.5727  0.0917
13973TIP3    H263411   3.496   2.712  16.816 -0.1696  1.1256  1.5266
13974TIP3   OH263412   6.650   2.146  15.250  0.2796 -0.6195  0.2790
13974TIP3    H163413   6.576   2.168  15.194  0.2955  0.8458  0.8038
13974TIP3    H263414   6.714   2.107  15.190 -0.9550 -2.0640 -0.1439
13975TIP3   OH263415   5.602   4.943   4.150  0.2257  1.0296  0.3929
13975TIP3    H163416   5.694   4.927   4.133 -0.0107  0.8850 -0.8303
13975TIP3    H263417   5.600   5.031   4.188  0.7700  1.5461 -0.7271
13976TIP3   OH263418   1.611   5.108  15.620 -0.1248  0.7436  0.0781
13976TIP3    H163419   1.592   5.072  15.707  0.9823  0.1335  0.0810
13976TIP3    H263420   1.622   5.031  15.564 -2.0606  1.1140 -0.9270
13977TIP3   OH263421   4.713   1.038   5.399  0.0879 -0.5910  0.4116
13977TIP3    H163422   4.635   0.983   5.383 -0.8118  1.2898 -2.5997
13977TIP3    H263423   4.738   1.068   5.312  3.4695 -0.0390  1.4444
13978TIP3   OH263424   3.518   0.624  16.474 -0.3045  0.2614  0.1521
13978TIP3    H163425   3.489   0.593  16.388 -1.7041 -0.0157  0.6941
13978TIP3    H263426   3.445   0.604  16.533 -2.4038  6.2011  0.2784
13979TIP3   OH263427   4.228   3.673   1.103  0.3919 -0.5139 -0.7199
13979TIP3    H163428   4.292   3.693   1.172  0.6287 -0.0866 -1.0596
13979TIP3    H263429   4.272   3.609   1.048 -0.6633 -2.6947  0.8202
13980TIP3   OH263430   0.466   6.102   4.902 -0.5802 -0.3061 -0.1024
13980TIP3    H163431   0.557   6.107   4.871  0.4151 -0.6503  2.5452
13980TIP3    H263432   0.419   6.062   4.829  1.3402  0.0112 -1.6161
13981TIP3   OH263433   0.180   3.406   2.736  0.3651 -0.0503 -0.1432
13981TIP3    H163434   0.193   3.415   2.831 -3.2656 -0.3964  0.5345
13981TIP3    H263435   0.135   3.487   2.711  0.5916 -0.3033 -1.4164
13982TIP3   OH263436   6.782   2.957   1.702 -0.2976 -0.1339  0.1853
13982TIP3    H163437   6.718   2.945   1.772  1.0872  0.2629  1.5907
13982TIP3    H263438   6.803   2.868   1.672 -0.3472 -0.3640  0.8196
13983TIP3   OH263439   6.851   3.434   0.182  0.2448 -0.2533 -0.2630
13983TIP3    H163440   6.836   3.397   0.094  1.0470  0.6058 -0.7797
13983TIP3    H263441   6.930   3.487   0.172 -0.4174  0.9426  0.6620
13984TIP3   OH263442   4.182   5.519   6.147 -0.0967  0.0921  0.7881
13984TIP3    H163443   4.184   5.606   6.107 -0.0973 -0.6193 -0.8570
13984TIP3    H263444   4.095   5.513   6.188 -0.5420  0.4519 -0.0860
13985TIP3   OH263445   3.611   0.523  11.951 -0.3688 -0.0400 -0.2701
13985TIP3    H163446   3.681   0.464  11.979 -0.7043 -0.6528 -0.6925
13985TIP3    H263447   3.568   0.548  12.033 -0.8974 -1.2558 -0.1446
13986TIP3   OH263448   3.605   5.453  16.733  0.4721 -0.3296 -0.0375
13986TIP3    H163449   3.667   5.382  16.719 -0.8713 -2.0819  2.2026
13986TIP3    H263450   3.533   5.414  16.783 -0.8992  2.3427  0.3143
13987TIP3   OH263451   4.392   5.161   1.035 -0.1403  0.4211 -0.4899
13987TIP3    H163452   4.464   5.220   1.059  0.3364 -0.2048 -0.3403
13987TIP3    H263453   4.436   5.085   0.997 -0.8463  1.5227 -3.8550
13988TIP3   OH263454   5.385   4.301   2.962  0.3109 -0.6669 -0.1350
13988TIP3    H163455   5.418   4.305   3.052 -0.7780 -0.1406  0.2529
13988TIP3    H263456   5.290   4.295   2.971  0.1469 -0.0289 -1.2658
13989TIP3   OH263457   6.393   5.586  16.719 -0.1608 -0.0951 -0.4734
13989TIP3    H163458   6.361   5.667  16.758  0.7901  0.1931 -0.2586
13989TIP3    H263459   6.320   5.553  16.667 -0.8095  0.5034  0.0439
13990TIP3   OH263460   5.548   1.180   1.607 -0.3931 -0.2665 -1.0071
13990TIP3    H163461   5.589   1.264   1.584 -0.1812 -0.3922 -1.0923
13990TIP3    H263462   5.489   1.162   1.533 -1.8683  0.7270 -0.1216
13991TIP3   OH263463   2.191   4.943   3.423  0.2123 -0.4689 -0.0141
13991TIP3    H163464   2.140   4.875   3.469  0.2737  0.3664  1.3571
13991TIP3    H263465   2.148   4.952   3.338 -1.5116 -0.3079  0.8243
13992TIP3   OH263466   3.796   1.470  13.652  0.0306  0.7765 -0.2061
13992TIP3    H163467   3.736   1.418  13.705 -1.4356  0.5028 -2.0202
13992TIP3    H263468   3.741   1.538  13.613  1.5145  2.4370  0.4402
13993TIP3   OH263469   3.306   3.785  15.274 -0.5335 -0.0854 -0.0442
13993TIP3    H163470   3.251   3.843  15.221  0.1352  0.6356  0.0367
13993TIP3    H263471   3.294   3.817  15.364 -0.8359 -0.6269  0.1109
13994TIP3   OH263472   3.861   0.467  15.159 -0.2087  0.5085 -0.5411
13994TIP3    H163473   3.943   0.440  15.201 -0.2917  0.4707 -0.4014
13994TIP3    H263474   3.816   0.384  15.140 -0.1419  0.5238 -0.7623
13995TIP3   OH263475   2.354   1.063   3.825  0.3691  0.0699  0.4936
13995TIP3    H163476   2.352   0.976   3.784  0.5663  0.6075 -0.6640
13995TIP3    H263477   2.352   1.125   3.752 -2.4171  1.1113  1.3106
13996TIP3   OH263478   4.540   0.480   2.448  0.0969  1.2894  0.1604
13996TIP3    H163479   4.465   0.511   2.397  0.1942  0.3985 -0.5526
13996TIP3    H263480   4.528   0.518   2.534 -1.8198  0.2207  0.4092
13997TIP3   OH263481   1.300   4.612  16.386 -0.4273  0.0982 -0.5252
13997TIP3    H163482   1.252   4.555  16.446  1.0041  0.1544  0.7213
13997TIP3    H263483   1.262   4.698  16.399  0.0007  0.1466  0.4697
13998TIP3   OH263484   0.076   4.312  13.691  0.1023 -0.0344 -0.5369
13998TIP3    H163485   0.024   4.264  13.755  0.6211  0.9402  0.6413
13998TIP3    H263486   0.165   4.313  13.727  0.6739 -0.4729 -1.8450
13999TIP3   OH263487   4.433   3.717   3.744 -0.3132 -0.5009  0.4540
13999TIP3    H163488   4.414   3.810   3.761 -0.7917 -0.5275  0.0915
13999TIP3    H263489   4.476   3.686   3.824  3.4468  0.9901 -0.7696
14000TIP3   OH263490   5.315   5.183  10.646  0.1209  0.3655 -0.2387
14000TIP3    H163491   5.350   5.250  10.704 -2.6534  0.7391  1.1900
14000TIP3    H263492   5.321   5.102  10.696  0.4401  0.1214 -0.6575
14001TIP3   OH263493   6.073   1.407   5.431  0.3889  0.2590  0.6877
14001TIP3    H163494   6.104   1.348   5.500  1.9392 -1.1925 -1.1562
14001TIP3    H263495   6.012   1.355   5.380 -0.5861  1.2499  0.8141
14002TIP3   OH263496   2.663   6.536  12.200 -0.2087  0.0891  0.2768
14002TIP3    H163497   2.673   6.556  12.107 -0.0662 -1.1199  0.0200
14002TIP3    H263498   2.741   6.573  12.241  1.3369 -2.1083 -0.5482
14003TIP3   OH263499   3.783   3.726   0.919 -0.2443 -0.2350 -0.4160
14003TIP3    H163500   3.738   3.771   0.991  0.1350  2.7187 -1.9211
14003TIP3    H263501   3.854   3.678   0.963 -1.5347 -0.6006  1.4096
14004TIP3   OH263502   4.298   5.971   4.597 -0.4327 -0.7420  0.3363
14004TIP3    H163503   4.368   5.970   4.531 -0.9673  0.1694 -0.2577
14004TIP3    H263504   4.218   5.985   4.547 -0.6585  2.0393  1.2905
14005TIP3   OH263505   6.216   0.483   2.403 -0.4907 -0.0510  0.4562
14005TIP3    H163506   6.201   0.418   2.471 -2.2913  0.3868  0.5097
14005TIP3    H263507   6.268   0.551   2.446  0.9189 -1.1435  0.5510
14006TIP3   OH263508   6.730   5.908   6.002 -0.4006  0.6399  0.2747
14006TIP3    H163509   6.779   5.970   6.055 -0.3857 -0.1554  1.2282
14006TIP3    H263510   6.651   5.890   6.053 -1.1504  1.0321 -0.7054
14007TIP3   OH263511   5.326   0.622   4.553  0.6002  0.5926 -0.0024
14007TIP3    H163512   5.260   0.609   4.485  0.4574 -1.2539  0.4146
14007TIP3    H263513   5.341   0.716   4.555 -2.4843  1.1760  0.3387
14008TIP3   OH263514   6.149   4.542   4.235 -0.4432  0.0034 -0.1637
14008TIP3    H163515   6.151   4.499   4.149  0.7465 -2.9621  1.2255
14008TIP3    H263516   6.228   4.596   4.236 -0.2821 -0.2056 -0.7933
14009TIP3   OH263517   1.671   0.414  14.334 -0.1364 -0.0406  0.0289
14009TIP3    H163518   1.763   0.417  14.308  0.2409 -0.7106  1.1837
14009TIP3    H263519   1.622   0.426  14.253  0.9738 -0.5201 -0.7285
14010TIP3   OH263520   0.894   1.647   0.910 -0.9210 -0.4592 -0.3204
14010TIP3    H163521   0.922   1.591   0.982  1.5574  0.4313 -0.4778
14010TIP3    H263522   0.894   1.590   0.833  2.4214 -0.2381 -0.6499
14011TIP3   OH263523   1.247   0.643  13.532 -0.3137  0.2729 -0.2842
14011TIP3    H163524   1.170   0.623  13.480 -0.2695 -1.1474  0.1597
14011TIP3    H263525   1.278   0.727  13.498 -1.8888  0.7426 -0.6394
14012TIP3   OH263526   5.870   4.523  16.192 -0.3409  0.1582  0.4338
14012TIP3    H163527   5.871   4.448  16.133  0.5949 -0.1376  0.8065
14012TIP3    H263528   5.919   4.591  16.146  0.7157 -0.1948  0.9968
14013TIP3   OH263529   6.359   0.956   6.205  0.6113 -0.8976  0.4749
14013TIP3    H163530   6.379   1.049   6.216  1.1852 -0.6914 -1.8640
14013TIP3    H263531   6.263   0.952   6.205  0.5451 -0.6252  2.4859
14014TIP3   OH263532   1.160   4.256   0.644 -0.0148 -0.0944  0.0660
14014TIP3    H163533   1.188   4.207   0.721  0.3815 -1.6417 -1.0196
14014TIP3    H263534   1.133   4.189   0.581 -1.0944  1.1560 -0.8717
14015TIP3   OH263535   0.468   6.840   4.816 -0.0778  0.2429 -0.3918
14015TIP3    H163536   0.477   6.784   4.739  0.8080  0.0389 -0.1538
14015TIP3    H263537   0.401   6.797   4.870 -0.1541 -0.0210 -0.6948
14016TIP3   OH263538   3.064   3.925   0.673  0.6197  0.1336  0.6781
14016TIP3    H163539   3.101   3.872   0.743  1.0280  1.4559  1.5009
14016TIP3    H263540   3.011   3.991   0.718 -1.3645 -0.6438 -0.3852
14017TIP3   OH263541   1.398   4.157   1.289  0.2699 -0.7977  0.5819
14017TIP3    H163542   1.453   4.171   1.212 -1.3042 -1.2027 -0.6773
14017TIP3    H263543   1.363   4.243   1.310  1.0970 -0.6017  1.1599
14018TIP3   OH263544   0.406   2.908   0.676  0.0380 -0.4230  0.0445
14018TIP3    H163545   0.414   2.996   0.639 -0.2086 -0.8884 -1.1788
14018TIP3    H263546   0.339   2.916   0.744 -1.5930 -0.0642 -1.5110
14019TIP3   OH263547   6.488   6.177  15.819  0.3381 -0.4593  0.0212
14019TIP3    H163548   6.461   6.262  15.785 -2.9562 -0.7319  1.5363
14019TIP3    H263549   6.501   6.123  15.742 -1.2753  0.4280 -0.9283
14020TIP3   OH263550   5.798   2.081  12.234 -0.1843 -0.5401 -1.0704
14020TIP3    H163551   5.813   2.096  12.327 -0.6525  1.4302 -1.2831
14020TIP3    H263552   5.710   2.042  12.231 -0.2450 -0.4386 -0.7054
14021TIP3   OH263553   1.601   3.757   4.035 -0.0592  0.2877 -0.1030
14021TIP3    H163554   1.587   3.838   3.986  1.0335  1.5436  1.5316
14021TIP3    H263555   1.527   3.701   4.012 -2.1860  2.6930  0.5592
14022TIP3   OH263556   1.788   4.672   1.455  0.6988 -0.2503  0.0922
14022TIP3    H163557   1.790   4.762   1.488 -1.1737 -0.4070  0.7446
14022TIP3    H263558   1.873   4.660   1.413  0.6247  2.1537 -0.8983
14023TIP3   OH263559   2.537   4.896   0.811  0.1543 -0.7973  0.7957
14023TIP3    H163560   2.619   4.894   0.859  1.0070  0.9900 -0.4748
14023TIP3    H263561   2.471   4.868   0.875  1.3393  0.6103  2.7692
14024TIP3   OH263562   5.896   0.524  12.337  0.0005 -0.3230  0.1308
14024TIP3    H163563   5.853   0.441  12.357  1.5648 -1.5384 -1.2564
14024TIP3    H263564   5.868   0.544  12.247  0.7581 -0.1063 -0.0642
14025TIP3   OH263565   1.733   0.815  11.382  0.2422 -0.4372  0.0788
14025TIP3    H163566   1.806   0.834  11.323  0.0365 -0.2227 -0.1149
14025TIP3    H263567   1.666   0.879  11.357 -0.4620 -1.4026 -0.5591
14026TIP3   OH263568   1.184   3.832   0.116 -0.7958 -0.3458  0.4430
14026TIP3    H163569   1.104   3.804   0.070 -0.0447 -0.3234 -0.9142
14026TIP3    H263570   1.249   3.766   0.093 -0.1438  0.2078  0.6972
14027TIP3   OH263571   6.800   2.353  11.638 -0.7430 -0.1393 -0.0435
14027TIP3    H163572   6.803   2.332  11.544  2.0653 -0.7563  0.1055
14027TIP3    H263573   6.776   2.446  11.640  1.2583  0.4789 -1.5448
14028TIP3   OH263574   1.305   3.577   1.106 -0.2108  0.1020 -0.0402
14028TIP3    H163575   1.268   3.508   1.051  1.2489 -0.5149 -0.2987
14028TIP3    H263576   1.287   3.549   1.195 -1.1324  0.2678 -0.1637
14029TIP3   OH263577   2.437   2.934   1.324  0.4851  0.4231  0.3852
14029TIP3    H163578   2.503   2.987   1.368 -0.3376  0.1891  2.0046
14029TIP3    H263579   2.410   2.870   1.390  0.3351 -1.0351 -1.0055
14030TIP3   OH263580   0.630   5.417  15.979  0.1168  0.3768  0.1058
14030TIP3    H163581   0.551   5.373  16.011  0.1264  1.3611  1.5469
14030TIP3    H263582   0.642   5.382  15.890  0.3123 -2.7815  1.2483
14031TIP3   OH263583   6.541   2.516   2.183 -0.1813 -0.2293 -0.4073
14031TIP3    H163584   6.616   2.462   2.211 -0.7155  0.0920  1.7936
14031TIP3    H263585   6.467   2.481   2.232 -1.4867 -0.4066 -2.4087
14032TIP3   OH263586   1.679   0.891  15.935 -0.0775 -0.3958  0.1416
14032TIP3    H163587   1.598   0.915  15.980 -0.0345  0.0691 -0.0148
14032TIP3    H263588   1.746   0.898  16.002  0.0733  0.8645 -0.1031
14033TIP3   OH263589   1.699   3.182   5.041 -0.0083  0.5693  0.3958
14033TIP3    H163590   1.608   3.152   5.043 -0.5734  2.1155 -0.4122
14033TIP3    H263591   1.707   3.238   5.119  0.4539 -0.0939  0.8307
14034TIP3   OH263592   0.387   4.231  11.083 -0.3791  0.0517 -1.1907
14034TIP3    H163593   0.482   4.229  11.073 -0.2800 -1.3672 -0.3203
14034TIP3    H263594   0.372   4.226  11.178 -1.3216  0.2795 -1.3098
14035TIP3   OH263595   0.385   5.865   1.043  0.4517 -0.3684  0.4044
14035TIP3    H163596   0.322   5.898   0.978 -2.0331 -0.4875  2.5824
14035TIP3    H263597   0.456   5.929   1.042 -1.6559  2.1516  0.6545
14036TIP3   OH263598   1.386   4.999  10.358 -0.2787 -0.0769 -0.0896
14036TIP3    H163599   1.397   5.084  10.402 -0.7121 -0.4074  0.6750
14036TIP3    H263600   1.377   4.936  10.430  0.6220 -0.8573 -0.6463
14037TIP3   OH263601   6.029   0.628  16.276 -0.0003 -0.1424 -0.2419
14037TIP3    H163602   6.060   0.588  16.195 -1.9389 -2.7260  0.1785
14037TIP3    H263603   5.974   0.701  16.247 -0.3962 -0.8224 -1.2606
14038TIP3   OH263604   6.030   1.237   4.437 -0.2182  0.1172  0.2889
14038TIP3    H163605   6.016   1.151   4.396  1.4762  0.5077 -1.2385
14038TIP3    H263606   5.941   1.271   4.452 -0.9114 -1.6301  0.3820
14039TIP3   OH263607   1.781   0.559   4.431 -0.2273 -0.7501  0.2339
14039TIP3    H163608   1.813   0.540   4.343  0.7761 -0.6750  0.5702
14039TIP3    H263609   1.840   0.627   4.463  1.3131 -2.8247  2.0652
14040TIP3   OH263610   4.561   6.660  11.839 -0.2127 -0.3835 -0.3965
14040TIP3    H163611   4.622   6.734  11.844  0.7619 -1.2283  1.2139
14040TIP3    H263612   4.617   6.582  11.840 -1.2568 -1.1692 -0.7842
14041TIP3   OH263613   6.013   3.023   5.516  0.2668  0.8792 -0.0629
14041TIP3    H163614   5.976   3.034   5.428  1.4647  2.8969 -0.3787
14041TIP3    H263615   6.001   3.109   5.557  0.1240  0.0870  1.6110
14042TIP3   OH263616   3.007   0.682  12.722  0.0615  0.1830 -0.1045
14042TIP3    H163617   3.006   0.625  12.645 -1.8092 -0.5289  0.3958
14042TIP3    H263618   2.942   0.750  12.704  1.3160  1.4228 -0.1228
14043TIP3   OH263619   3.955   4.869   3.548 -0.6289 -0.3789 -0.3226
14043TIP3    H163620   3.897   4.793   3.541 -1.7079  0.4013 -0.0340
14043TIP3    H263621   3.944   4.916   3.466 -1.7536  0.6879  0.4060
14044TIP3   OH263622   1.900   3.728  13.768 -0.0291 -0.0426  0.2444
14044TIP3    H163623   1.808   3.703  13.761  0.5769 -2.1258 -1.3816
14044TIP3    H263624   1.915   3.786  13.693 -0.0438  0.3746  0.5643
14045TIP3   OH263625   2.659   0.174  12.421 -0.1548  0.2896 -0.1779
14045TIP3    H163626   2.677   0.148  12.331  1.1619  1.1353 -0.1963
14045TIP3    H263627   2.642   0.268  12.416 -2.8292 -0.1172  0.1393
14046TIP3   OH263628   3.712   2.337   0.300 -0.2299 -0.6646  0.1362
14046TIP3    H163629   3.687   2.428   0.316  0.0770 -0.5676  0.0633
14046TIP3    H263630   3.671   2.316   0.216  0.4073 -0.3234 -0.2653
14047TIP3   OH263631   5.877   3.090   5.289  0.4410 -0.2280  0.2365
14047TIP3    H163632   5.831   3.006   5.286 -0.4113  0.2392 -0.1510
14047TIP3    H263633   5.912   3.101   5.201 -1.4322  0.8794 -0.4231
14048TIP3   OH263634   1.864   2.912   5.589 -0.1102 -0.0250 -0.0867
14048TIP3    H163635   1.956   2.921   5.563 -0.5916 -0.6781 -2.1936
14048TIP3    H263636   1.861   2.832   5.641  0.5841  0.3581  0.5826
14049TIP3   OH263637   4.897   5.280  15.629 -0.3665 -0.2210  0.0060
14049TIP3    H163638   4.988   5.303  15.610 -0.6569  1.3683  0.3597
14049TIP3    H263639   4.879   5.320  15.714 -1.8999  1.1232 -0.8645
14050TIP3   OH263640   4.649   1.906  16.746 -0.4793 -0.4110  0.0128
14050TIP3    H163641   4.571   1.872  16.701 -0.8657 -0.3415  0.6104
14050TIP3    H263642   4.717   1.906  16.679 -1.4134  1.1729 -1.0217
14051TIP3   OH263643   2.821   3.262  15.571  0.0363  0.6907 -0.0482
14051TIP3    H163644   2.852   3.219  15.651 -0.2141 -3.0235 -1.7248
14051TIP3    H263645   2.728   3.278  15.587  0.0542  0.2772  0.5139
14052TIP3   OH263646   0.698   0.201  15.292 -0.4676  0.1714 -0.5843
14052TIP3    H163647   0.709   0.186  15.198  0.3679  2.1084 -0.8307
14052TIP3    H263648   0.771   0.153  15.332  0.8073  1.5254 -1.1732
14053TIP3   OH263649   2.580   6.391   4.770  0.0518 -0.1782  0.1687
14053TIP3    H163650   2.551   6.478   4.742  0.3090  0.5475  2.0528
14053TIP3    H263651   2.672   6.403   4.795  1.1683 -1.7665 -2.6786
14054TIP3   OH263652   0.206   6.500  13.792 -0.3213 -0.1521 -0.2538
14054TIP3    H163653   0.214   6.480  13.699  1.4978 -1.3628  0.1168
14054TIP3    H263654   0.289   6.471  13.830 -1.3293 -0.4169  1.8742
14055TIP3   OH263655   2.978   3.270   4.358  0.3359  0.4534  0.4029
14055TIP3    H163656   2.907   3.206   4.359 -1.4255  2.2927  0.1086
14055TIP3    H263657   2.962   3.325   4.434  1.3770  1.0175  0.2353
14056TIP3   OH263658   1.097   5.802   3.333  0.0045 -0.1859 -0.0299
14056TIP3    H163659   1.007   5.828   3.352  0.2207 -0.6890  1.9303
14056TIP3    H263660   1.088   5.719   3.285 -0.5780  1.2150 -2.5154
14057TIP3   OH263661   4.601   0.546   6.047 -0.3124  0.3598 -0.0440
14057TIP3    H163662   4.519   0.498   6.058 -1.0323  1.2354 -1.2450
14057TIP3    H263663   4.587   0.628   6.094  0.8864 -0.5281  1.9491
14058TIP3   OH263664   4.293   5.391  12.142 -0.0567  0.2800 -0.6014
14058TIP3    H163665   4.255   5.305  12.122  0.9253 -0.3900  0.3422
14058TIP3    H263666   4.374   5.393  12.092  0.2943  0.3430 -0.0307
14059TIP3   OH263667   6.790   0.640  13.994 -0.3456 -0.3226  0.1150
14059TIP3    H163668   6.877   0.603  14.009 -0.1869  0.9294  3.0323
14059TIP3    H263669   6.769   0.685  14.076 -3.6084 -0.2583 -0.6196
14060TIP3   OH263670   1.159   1.122   1.608 -0.2201 -0.3153  0.2432
14060TIP3    H163671   1.176   1.064   1.534 -2.6756  0.7207 -1.2429
14060TIP3    H263672   1.125   1.064   1.676 -1.1197 -0.8795 -0.6557
14061TIP3   OH263673   1.995   4.286  15.213  0.5430  0.5644 -0.4639
14061TIP3    H163674   2.025   4.195  15.223 -0.2350  0.4322  0.8886
14061TIP3    H263675   2.074   4.338  15.220  1.0636 -0.0184 -1.7092
14062TIP3   OH263676   5.951   3.074  11.005  0.1157 -0.5426 -0.3446
14062TIP3    H163677   5.973   3.045  11.094 -0.2588 -0.6877 -0.3017
14062TIP3    H263678   6.012   3.147  10.989 -1.0920  0.7746  0.7623
14063TIP3   OH263679   0.620   6.479  14.039  0.1697  0.4998 -0.4166
14063TIP3    H163680   0.547   6.449  14.093 -0.9789 -0.4508 -2.4371
14063TIP3    H263681   0.651   6.401  13.994  1.6504  1.1253 -0.5443
14064TIP3   OH263682   0.786   0.223  16.283  0.0647 -0.6271  0.0684
14064TIP3    H163683   0.745   0.290  16.228  2.2427 -0.1187 -1.0706
14064TIP3    H263684   0.855   0.185  16.227  1.9907 -0.5165  2.2137
14065TIP3   OH263685   0.367   5.046  12.921  0.0230  0.2284 -0.1859
14065TIP3    H163686   0.275   5.067  12.903 -0.0397  0.4755  0.3822
14065TIP3    H263687   0.417   5.117  12.880 -0.1630  1.2750  1.2993
14066TIP3   OH263688   2.224   2.773   4.074  0.0834  0.0834  0.1578
14066TIP3    H163689   2.231   2.678   4.062 -1.5098 -0.2931  1.6908
14066TIP3    H263690   2.230   2.809   3.985 -0.5667 -1.5643 -0.6016
14067TIP3   OH263691   2.157   0.912   3.210  0.2788  0.4638  0.0273
14067TIP3    H163692   2.146   0.998   3.252 -1.0063  1.0563 -1.4131
14067TIP3    H263693   2.148   0.849   3.282 -1.5592  1.4460  0.7384
14068TIP3   OH263694   5.389   6.293  16.579 -0.5372 -0.3207  0.4370
14068TIP3    H163695   5.316   6.354  16.582  0.7372  1.2145  2.0773
14068TIP3    H263696   5.445   6.326  16.508 -0.6813 -0.6275  0.1743
14069TIP3   OH263697   1.947   6.268  16.491  0.3066 -0.3276 -0.5604
14069TIP3    H163698   1.985   6.318  16.562 -0.6379 -3.2185  2.2142
14069TIP3    H263699   2.022   6.224  16.450  0.6154 -1.2697  0.9335
14070TIP3   OH263700   0.075   4.567   2.562  0.0450  0.5329  0.2330
14070TIP3    H163701   0.089   4.541   2.653  1.1669 -0.5964 -0.2364
14070TIP3    H263702   0.114   4.654   2.555 -2.0430  1.6374  1.3542
14071TIP3   OH263703   4.405   5.384  13.644 -0.0619 -0.3333 -0.6016
14071TIP3    H163704   4.403   5.441  13.721 -0.2247 -0.7034 -0.3289
14071TIP3    H263705   4.489   5.402  13.603 -0.4603  0.7294 -0.9976
14072TIP3   OH263706   3.366   4.840   6.904  0.0552  0.3290  0.2179
14072TIP3    H163707   3.352   4.787   6.825  1.0868  1.2189 -0.6138
14072TIP3    H263708   3.404   4.780   6.967  1.2430  0.0378 -0.7194
14073TIP3   OH263709   6.683   1.800   2.095 -0.0365  0.6428 -0.2507
14073TIP3    H163710   6.717   1.711   2.101 -1.4567  0.0825 -0.1456
14073TIP3    H263711   6.593   1.789   2.063 -1.4504  1.7620  2.9116
14074TIP3   OH263712   4.064   0.874  16.597 -0.1912 -0.1719 -0.1192
14074TIP3    H163713   3.979   0.901  16.562 -0.9219 -1.3288  0.6732
14074TIP3    H263714   4.127   0.905  16.533 -0.9290  3.0932  0.5417
14075TIP3   OH263715   4.351   3.518   2.773  0.1089 -0.6143 -0.2900
14075TIP3    H163716   4.272   3.572   2.776 -0.1361 -0.7941 -2.2381
14075TIP3    H263717   4.375   3.516   2.681  2.1763 -0.9019  0.2061
14076TIP3   OH263718   6.460   2.490   2.611 -0.2433  0.2577 -0.7760
14076TIP3    H163719   6.395   2.473   2.543 -0.9021 -0.6583  0.0445
14076TIP3    H263720   6.516   2.412   2.610 -0.8072 -0.1786  0.3138
14077TIP3   OH263721   1.442   5.850   4.056 -0.5721 -0.4560  0.7560
14077TIP3    H163722   1.349   5.828   4.064 -1.4350  1.8216 -1.5004
14077TIP3    H263723   1.465   5.826   3.966 -0.2464  2.7352 -0.1639
14078TIP3   OH263724   3.810   2.583  10.493  0.1091 -0.3772  0.1930
14078TIP3    H163725   3.902   2.600  10.475  0.3174 -0.8290  0.7955
14078TIP3    H263726   3.798   2.489  10.475 -0.3390 -0.2273 -0.3155
14079TIP3   OH263727   1.926   2.867  16.621 -0.0361  0.0546  0.4135
14079TIP3    H163728   1.868   2.940  16.640 -0.1306  0.0190  0.2614
14079TIP3    H263729   1.868   2.795  16.596  0.1259  0.4487 -1.2147
14080TIP3   OH263730   1.655   4.102  13.246  0.6971  0.0406  0.0912
14080TIP3    H163731   1.648   4.099  13.150 -1.6419  1.5565  0.1350
14080TIP3    H263732   1.668   4.011  13.272 -2.2081 -0.9783 -1.5388
14081TIP3   OH263733   3.559   6.136  11.083 -0.0352 -0.2821 -0.1055
14081TIP3    H163734   3.635   6.115  11.027  0.4579  0.5844  0.2251
14081TIP3    H263735   3.488   6.153  11.021 -0.0301 -1.3062 -0.4146
14082TIP3   OH263736   6.500   0.114  12.563 -0.3229  0.6529  0.5491
14082TIP3    H163737   6.578   0.111  12.618  0.1853 -0.3025 -0.1921
14082TIP3    H263738   6.456   0.031  12.581 -0.0802  0.2654 -0.5619
14083TIP3   OH263739   6.668   2.416  14.310 -0.1396  0.5954  0.2196
14083TIP3    H163740   6.598   2.381  14.365  0.1732  0.7383  0.7244
14083TIP3    H263741   6.666   2.510  14.326  1.9095  0.3715  2.4070
14084TIP3   OH263742   3.944   4.897  12.518 -0.1039  0.2315 -0.3304
14084TIP3    H163743   3.880   4.969  12.520 -1.1040 -0.6097 -0.8939
14084TIP3    H263744   4.020   4.931  12.565 -0.8082  1.4189 -0.0065
14085TIP3   OH263745   4.623   3.150   0.680 -0.8045 -0.0943  0.7254
14085TIP3    H163746   4.669   3.090   0.740  1.5077 -1.0368 -1.7460
14085TIP3    H263747   4.694   3.194   0.633 -2.4726  0.6877 -1.1827
14086TIP3   OH263748   2.175   5.042  12.908  0.0496 -1.1107 -0.3576
14086TIP3    H163749   2.226   4.973  12.866  1.0923  0.5536 -1.9687
14086TIP3    H263750   2.138   5.093  12.836 -1.8184 -0.7415  0.7769
14087TIP3   OH263751   6.792   0.633  16.694 -0.5345  0.3568  0.1390
14087TIP3    H163752   6.786   0.593  16.607 -0.4537 -0.2578  0.4094
14087TIP3    H263753   6.881   0.667  16.699  0.1151 -1.3330  0.6990
14088TIP3   OH263754   1.894   2.834  13.132  0.1014  0.3641  0.3933
14088TIP3    H163755   1.831   2.763  13.144  0.7988 -0.1043  1.4092
14088TIP3    H263756   1.978   2.790  13.124  0.4161  1.0321 -0.0418
14089TIP3   OH263757   0.062   4.670  15.365 -0.3194 -0.3417  0.3040
14089TIP3    H163758   0.092   4.751  15.324  0.1247 -0.8017 -0.2933
14089TIP3    H263759   0.138   4.636  15.411 -0.9221  0.3994  1.9454
14090TIP3   OH263760   4.300   0.647   0.201  0.6105  0.5493 -0.7838
14090TIP3    H163761   4.374   0.639   0.261 -1.5064  1.7660  2.2146
14090TIP3    H263762   4.276   0.739   0.203 -0.0370  0.4975 -2.9993
14091TIP3   OH263763   1.834   6.679   4.113  0.2828 -0.1383  0.5613
14091TIP3    H163764   1.762   6.734   4.146 -2.6712 -4.1166  1.5614
14091TIP3    H263765   1.823   6.679   4.018  0.7045  1.3311  0.4857
14092TIP3   OH263766   1.344   5.148  12.203  0.0291  0.3053 -0.3374
14092TIP3    H163767   1.298   5.076  12.246  2.3600 -1.0658  0.0317
14092TIP3    H263768   1.345   5.218  12.268  0.1276 -0.3418  0.3813
14093TIP3   OH263769   2.580   3.396   2.893 -0.4757  0.8533  0.3977
14093TIP3    H163770   2.563   3.344   2.814 -1.2352 -0.5105  1.4142
14093TIP3    H263771   2.655   3.450   2.871  2.7646 -3.1596  0.3454
14094TIP3   OH263772   3.575   4.829   0.633  0.3639  0.0349  0.3730
14094TIP3    H163773   3.553   4.852   0.723 -0.9135  1.2831 -0.2098
14094TIP3    H263774   3.665   4.858   0.622  0.0619  1.1899  0.8350
14095TIP3   OH263775   5.185   6.658  15.923  0.7528 -0.2788  0.1368
14095TIP3    H163776   5.242   6.693  15.854  1.6779  0.4637  1.2434
14095TIP3    H263777   5.096   6.673  15.890  1.1712  0.3561 -0.7516
14096TIP3   OH263778   2.323   3.456  12.969  0.0557 -0.5255  0.0127
14096TIP3    H163779   2.354   3.539  13.004 -1.7322  0.1487  0.1074
14096TIP3    H263780   2.401   3.401  12.965  0.6304 -0.1750  3.6297
14097TIP3   OH263781   2.681   0.673   1.427  0.3011  0.1390  0.3897
14097TIP3    H163782   2.761   0.639   1.387 -0.3904  1.0312 -1.8795
14097TIP3    H263783   2.710   0.709   1.511  1.7709 -2.0046  0.8949
14098TIP3   OH263784   6.682   5.729   4.655  0.4505  0.4220  0.6572
14098TIP3    H163785   6.679   5.645   4.702  1.1389 -0.4383 -0.7805
14098TIP3    H263786   6.772   5.760   4.667  1.1585 -0.6610 -1.4678
14099TIP3   OH263787   5.428   2.145  11.468  0.1889  0.1379 -0.3525
14099TIP3    H163788   5.438   2.238  11.452  0.1598  0.3085  0.5854
14099TIP3    H263789   5.338   2.135  11.499  0.3579 -0.1284  0.0604
14100TIP3   OH263790   4.961   6.690   0.030 -0.1189  0.3715  0.4887
14100TIP3    H163791   4.906   6.749   0.083  1.5202  1.8550  0.6260
14100TIP3    H263792   5.016   6.645   0.094  2.1054  2.4126  0.1523
14101TIP3   OH263793   0.716   1.060  10.579  0.3343  0.1015  0.4715
14101TIP3    H163794   0.652   1.124  10.546 -1.2375 -1.7195 -0.2221
14101TIP3    H263795   0.785   1.113  10.619 -1.0021  2.2064  0.1402
14102TIP3   OH263796   3.836   5.139   2.909  0.6813 -0.7446  0.7523
14102TIP3    H163797   3.905   5.186   2.955  0.2086 -0.3058  1.0281
14102TIP3    H263798   3.820   5.061   2.963  2.8005 -2.2975 -0.6947
14103TIP3   OH263799   0.212   1.226  11.017 -0.1952  0.2727  0.0472
14103TIP3    H163800   0.149   1.261  10.954 -2.6865 -1.9898  1.0501
14103TIP3    H263801   0.158   1.202  11.092  2.1778 -0.2620  1.6681
14104TIP3   OH263802   2.920   4.344  14.606 -0.7084 -0.0823 -0.3099
14104TIP3    H163803   2.830   4.327  14.579 -0.6216 -0.0794 -0.6099
14104TIP3    H263804   2.949   4.262  14.645 -0.6694 -0.2543 -0.6967
14105TIP3   OH263805   4.521   6.181   5.790 -0.0871  0.1724 -0.5102
14105TIP3    H163806   4.573   6.228   5.724  0.7401 -0.9691 -0.7232
14105TIP3    H263807   4.466   6.248   5.830  0.0454  1.0582 -1.7420
14106TIP3   OH263808   5.250   1.752   0.189  0.4941 -0.0524  0.0461
14106TIP3    H163809   5.266   1.733   0.281 -2.2971 -0.7070  0.5157
14106TIP3    H263810   5.174   1.811   0.190 -2.1913 -3.1169 -1.7496
14107TIP3   OH263811   3.712   1.193   2.376 -0.9856 -0.1726 -0.2779
14107TIP3    H163812   3.660   1.154   2.305 -0.1642  0.8879 -1.4926
14107TIP3    H263813   3.693   1.286   2.372 -1.6315 -0.1669  1.5390
14108TIP3   OH263814   6.787   0.893   4.251  0.2675 -0.1329 -0.4690
14108TIP3    H163815   6.872   0.916   4.286 -0.4234  0.4331  0.9074
14108TIP3    H263816   6.769   0.959   4.184  0.0104  1.0317  0.7147
14109TIP3   OH263817   1.294   3.215  16.637  0.0314 -0.0555 -0.2368
14109TIP3    H163818   1.259   3.175  16.558 -0.1858 -0.7762  0.2128
14109TIP3    H263819   1.369   3.266  16.607 -2.0290  2.5546 -1.4269
14110TIP3   OH263820   1.256   5.844  12.822 -0.6657 -0.2436  0.0780
14110TIP3    H163821   1.335   5.825  12.874  0.1477 -3.0820 -1.9714
14110TIP3    H263822   1.289   5.887  12.743 -1.0193 -1.9313 -1.0418
14111TIP3   OH263823   5.440   1.914  14.199 -0.1333 -0.4876  0.4385
14111TIP3    H163824   5.466   2.006  14.212  0.3670  0.2265 -4.0054
14111TIP3    H263825   5.345   1.918  14.187 -0.0287 -0.4180 -0.4075
14112TIP3   OH263826   4.551   0.191   4.600 -0.6242  0.2109 -0.4638
14112TIP3    H163827   4.646   0.202   4.604 -0.5765 -0.4241  1.0618
14112TIP3    H263828   4.517   0.273   4.636 -0.5347 -0.6614  1.7574
14113TIP3   OH263829   3.364   0.423  13.071  0.2029  0.2220  0.3843
14113TIP3    H163830   3.431   0.423  13.002  0.6116  0.0627  0.7729
14113TIP3    H263831   3.330   0.513  13.072  0.1869  0.2202 -0.0315
14114TIP3   OH263832   2.656   3.977   2.752 -0.1600 -0.4408  0.3582
14114TIP3    H163833   2.572   4.017   2.730 -1.1630 -2.9763 -0.8334
14114TIP3    H263834   2.636   3.916   2.823  0.7332 -0.8888  0.2414
14115TIP3   OH263835   3.954   1.841   5.837  0.0468  0.9348 -0.9416
14115TIP3    H163836   3.905   1.777   5.889 -1.1311 -1.3325 -4.5392
14115TIP3    H263837   3.897   1.917   5.832 -0.0456  1.0012  0.4741
14116TIP3   OH263838   2.339   2.836  11.328  0.1703  0.6527 -0.5243
14116TIP3    H163839   2.382   2.921  11.338 -1.3943  1.5544 -1.1256
14116TIP3    H263840   2.378   2.799  11.249  0.2962  1.1696 -0.7108
14117TIP3   OH263841   4.990   0.264   4.304 -0.3336 -0.0869  0.0016
14117TIP3    H163842   4.916   0.204   4.313 -0.0009 -0.5913 -0.5891
14117TIP3    H263843   5.061   0.221   4.351  0.3826 -0.9912 -1.8081
14118TIP3   OH263844   0.956   0.419  15.517 -0.0729  0.1954  0.2876
14118TIP3    H163845   0.966   0.462  15.432 -0.3502 -0.9806 -0.3575
14118TIP3    H263846   0.873   0.452  15.551 -0.1502  0.3756 -0.0749
14119TIP3   OH263847   4.813   1.344   4.118 -0.6339 -0.7468 -0.8725
14119TIP3    H163848   4.838   1.285   4.189 -0.9130 -0.8206 -0.8341
14119TIP3    H263849   4.752   1.406   4.158 -0.4322 -0.5041 -0.9405
14120TIP3   OH263850   6.085   2.372   2.032  0.0752 -0.6594 -0.4108
14120TIP3    H163851   6.144   2.379   1.957  0.4012 -2.3892 -0.3634
14120TIP3    H263852   6.003   2.409   2.002  0.2190 -1.2782 -1.6288
14121TIP3   OH263853   2.162   3.427  16.165  0.3055  0.3760 -0.3904
14121TIP3    H163854   2.124   3.392  16.084  0.3338 -1.1669  0.2289
14121TIP3    H263855   2.093   3.418  16.230  0.4557  1.1351 -0.1090
14122TIP3   OH263856   5.219   3.346  10.494  0.5474 -0.0695 -0.0057
14122TIP3    H163857   5.202   3.424  10.441 -1.3426  0.0337  0.6963
14122TIP3    H263858   5.148   3.286  10.473  2.1821 -1.8340 -0.8417
14123TIP3   OH263859   1.437   1.299   6.293  0.1749  0.3059  0.5098
14123TIP3    H163860   1.400   1.343   6.216  1.5872 -0.2274 -0.5197
14123TIP3    H263861   1.382   1.222   6.305  0.1042  0.2419 -0.1528
14124TIP3   OH263862   6.186   2.551  16.810  0.4373 -0.0894 -0.2264
14124TIP3    H163863   6.241   2.630  16.811  0.2379  0.0495  0.3544
14124TIP3    H263864   6.098   2.583  16.792  0.4613 -0.2570 -0.6502
14125TIP3   OH263865   5.272   4.184  10.844  0.2927 -0.4595 -0.1908
14125TIP3    H163866   5.193   4.235  10.861  1.4875  0.7880  2.0265
14125TIP3    H263867   5.278   4.124  10.918  0.6431 -1.6351 -1.1293
14126TIP3   OH263868   6.595   0.575  16.888 -0.3473 -0.3235 -0.0723
14126TIP3    H163869   6.663   0.604  16.827 -0.7380 -0.0070 -0.3562
14126TIP3    H263870   6.521   0.551  16.832 -0.3086 -1.1184  0.2068
14127TIP3   OH263871   5.527   3.348   0.369  0.6259  0.6736  0.0696
14127TIP3    H163872   5.506   3.354   0.462 -2.0741  0.4739 -0.4214
14127TIP3    H263873   5.468   3.411   0.327  1.1521  0.1319 -1.5859
14128TIP3   OH263874   2.756   4.616  15.716 -0.3510 -0.0719  0.0954
14128TIP3    H163875   2.695   4.680  15.679 -0.6382 -1.2707 -1.5940
14128TIP3    H263876   2.820   4.669  15.763 -1.5486  1.3450  0.2236
14129TIP3   OH263877   5.644   3.440  12.236  0.8031 -0.0912  0.1646
14129TIP3    H163878   5.586   3.416  12.309 -0.1128  2.0159  0.2156
14129TIP3    H263879   5.628   3.373  12.170 -1.2098  0.0271  0.4534
14130TIP3   OH263880   0.279   4.299   2.940  0.6942 -0.4521  0.4150
14130TIP3    H163881   0.195   4.319   2.981  0.8906  1.1781  0.0964
14130TIP3    H263882   0.262   4.219   2.889 -0.9405  0.3698 -0.4149
14131TIP3   OH263883   1.814   6.521  12.190 -0.0789 -0.6066  0.0187
14131TIP3    H163884   1.787   6.431  12.177  0.6346 -0.8916  0.4816
14131TIP3    H263885   1.840   6.551  12.102  2.1068 -1.6671  0.2347
14132TIP3   OH263886   4.312   1.234  13.139 -0.3521 -0.6580 -0.3067
14132TIP3    H163887   4.285   1.152  13.097 -0.4738 -2.1283  2.4379
14132TIP3    H263888   4.232   1.286  13.141 -0.8248 -1.3711 -0.1438
14133TIP3   OH263889   2.622   3.852   3.830 -0.0455 -0.2940 -0.3566
14133TIP3    H163890   2.626   3.765   3.791  0.0352 -0.6066  0.3240
14133TIP3    H263891   2.676   3.907   3.774  0.4378 -0.8308 -0.4201
14134TIP3   OH263892   1.606   0.863  15.670 -0.5481 -0.4699 -0.4015
14134TIP3    H163893   1.634   0.869  15.761 -1.8426 -0.3851  0.0107
14134TIP3    H263894   1.541   0.934  15.660 -0.5149 -0.5583 -1.3498
14135TIP3   OH263895   4.531   0.975  12.396 -0.6281  0.3360 -0.3436
14135TIP3    H163896   4.533   0.995  12.490 -0.1459 -0.2219 -0.2282
14135TIP3    H263897   4.593   0.903  12.386 -1.9965 -0.8273 -0.8095
14136TIP3   OH263898   3.825   4.118   6.148 -0.0214  0.1509 -0.3772
14136TIP3    H163899   3.867   4.035   6.126 -0.3410 -0.1689  0.1947
14136TIP3    H263900   3.896   4.171   6.184  0.1200  0.0079 -0.4441
14137TIP3   OH263901   6.200   4.484  14.566  0.3044  0.0270  0.1968
14137TIP3    H163902   6.177   4.392  14.577  1.6568 -0.3654 -0.1115
14137TIP3    H263903   6.276   4.498  14.622 -0.9062  1.4377  1.6195
14138TIP3   OH263904   0.869   1.948  13.478 -0.4818  0.3153  0.1138
14138TIP3    H163905   0.854   2.040  13.456 -1.6644  0.2811  0.6640
14138TIP3    H263906   0.782   1.914  13.500 -0.1194 -1.0328 -0.4190
14139TIP3   OH263907   0.423   4.337   1.197 -0.5832 -0.1781 -0.1865
14139TIP3    H163908   0.415   4.418   1.248  0.0947  0.6361 -1.3135
14139TIP3    H263909   0.366   4.275   1.241  0.3747  0.3185  1.8716
14140TIP3   OH263910   2.136   0.385  12.592 -0.2674 -0.7009 -0.4528
14140TIP3    H163911   2.089   0.396  12.674 -1.1761  1.3827 -1.1832
14140TIP3    H263912   2.075   0.337  12.535 -0.8370  0.4307 -0.8227
14141TIP3   OH263913   1.878   2.999   2.454 -0.4540 -0.6862  0.0380
14141TIP3    H163914   1.859   2.918   2.502 -0.9031 -1.2500 -1.0423
14141TIP3    H263915   1.864   2.976   2.362  0.4647  0.3320 -0.3838
14142TIP3   OH263916   4.319   0.941   1.912 -0.8236  0.0213 -0.1401
14142TIP3    H163917   4.255   1.012   1.914 -0.3146  0.5012 -0.7859
14142TIP3    H263918   4.311   0.903   1.825 -0.5584 -0.2218 -0.0607
14143TIP3   OH263919   0.436   0.371  16.385 -0.6131  0.0204 -0.2795
14143TIP3    H163920   0.388   0.453  16.374 -0.0208  0.1875 -1.7827
14143TIP3    H263921   0.511   0.378  16.325  0.7592 -0.6477  1.2600
14144TIP3   OH263922   3.397   5.705  15.467  0.2284 -0.4309 -0.1317
14144TIP3    H163923   3.431   5.735  15.383  1.8448 -1.0981  0.2664
14144TIP3    H263924   3.302   5.699  15.453  0.3143  0.7319 -1.4912
14145TIP3   OH263925   4.472   0.062   1.053  0.0887 -0.0635 -0.0287
14145TIP3    H163926   4.466   0.004   1.129 -1.0388  1.2651  0.9607
14145TIP3    H263927   4.486   0.003   0.979 -0.9588 -1.6117  0.9323
14146TIP3   OH263928   3.852   1.507  13.275  0.1911 -0.1262 -0.0004
14146TIP3    H163929   3.860   1.550  13.190  1.3288 -0.8140 -0.2550
14146TIP3    H263930   3.758   1.504  13.291 -0.0427 -0.0377 -1.2512
14147TIP3   OH263931   5.849   6.401  15.413  0.6119  0.3657  0.1874
14147TIP3    H163932   5.859   6.321  15.463  1.7152 -0.5624 -1.4335
14147TIP3    H263933   5.806   6.374  15.332  0.1822  1.5684 -0.0069
14148TIP3   OH263934   5.269   1.657   3.136  0.3799 -0.2129 -0.0510
14148TIP3    H163935   5.319   1.627   3.211 -1.6188  1.5227  2.1088
14148TIP3    H263936   5.231   1.741   3.163 -1.6540 -0.2187 -2.4396
14149TIP3   OH263937   1.909   1.761   5.150 -0.1206  0.1591  0.2328
14149TIP3    H163938   1.976   1.829   5.143 -1.0561  1.3677  2.1081
14149TIP3    H263939   1.833   1.798   5.107 -0.2783 -0.2237  0.1795
14150TIP3   OH263940   2.935   5.123   0.372  0.2860 -0.2843  0.1074
14150TIP3    H163941   2.927   5.136   0.467  2.0510 -1.6248  0.4864
14150TIP3    H263942   3.009   5.179   0.347 -1.0327  1.1329 -0.7628
14151TIP3   OH263943   4.284   4.202   6.294  0.0457  0.0008 -0.4219
14151TIP3    H163944   4.370   4.222   6.257  1.1305 -1.2413  1.2653
14151TIP3    H263945   4.303   4.152   6.373 -2.2751 -1.7700 -0.8636
14152TIP3   OH263946   5.037   0.682  13.510  0.6081  0.2256  0.4312
14152TIP3    H163947   4.969   0.646  13.567 -0.2469  0.5659 -0.3377
14152TIP3    H263948   5.119   0.656  13.551  0.0367 -1.8840  0.3596
14153TIP3   OH263949   0.163   6.427  11.374  0.4124 -0.2696  0.2386
14153TIP3    H163950   0.186   6.383  11.456  0.1051  0.6212  0.8228
14153TIP3    H263951   0.185   6.363  11.306  1.9386 -0.5262  0.9154
14154TIP3   OH263952   4.637   2.485  11.962 -0.0637 -0.7256  0.6569
14154TIP3    H163953   4.669   2.476  12.051  2.6122  1.1502  0.0175
14154TIP3    H263954   4.717   2.491  11.909 -1.5596  0.0418 -1.6500
14155TIP3   OH263955   3.634   3.321  10.597  0.0243 -0.1844 -0.2000
14155TIP3    H163956   3.604   3.232  10.581 -0.4956  0.2536 -1.8266
14155TIP3    H263957   3.678   3.316  10.681 -3.4198 -1.1430  1.7424
14156TIP3   OH263958   5.846   4.964   2.666  0.3804  0.1318  0.0388
14156TIP3    H163959   5.894   4.881   2.660  0.8317  0.4288 -0.5625
14156TIP3    H263960   5.914   5.030   2.677 -0.0584  0.2809  2.2796
14157TIP3   OH263961   1.738   2.744   4.766 -0.3902 -0.6931 -0.3000
14157TIP3    H163962   1.795   2.806   4.812  3.0940 -2.3935 -1.9752
14157TIP3    H263963   1.724   2.674   4.830  2.3919 -1.8744 -0.8354
14158TIP3   OH263964   4.520   6.519  14.704 -0.6670  0.7564  0.3519
14158TIP3    H163965   4.518   6.423  14.713 -0.6053  0.6897 -0.3021
14158TIP3    H263966   4.434   6.542  14.671 -0.2696  0.7943 -0.6854
14159TIP3   OH263967   2.823   0.264  13.464 -0.1513 -0.3512 -0.3389
14159TIP3    H163968   2.776   0.181  13.452 -1.9095  0.6312 -0.6370
14159TIP3    H263969   2.833   0.298  13.375  0.1553 -0.0283 -0.1819
14160TIP3   OH263970   1.733   6.583  13.174 -0.4280 -0.4226 -0.2399
14160TIP3    H163971   1.699   6.526  13.243 -0.9158  0.8323  0.6057
14160TIP3    H263972   1.668   6.653  13.167  0.6678  0.6016 -0.4869
14161TIP3   OH263973   5.393   5.233  15.464 -0.1942 -0.3161  0.2346
14161TIP3    H163974   5.472   5.285  15.449 -0.1456  0.1642  1.9423
14161TIP3    H263975   5.321   5.295  15.454 -0.3530 -0.6370 -0.7854
14162TIP3   OH263976   2.415   3.840  11.676  0.3592 -0.0618 -0.2268
14162TIP3    H163977   2.436   3.784  11.750 -0.9722 -0.1810  0.0853
14162TIP3    H263978   2.495   3.840  11.622  0.8643 -1.0884  0.4909
14163TIP3   OH263979   4.680   6.309   0.892  0.4030 -0.0216  0.0495
14163TIP3    H163980   4.719   6.243   0.834 -0.4494  0.1190 -0.7089
14163TIP3    H263981   4.664   6.384   0.836  1.8984  1.0853  1.0378
14164TIP3   OH263982   3.642   2.394  16.054 -0.0060  0.0823 -0.3298
14164TIP3    H163983   3.727   2.437  16.043  0.9313 -1.5478  0.1177
14164TIP3    H263984   3.617   2.414  16.144  0.8549 -0.9612  0.1708
14165TIP3   OH263985   2.239   2.753   4.606 -0.0248 -0.5692 -0.3143
14165TIP3    H163986   2.248   2.803   4.524 -0.0690 -2.0538 -1.2611
14165TIP3    H263987   2.253   2.818   4.675 -1.7249  1.1224 -1.4347
14166TIP3   OH263988   6.165   2.956  16.580 -0.0890 -0.0814  0.1761
14166TIP3    H163989   6.159   3.049  16.600  0.6661 -0.4980  2.6435
14166TIP3    H263990   6.075   2.929  16.565 -0.7698  0.4091  2.8907
14167TIP3   OH263991   3.886   3.596   0.489 -0.1671  0.3154 -0.2668
14167TIP3    H163992   3.919   3.674   0.532  0.7411 -0.6576  0.8683
14167TIP3    H263993   3.855   3.540   0.560  0.1524 -0.7945 -0.9664
14168TIP3   OH263994   4.997   2.145   3.192  0.4475 -0.1157  0.1618
14168TIP3    H163995   5.041   2.163   3.275  2.2485  2.8160 -1.2615
14168TIP3    H263996   4.910   2.183   3.202  0.7189  0.3893  0.6446
14169TIP3   OH263997   5.768   0.756   2.469 -0.1461  0.1452 -0.4109
14169TIP3    H163998   5.722   0.827   2.512 -1.9897 -0.8284 -0.6737
14169TIP3    H263999   5.791   0.790   2.383  0.8967  1.0968  0.2202
14170TIP3   OH264000   4.016   3.986  12.532  0.3455 -0.4398  0.3492
14170TIP3    H164001   4.011   3.909  12.476 -2.2562  0.6317 -1.0722
14170TIP3    H264002   3.957   4.050  12.491  2.8631  2.6092  1.0647
14171TIP3   OH264003   0.282   6.328  12.867  0.2237 -0.2050 -0.5074
14171TIP3    H164004   0.211   6.292  12.920  1.2463 -4.0404 -1.4495
14171TIP3    H264005   0.238   6.376  12.797 -1.2384  1.0520  1.1819
14172TIP3   OH264006   1.670   2.642  14.055 -0.3414  0.3232 -0.0615
14172TIP3    H164007   1.578   2.659  14.072 -0.1454  0.1239  1.2617
14172TIP3    H264008   1.675   2.548  14.037 -0.2132  0.0231  1.3892
14173TIP3   OH264009   5.563   1.306   3.254  0.2779  0.4138  0.3879
14173TIP3    H164010   5.537   1.398   3.257  0.8520  0.5499  1.9094
14173TIP3    H264011   5.522   1.267   3.331  0.2707 -0.5467 -0.0950
14174TIP3   OH264012   5.849   1.719   3.580 -0.7010  0.2385 -0.2960
14174TIP3    H164013   5.824   1.806   3.611 -0.7777  0.0118  0.2790
14174TIP3    H264014   5.845   1.726   3.484 -3.6864  0.0068 -0.2762
14175TIP3   OH264015   2.503   6.800   0.912 -0.5283 -0.2701  0.6066
14175TIP3    H164016   2.471   6.889   0.897 -2.0178 -0.9618 -0.5387
14175TIP3    H264017   2.447   6.766   0.983  0.9788  0.1445  2.0608
14176TIP3   OH264018   6.667   0.958   0.890  0.0740 -0.2608  0.4491
14176TIP3    H164019   6.712   0.998   0.965  1.7160  0.0872 -0.6683
14176TIP3    H264020   6.575   0.957   0.915  0.3187  1.7218  1.6342
14177TIP3   OH264021   3.540   0.194   0.893  0.0906 -0.1288  0.4235
14177TIP3    H164022   3.523   0.266   0.832 -1.4583  0.1549  1.1362
14177TIP3    H264023   3.462   0.190   0.948  0.1830 -2.3107  0.4833
14178TIP3   OH264024   3.242   1.767   2.260 -0.3048 -0.4037  0.1976
14178TIP3    H164025   3.336   1.751   2.252 -0.0803 -0.2312  2.2377
14178TIP3    H264026   3.202   1.686   2.226  0.5212 -0.2540 -1.2280
14179TIP3   OH264027   2.676   4.045   5.629  0.2165  0.2337 -0.3041
14179TIP3    H164028   2.682   4.050   5.724  0.0408 -1.5303 -0.1612
14179TIP3    H264029   2.636   3.960   5.612  1.4584 -0.0702 -1.9778
14180TIP3   OH264030   0.115   1.125   2.191 -0.2542  0.0450  0.2403
14180TIP3    H164031   0.176   1.173   2.246 -0.2763  2.7483 -1.8815
14180TIP3    H264032   0.160   1.042   2.172  1.5450  0.8129  0.9413
14181TIP3   OH264033   5.061   3.060   1.396 -0.0250  0.1704  0.3626
14181TIP3    H164034   5.122   3.085   1.465 -0.1249 -0.3692  0.6480
14181TIP3    H264035   5.064   3.134   1.334  1.4835 -0.1687 -0.0174
14182TIP3   OH264036   5.808   2.710   4.504  0.1882 -0.2827  0.3523
14182TIP3    H164037   5.856   2.632   4.477 -0.1876 -0.2250 -0.5258
14182TIP3    H264038   5.722   2.700   4.463 -0.6351 -0.4612  2.0099
14183TIP3   OH264039   1.402   5.165  12.559  0.1500 -0.1537 -0.8243
14183TIP3    H164040   1.493   5.195  12.557  0.5830 -1.3304  0.1377
14183TIP3    H264041   1.351   5.245  12.569  0.9862  0.6421 -2.4748
14184TIP3   OH264042   1.985   0.207  12.438 -1.4464  0.0923  0.2149
14184TIP3    H164043   1.929   0.149  12.488 -1.0468  0.2830  0.9047
14184TIP3    H264044   2.013   0.155  12.363  0.2362 -1.2220  1.6484
14185TIP3   OH264045   3.787   6.200   2.372  0.1066  0.5897  0.3572
14185TIP3    H164046   3.871   6.222   2.412  1.1287 -0.1218 -1.2998
14185TIP3    H264047   3.772   6.271   2.310  1.4220 -1.1267 -2.0830
14186TIP3   OH264048   5.161   5.852  15.044  0.0703  0.2930 -0.2071
14186TIP3    H164049   5.222   5.887  14.979  2.8177  1.2356  2.6233
14186TIP3    H264050   5.079   5.898  15.028  0.4996  0.2000 -3.1617
14187TIP3   OH264051   3.402   1.065   0.731  0.2887 -0.4596  0.6348
14187TIP3    H164052   3.359   1.005   0.670  2.4981 -1.3038 -0.1835
14187TIP3    H264053   3.425   1.141   0.678 -1.1111  0.4851  1.3240
14188TIP3   OH264054   1.973   1.585   4.192  0.0198  0.6434 -0.3046
14188TIP3    H164055   2.055   1.537   4.178  0.1128  0.5808  0.4198
14188TIP3    H264056   1.914   1.520   4.231 -0.6805  0.4354 -1.6567
14189TIP3   OH264057   5.122   6.587  16.397 -0.1298  0.1433 -0.0430
14189TIP3    H164058   5.035   6.593  16.357  0.2021  1.0024 -0.6691
14189TIP3    H264059   5.178   6.554  16.327  0.1960  0.3500  0.1174
14190TIP3   OH264060   1.311   3.922   4.046 -0.5458  0.0576 -0.0701
14190TIP3    H164061   1.242   3.912   3.979 -0.0313 -1.2226 -0.4352
14190TIP3    H264062   1.303   3.844   4.100  0.7069 -0.1883 -0.2091
14191TIP3   OH264063   3.046   5.988   1.320 -0.6197  0.1446 -0.2944
14191TIP3    H164064   3.030   5.908   1.271  0.0955  0.2847 -0.7687
14191TIP3    H264065   2.967   6.000   1.373 -0.1105 -1.6761  0.9400
14192TIP3   OH264066   0.559   5.197  14.818 -0.3517 -0.1253 -0.1916
14192TIP3    H164067   0.545   5.128  14.752 -0.0614  0.2926 -0.7016
14192TIP3    H264068   0.533   5.157  14.901 -2.3776 -0.1422 -0.7714
14193TIP3   OH264069   2.113   6.400   4.670  0.8203  0.7063  0.1692
14193TIP3    H164070   2.035   6.406   4.726  0.3497  1.2469 -0.5194
14193TIP3    H264071   2.137   6.491   4.653  2.4989  0.5653  1.5571
14194TIP3   OH264072   5.802   2.360   3.025 -0.3258 -0.3602 -0.1717
14194TIP3    H164073   5.813   2.424   3.095 -0.3572  0.2615 -0.7260
14194TIP3    H264074   5.754   2.407   2.957  0.1688 -0.7864 -0.8288
14195TIP3   OH264075   1.774   0.267  13.972 -0.1121 -0.0288  0.2751
14195TIP3    H164076   1.797   0.275  14.064  1.7679 -2.7214  0.1373
14195TIP3    H264077   1.720   0.188  13.967  0.2493 -0.2236 -0.9935
14196TIP3   OH264078   1.884   5.795   2.736  0.3344 -0.3928  0.3993
14196TIP3    H164079   1.824   5.784   2.810  0.3528  2.5317  0.9899
14196TIP3    H264080   1.951   5.855   2.768 -0.3158  1.9655 -2.2512
14197TIP3   OH264081   3.202   2.171   0.630  0.6392  0.2463  0.0197
14197TIP3    H164082   3.228   2.188   0.720 -0.5374 -1.0373  0.6444
14197TIP3    H264083   3.273   2.118   0.594  0.9359  0.4436  0.3198
14198TIP3   OH264084   3.266   5.721   2.447  0.3479 -0.1120  0.0123
14198TIP3    H164085   3.272   5.633   2.484 -0.8109  0.1185  0.7876
14198TIP3    H264086   3.301   5.778   2.516 -1.5437  0.2902  0.7107
14199TIP3   OH264087   2.211   3.916   1.806 -0.1874 -0.1709 -0.1505
14199TIP3    H164088   2.264   3.962   1.872 -1.0327 -1.2888  1.3934
14199TIP3    H264089   2.270   3.902   1.733  0.9142  0.8070  0.5134
14200TIP3   OH264090   0.462   1.326   4.575  0.3870  0.2114 -1.3236
14200TIP3    H164091   0.474   1.262   4.645 -1.8187  2.9445  1.8101
14200TIP3    H264092   0.545   1.373   4.571 -0.1845  1.5678  1.2460
14201TIP3   OH264093   0.599   1.996  11.771 -0.0439 -0.4236  0.1572
14201TIP3    H164094   0.600   1.950  11.686 -2.5150 -0.6787  0.1855
14201TIP3    H264095   0.587   2.088  11.748 -1.7290 -0.5997  0.1844
14202TIP3   OH264096   0.303   3.140   5.511  0.3275 -0.3188 -0.1735
14202TIP3    H164097   0.374   3.080   5.486  0.2898 -0.4036 -0.0796
14202TIP3    H264098   0.335   3.226   5.486 -0.3025 -0.5355 -1.8372
14203TIP3   OH264099   2.619   6.104   3.363  1.0595 -0.3133 -0.2941
14203TIP3    H164100   2.610   6.017   3.402 -3.0437 -0.2419 -0.7388
14203TIP3    H264101   2.680   6.150   3.421  1.8067 -2.8401  1.0583
14204TIP3   OH264102   3.103   2.508   0.467 -0.3524 -0.3479  0.1080
14204TIP3    H164103   3.045   2.522   0.541 -1.1069 -0.3991 -0.4555
14204TIP3    H264104   3.165   2.580   0.470 -0.0650 -0.6216  1.0660
14205TIP3   OH264105   3.814   1.163  16.683 -0.3111  0.6442  0.0948
14205TIP3    H164106   3.852   1.144  16.597 -0.3929 -1.2473  0.4351
14205TIP3    H264107   3.766   1.245  16.670  0.9918  1.2610 -1.2316
14206TIP3   OH264108   5.881   3.442   2.117  0.1360 -0.6523  0.5422
14206TIP3    H164109   5.871   3.534   2.143 -0.1644 -0.2419 -0.9018
14206TIP3    H264110   5.915   3.398   2.195 -1.2699  0.3592  1.7737
14207TIP3   OH264111   3.305   5.822  14.620 -0.5124  0.6658  0.1331
14207TIP3    H164112   3.250   5.896  14.594 -0.4010  1.0089  0.8477
14207TIP3    H264113   3.279   5.803  14.709  0.7749  1.0749  0.6265
14208TIP3   OH264114   4.399   1.186   5.871 -0.0298 -0.0740  0.1651
14208TIP3    H164115   4.364   1.119   5.929 -0.6108  1.1627  1.3246
14208TIP3    H264116   4.324   1.217   5.821  0.2998 -0.5238 -0.6152
14209TIP3   OH264117   1.200   4.160   1.489 -0.2496  0.4657 -0.1470
14209TIP3    H164118   1.254   4.100   1.438  0.1872  1.0987 -0.4474
14209TIP3    H264119   1.186   4.235   1.431 -0.3111  0.9065  0.4231
14210TIP3   OH264120   4.078   5.480   4.879  0.1289 -0.1648  0.1433
14210TIP3    H164121   4.022   5.445   4.949  1.6514 -1.0579  0.9459
14210TIP3    H264122   4.033   5.560   4.851 -1.0800 -0.3757  1.3788
14211TIP3   OH264123   2.284   2.745   3.553  0.6867  0.4178 -0.1909
14211TIP3    H164124   2.344   2.792   3.496  0.4101 -0.0518 -0.8742
14211TIP3    H264125   2.269   2.805   3.627  0.5572  1.2886 -0.9095
14212TIP3   OH264126   3.766   3.352  14.883  0.5340 -0.2568 -0.1386
14212TIP3    H164127   3.673   3.357  14.862  0.6600 -2.4209 -1.5085
14212TIP3    H264128   3.788   3.439  14.916 -1.5338  0.9031 -1.6142
14213TIP3   OH264129   3.214   2.711  11.883  0.0588  0.5309 -0.1381
14213TIP3    H164130   3.235   2.702  11.790  0.9273 -2.2902  0.2139
14213TIP3    H264131   3.278   2.774  11.916  0.8910  0.2456 -1.1503
14214TIP3   OH264132   2.956   5.115  11.543 -0.1061 -0.2317  0.1174
14214TIP3    H164133   3.041   5.148  11.573 -0.3069 -1.0158  1.6125
14214TIP3    H264134   2.975   5.029  11.506 -0.1817 -0.1626 -0.0890
14215TIP3   OH264135   3.451   1.953  14.266 -0.1941  0.2208 -0.6914
14215TIP3    H164136   3.486   2.002  14.340  0.8113  0.5832 -1.3891
14215TIP3    H264137   3.357   1.947  14.283 -0.3688  2.4505 -0.6056
14216TIP3   OH264138   5.404   3.168   4.893 -0.0635  0.4414  0.8817
14216TIP3    H164139   5.463   3.104   4.855 -1.0727  0.5244 -0.9842
14216TIP3    H264140   5.345   3.118   4.949  1.3370  0.2777  2.2479
14217TIP3   OH264141   2.021   5.832   3.303  0.3741 -0.7108  0.0084
14217TIP3    H164142   1.997   5.765   3.239  0.8937 -2.4460  1.5466
14217TIP3    H264143   2.116   5.821   3.314  0.6328  0.9106 -0.3694
14218TIP3   OH264144   5.303   3.887   1.762  0.2562  0.5581  0.2342
14218TIP3    H164145   5.250   3.811   1.739 -1.3177  1.7023 -0.1216
14218TIP3    H264146   5.339   3.918   1.679  1.2639 -0.0242  0.4344
14219TIP3   OH264147   1.984   1.621  14.993  0.0347 -0.7195  0.4283
14219TIP3    H164148   2.030   1.683  14.937  1.4644  0.3962  2.6962
14219TIP3    H264149   2.030   1.538  14.979  0.7906 -0.3101  0.4308
14220TIP3   OH264150   0.811   6.305   3.542 -0.0481 -0.4376  0.3088
14220TIP3    H164151   0.903   6.293   3.520  0.4230  0.6638  1.5702
14220TIP3    H264152   0.805   6.395   3.574 -2.1352  0.5681 -2.4603
14221TIP3   OH264153   4.327   3.743   5.074 -0.2557 -0.7835  0.2728
14221TIP3    H164154   4.391   3.695   5.127 -1.3484 -0.8569  1.5884
14221TIP3    H264155   4.344   3.715   4.984  1.0964 -1.3137  0.6621
14222TIP3   OH264156   1.810   3.706   5.747 -0.4598 -0.5504 -0.1204
14222TIP3    H164157   1.900   3.729   5.725 -1.0444  0.2520 -1.8437
14222TIP3    H264158   1.806   3.611   5.735  0.5345 -0.8349  1.5298
14223TIP3   OH264159   2.552   3.475   5.417  0.0440  0.1959  0.0114
14223TIP3    H164160   2.641   3.504   5.395  0.3765 -0.0530  0.9657
14223TIP3    H264161   2.563   3.382   5.439 -0.7827 -0.3494 -1.7542
14224TIP3   OH264162   0.931   1.123   2.467  0.3485  0.0964  0.0013
14224TIP3    H164163   0.992   1.142   2.396  0.6668 -0.4877  0.1128
14224TIP3    H264164   0.926   1.028   2.470  0.2170  0.1179  0.6592
14225TIP3   OH264165   2.658   0.068   2.758  0.0415  0.3823  0.7821
14225TIP3    H164166   2.663  -0.018   2.718  0.3237  0.7006  0.1193
14225TIP3    H264167   2.573   0.103   2.729  1.4756  1.8225 -2.1062
14226TIP3   OH264168   1.607   1.138  13.479  0.4443 -0.2644 -0.4428
14226TIP3    H164169   1.644   1.149  13.391  0.9313  1.1697 -0.0957
14226TIP3    H264170   1.512   1.141  13.466  0.4496 -2.0091 -1.1155
14227TIP3   OH264171   1.743   5.488  12.718  0.2792 -0.0289  0.2128
14227TIP3    H164172   1.756   5.496  12.623 -1.6740  3.1215  0.0836
14227TIP3    H264173   1.648   5.491  12.730  0.4551 -1.1580  2.2497
14228TIP3   OH264174   1.363   2.205   0.975 -0.5290  0.4564  0.0214
14228TIP3    H164175   1.306   2.248   1.039  0.9325 -0.2553  1.9126
14228TIP3    H264176   1.334   2.114   0.975 -0.9438  0.5779 -0.8636
14229TIP3   OH264177   5.085   1.872   1.367  0.5562  0.0826 -0.5715
14229TIP3    H164178   5.119   1.783   1.355 -0.1758 -0.3329  0.2504
14229TIP3    H264179   4.990   1.862   1.360  0.4382  0.7006  0.0575
14230TIP3   OH264180   4.853   1.014  15.873  0.2622 -0.6132 -0.1981
14230TIP3    H164181   4.852   1.067  15.953 -0.3666 -1.2767  0.2547
14230TIP3    H264182   4.816   1.071  15.806  1.1567  0.0828 -0.1083
14231TIP3   OH264183   6.402   6.356   0.334  0.4448  0.0064  0.4289
14231TIP3    H164184   6.331   6.375   0.272  0.0204  0.1249  0.9410
14231TIP3    H264185   6.366   6.382   0.419  0.8447 -0.6039  0.7864
14232TIP3   OH264186   5.554   4.554  11.910  0.6063  0.6423 -0.5889
14232TIP3    H164187   5.501   4.575  11.833  0.2387  1.0317 -0.2392
14232TIP3    H264188   5.584   4.464  11.896 -3.2739 -1.1225  0.8898
14233TIP3   OH264189   2.846   1.973  13.732  0.4616 -0.2838 -0.1568
14233TIP3    H164190   2.939   1.958  13.751  0.2363 -1.5116  0.0506
14233TIP3    H264191   2.813   2.019  13.809  0.7743 -0.3193 -0.0011
14234TIP3   OH264192   3.112   5.690   1.500  0.4085  0.1837 -1.3386
14234TIP3    H164193   3.031   5.640   1.508  0.4070  0.2365 -0.9906
14234TIP3    H264194   3.171   5.633   1.450  1.2626 -1.2810  1.1467
14235TIP3   OH264195   6.107   3.342   4.049 -0.5893  0.1150  0.2402
14235TIP3    H164196   6.040   3.373   3.988 -0.4251  2.1132  1.0112
14235TIP3    H264197   6.063   3.343   4.134 -0.7638 -2.4738  0.2649
14236TIP3   OH264198   5.940   4.300  11.300 -0.4378 -0.7434  1.0212
14236TIP3    H164199   5.898   4.219  11.268  0.2822  0.0886 -2.5206
14236TIP3    H264200   5.884   4.370  11.267  1.9494  0.2901 -1.2484
14237TIP3   OH264201   2.430   4.424   5.929 -0.6233  0.3775 -0.2324
14237TIP3    H164202   2.340   4.398   5.909 -0.7312  0.2415  0.4346
14237TIP3    H264203   2.434   4.427   6.024 -0.5406  2.5332 -0.2549
14238TIP3   OH264204   2.986   3.412   4.624  0.0178  0.4993 -1.6516
14238TIP3    H164205   3.068   3.363   4.629 -1.1451 -1.5627 -1.6969
14238TIP3    H264206   2.984   3.464   4.704  1.1865  0.3166 -1.4839
14239TIP3   OH264207   3.598   1.560   1.100  0.3492 -0.4903  0.5410
14239TIP3    H164208   3.518   1.552   1.048  0.2843  1.3370  0.2998
14239TIP3    H264209   3.612   1.472   1.136 -0.4804 -1.4293 -1.2649
14240TIP3   OH264210   6.803   5.537  16.048  0.1745 -0.2496  0.3595
14240TIP3    H164211   6.888   5.578  16.067  0.0122  0.7722 -0.9628
14240TIP3    H264212   6.817   5.488  15.967 -1.2631  2.7170 -1.8653
14241TIP3   OH264213   6.304   1.445  11.949 -0.1689 -0.0470 -0.5624
14241TIP3    H164214   6.315   1.460  11.856  0.6593  0.0535 -0.4516
14241TIP3    H264215   6.283   1.532  11.985 -0.2529 -0.0444 -0.6165
14242TIP3   OH264216   4.319   0.794   5.947 -0.1506 -0.6085 -0.1217
14242TIP3    H164217   4.262   0.870   5.960 -1.1533 -1.0340 -1.7826
14242TIP3    H264218   4.407   0.832   5.939 -0.4449  0.2385  0.5472
14243TIP3   OH264219   1.343   5.549   2.912 -0.0367 -0.4425 -0.2649
14243TIP3    H164220   1.291   5.482   2.867 -1.7291  1.8092 -1.9282
14243TIP3    H264221   1.389   5.594   2.841 -0.7143  1.5453  0.4844
14244TIP3   OH264222   3.722   2.743  16.989 -0.0214 -0.3173 -0.3140
14244TIP3    H164223   3.672   2.777  16.915 -0.0019 -0.6130 -0.4663
14244TIP3    H264224   3.711   2.808  17.058  0.0827  0.0350 -0.6268
14245TIP3   OH264225   2.470   1.310  12.470 -0.4719  0.4074  0.1235
14245TIP3    H164226   2.389   1.296  12.519 -0.1891 -0.4954  0.3520
14245TIP3    H264227   2.460   1.397  12.432 -1.2367  0.6045  0.7456
14246TIP3   OH264228   4.336   3.792  12.750 -0.3799  0.2410  0.8049
14246TIP3    H164229   4.261   3.742  12.718  1.3364 -1.7367 -0.4381
14246TIP3    H264230   4.365   3.746  12.828  0.0514  0.4651  0.7837
14247TIP3   OH264231   1.933   2.706   2.512  0.3381 -0.4685  0.5192
14247TIP3    H164232   1.911   2.646   2.440 -0.3437  0.3444  0.0385
14247TIP3    H264233   2.015   2.746   2.485 -0.3547  0.4757 -0.2289
14248TIP3   OH264234   5.056   1.191  16.760  0.2639  0.0494  0.1584
14248TIP3    H164235   4.985   1.126  16.755  0.1066  0.1733  0.6727
14248TIP3    H264236   5.012   1.275  16.749  0.3382  0.1221  0.4033
14249TIP3   OH264237   5.477   5.966  14.664 -0.7668  0.1625  0.3380
14249TIP3    H164238   5.521   5.964  14.749  0.3633 -1.5416 -0.2532
14249TIP3    H264239   5.503   6.050  14.626  2.4175 -0.9030 -0.1399
14250TIP3   OH264240   1.751   3.635  16.609  0.4721  0.0098 -0.1418
14250TIP3    H164241   1.722   3.675  16.527  0.3785  0.8281  0.2765
14250TIP3    H264242   1.827   3.688  16.636  1.0121 -0.7667 -0.1245
14251TIP3   OH264243   4.145   2.252  16.735 -0.3343  0.7268  0.4973
14251TIP3    H164244   4.116   2.161  16.723 -0.5800  0.8992 -0.3002
14251TIP3    H264245   4.238   2.251  16.715 -0.3878  0.6879  0.2404
14252TIP3   OH264246   1.783   6.413  11.885 -0.0439  0.1314 -0.2555
14252TIP3    H164247   1.810   6.357  11.958 -3.0705 -0.6295  0.4410
14252TIP3    H264248   1.852   6.402  11.819  2.4745  0.3445  2.1855
14253TIP3   OH264249   3.908   0.176   3.833 -0.3045 -0.7520 -0.9487
14253TIP3    H164250   3.964   0.104   3.862  0.5791  0.5889  0.8724
14253TIP3    H264251   3.963   0.227   3.774  0.6598  0.8102  1.1800
14254TIP3   OH264252   0.752   0.695  16.133  0.4060  0.1950  0.2893
14254TIP3    H164253   0.827   0.677  16.188  0.0330  1.5475  1.2884
14254TIP3    H264254   0.687   0.734  16.192 -1.6628 -2.1512 -0.2105
14255TIP3   OH264255   2.316   4.307  17.093  0.0859 -0.5801  0.0686
14255TIP3    H164256   2.385   4.283  17.032  0.8209 -1.4568  1.1957
14255TIP3    H264257   2.235   4.292  17.044  0.6689 -0.4313 -0.9653
14256TIP3   OH264258   2.804   1.807   1.637 -0.2219  0.1123 -0.0699
14256TIP3    H164259   2.897   1.813   1.615  0.2833 -1.0968  1.5382
14256TIP3    H264260   2.782   1.894   1.671  0.6474  0.0685  0.6440
14257TIP3   OH264261   4.816   3.331   2.037 -0.1721  0.2402 -0.1281
14257TIP3    H164262   4.865   3.311   2.117 -2.3243  0.0511  1.2010
14257TIP3    H264263   4.847   3.418   2.011  0.9748  0.0554  0.5454
14258TIP3   OH264264   0.333   3.550   1.021  0.2237  0.5537 -0.3305
14258TIP3    H164265   0.426   3.525   1.019 -0.8009 -4.1378 -1.6925
14258TIP3    H264266   0.289   3.476   1.062 -3.1778  1.4403 -2.0138
14259TIP3   OH264267   4.241   6.046  14.675 -0.1023 -0.3922 -0.1870
14259TIP3    H164268   4.188   5.967  14.659  1.5527 -1.3826 -1.0894
14259TIP3    H264269   4.279   6.066  14.590 -0.6973  1.5966 -0.0240
14260TIP3   OH264270   3.727   3.198   1.171  0.1355  0.1292 -0.3567
14260TIP3    H164271   3.753   3.124   1.226 -0.0473 -0.7178 -1.3653
14260TIP3    H264272   3.632   3.197   1.173  0.1332  0.5097 -0.1632
14261TIP3   OH264273   1.871   2.346  12.629 -0.0511  0.0516  0.2694
14261TIP3    H164274   1.890   2.333  12.536 -0.6556 -0.6737  0.2280
14261TIP3    H264275   1.890   2.438  12.645 -2.3249  0.8893 -1.2021
14262TIP3   OH264276   3.096   5.409  11.701 -0.4312 -0.2872  0.5218
14262TIP3    H164277   3.147   5.330  11.688  0.2086  0.0793  0.7521
14262TIP3    H264278   3.082   5.414  11.796 -1.3600 -0.6673  0.4123
14263TIP3   OH264279   4.859   4.179   4.079  0.0757  0.5091  0.3719
14263TIP3    H164280   4.926   4.246   4.065  0.4982 -0.2582 -1.7870
14263TIP3    H264281   4.815   4.173   3.994 -0.0847 -1.7699  0.5659
14264TIP3   OH264282   5.079   5.619  16.312 -0.2870 -0.5976  0.2410
14264TIP3    H164283   5.159   5.610  16.260 -0.4450 -0.1443 -0.0811
14264TIP3    H264284   5.052   5.528  16.330  0.5245 -0.7510  0.7050
14265TIP3   OH264285   1.413   5.272   2.756 -0.6037  0.2011 -0.1421
14265TIP3    H164286   1.412   5.212   2.681 -2.0031 -0.2846  0.2347
14265TIP3    H264287   1.439   5.217   2.830  1.1021  0.7494 -0.2768
14266TIP3   OH264288   2.928   6.399  12.166 -0.4348  0.2893  0.0025
14266TIP3    H164289   2.852   6.396  12.108  0.5448  0.6789 -1.3697
14266TIP3    H264290   3.000   6.429  12.110  0.4957  1.0406  1.5273
14267TIP3   OH264291   3.323   2.113   0.870 -0.6116 -0.0541 -0.3641
14267TIP3    H164292   3.406   2.109   0.822 -0.8523 -1.0202 -0.7319
14267TIP3    H264293   3.348   2.118   0.962 -0.1392 -1.1349 -0.4263
14268TIP3   OH264294   2.746   4.663   1.469  0.6080 -0.2398  0.1540
14268TIP3    H164295   2.711   4.581   1.434  1.0327 -0.4546  0.2323
14268TIP3    H264296   2.815   4.688   1.407  2.0356 -1.1306  1.3457
14269TIP3   OH264297   6.763   5.803   3.415  0.1822 -0.4066  0.1080
14269TIP3    H164298   6.690   5.843   3.368  0.6812  1.7153  1.0354
14269TIP3    H264299   6.837   5.808   3.354 -0.5899 -3.7189 -1.3415
14270TIP3   OH264300   6.718   2.351  13.300  0.2930  0.4831 -0.2279
14270TIP3    H164301   6.747   2.358  13.209  0.5507  0.5023 -0.1460
14270TIP3    H264302   6.625   2.374  13.297 -0.3754 -1.9930 -0.8903
14271TIP3   OH264303   1.973   0.876   0.630 -0.1227  0.0122  1.2509
14271TIP3    H164304   1.904   0.873   0.563 -2.2830  2.9944  3.0907
14271TIP3    H264305   1.998   0.784   0.643 -0.3075 -0.7974 -2.7936
14272TIP3   OH264306   2.355   1.025   4.821  0.0311  0.2184  0.0132
14272TIP3    H164307   2.427   0.964   4.805  0.8419  0.9680  0.6833
14272TIP3    H264308   2.334   1.014   4.914 -1.1396 -0.4069 -0.2953
14273TIP3   OH264309   6.698   4.764   5.835  0.4406  0.0320 -0.2405
14273TIP3    H164310   6.694   4.670   5.855 -0.1833 -0.3095 -1.7925
14273TIP3    H264311   6.729   4.805   5.916 -0.2803 -1.3974  0.8081
14274TIP3   OH264312   0.885   6.052   2.033  0.1369  0.2962  0.0425
14274TIP3    H164313   0.974   6.021   2.023  0.5873  1.5790 -0.1795
14274TIP3    H264314   0.861   6.085   1.946 -0.0534  1.1853  0.4163
14275TIP3   OH264315   2.327   2.845  12.254  0.4227 -0.1985 -0.1921
14275TIP3    H164316   2.299   2.834  12.163 -0.2103  0.1414 -0.0403
14275TIP3    H264317   2.383   2.769  12.271  1.7578  0.4776 -1.3164
14276TIP3   OH264318   1.702   5.163   2.910  0.5276  0.6428  0.2452
14276TIP3    H164319   1.623   5.110   2.906 -0.4790  2.1528 -0.9563
14276TIP3    H264320   1.770   5.103   2.940 -0.7295 -1.0966 -0.2682
14277TIP3   OH264321   5.213   4.115   5.241 -0.2484 -0.4921  0.2962
14277TIP3    H164322   5.291   4.134   5.190 -1.0789 -1.3540 -1.3827
14277TIP3    H264323   5.174   4.201   5.259  0.2629 -0.1432 -0.2166
14278TIP3   OH264324   3.292   4.832   0.887  0.1603 -0.0135 -0.0188
14278TIP3    H164325   3.289   4.921   0.921  1.4609  0.0001  0.1291
14278TIP3    H264326   3.341   4.782   0.953  0.4902 -0.5542 -0.6516
14279TIP3   OH264327   1.320   2.124   6.208 -0.1471  0.1439 -0.6743
14279TIP3    H164328   1.377   2.056   6.173  0.4308  0.9084 -1.2671
14279TIP3    H264329   1.233   2.085   6.208  0.6175 -1.8406  2.3212
14280TIP3   OH264330   5.071   3.024   2.905  0.5010 -0.5109  0.3896
14280TIP3    H164331   5.117   2.964   2.964  0.0008 -0.1692  1.1415
14280TIP3    H264332   5.003   3.064   2.959 -1.7400 -2.1447 -1.0654
14281TIP3   OH264333   2.946   5.709   4.889  0.2562  0.1261  0.0497
14281TIP3    H164334   2.931   5.792   4.844  0.0962  0.5850  0.9235
14281TIP3    H264335   2.899   5.718   4.972  1.2746 -0.3292  0.6987
14282TIP3   OH264336   2.362   2.456   3.082 -0.2785  0.0473 -0.4762
14282TIP3    H164337   2.379   2.550   3.076  0.8878 -0.2578 -3.0256
14282TIP3    H264338   2.290   2.449   3.145  1.0139  2.4231  1.4379
14283TIP3   OH264339   3.037   4.388   2.878 -0.4035  1.1114  0.3957
14283TIP3    H164340   3.010   4.418   2.965 -0.7972  0.8644  0.3656
14283TIP3    H264341   3.030   4.293   2.883 -0.6746  1.1102  0.0174
14284TIP3   OH264342   2.365   0.187  16.886  0.0842 -0.1357  0.1625
14284TIP3    H164343   2.332   0.265  16.931  0.7944  1.4424 -1.8820
14284TIP3    H264344   2.317   0.185  16.803 -0.2036 -2.1451  0.3273
14285TIP3   OH264345   1.365   5.865   3.455  0.3761  0.5155 -0.4929
14285TIP3    H164346   1.419   5.825   3.386  1.5525  0.1298  0.6084
14285TIP3    H264347   1.276   5.864   3.419  1.0146  0.7838 -2.1988
14286TIP3   OH264348   3.291   2.724   0.440  0.4321  0.5960 -0.4090
14286TIP3    H164349   3.327   2.682   0.361 -0.3566 -0.8050 -0.0662
14286TIP3    H264350   3.198   2.734   0.421  0.6074  2.2578 -0.4742
14287TIP3   OH264351   6.814   0.777   5.441 -0.2337 -0.3737  0.1191
14287TIP3    H164352   6.770   0.812   5.364 -0.7385 -1.4193 -0.0858
14287TIP3    H264353   6.885   0.724   5.406  0.6813  0.6149  0.4312
14288TIP3   OH264354   3.354   5.353   3.639 -0.3659 -0.0160  0.3883
14288TIP3    H164355   3.306   5.429   3.671 -2.7311 -0.7987 -1.0655
14288TIP3    H264356   3.334   5.284   3.701 -2.1289 -0.6280 -0.7888
14289TIP3   OH264357   0.199   5.976   1.791 -0.2831 -0.0392 -0.1388
14289TIP3    H164358   0.105   5.963   1.804 -0.2680 -0.4701 -0.4127
14289TIP3    H264359   0.230   6.017   1.872 -0.6273 -0.3195  0.1390
14290TIP3   OH264360   5.026   2.761   3.172 -0.2188 -0.0820 -0.2754
14290TIP3    H164361   4.956   2.826   3.182 -0.6434 -0.6542  0.6235
14290TIP3    H264362   5.016   2.703   3.248 -0.0815 -1.4146 -1.2417
14291TIP3   OH264363   0.892   3.515  12.478  0.2470 -0.4552 -0.0221
14291TIP3    H164364   0.971   3.475  12.442  0.6867  0.5291 -0.1696
14291TIP3    H264365   0.822   3.486  12.420  0.8474  0.5588 -1.3047
14292TIP3   OH264366   6.765   3.904  11.988  0.0930 -0.4092  0.8768
14292TIP3    H164367   6.730   3.819  11.960  0.3532 -0.2559  0.0705
14292TIP3    H264368   6.704   3.933  12.056 -1.4267 -0.1137 -0.5388
14293TIP3   OH264369   3.940   0.960  15.926 -0.2424 -0.2866  0.2721
14293TIP3    H164370   3.865   0.933  15.874 -0.6722  1.2509  0.0501
14293TIP3    H264371   3.983   1.028  15.873 -0.9833  1.7045  2.0742
14294TIP3   OH264372   1.088   5.246  10.430  0.2157  0.3476  0.6564
14294TIP3    H164373   1.148   5.174  10.450 -0.0502  0.0745  0.4852
14294TIP3    H264374   1.134   5.325  10.459  0.2020  0.0433  1.5202
14295TIP3   OH264375   2.114   0.655   0.795 -0.1728 -0.3627 -0.1932
14295TIP3    H164376   2.111   0.560   0.802  1.5382 -0.5979 -1.7820
14295TIP3    H264377   2.138   0.686   0.882 -0.3332 -1.4088  0.2275
14296TIP3   OH264378   3.575   1.638   1.690 -0.3052  0.6606 -0.0930
14296TIP3    H164379   3.587   1.571   1.623 -0.0699 -0.1500  0.7391
14296TIP3    H264380   3.640   1.705   1.668 -0.4427  0.5535 -0.8510
14297TIP3   OH264381   2.209   4.679   5.438  0.0256  0.0380 -0.3185
14297TIP3    H164382   2.156   4.601   5.457  1.6356 -1.3127 -1.0859
14297TIP3    H264383   2.150   4.752   5.455 -1.4899 -1.3196  0.6734
14298TIP3   OH264384   0.226   0.950   5.034  0.3636 -0.1750 -0.1440
14298TIP3    H164385   0.145   0.900   5.040 -0.3517  0.9230 -0.4826
14298TIP3    H264386   0.250   0.968   5.125 -0.2770  0.2935 -0.0660
14299TIP3   OH264387   1.587   1.473  11.073  0.3536  0.8766  0.1638
14299TIP3    H164388   1.643   1.524  11.014  0.8252  0.4433  0.2347
14299TIP3    H264389   1.586   1.524  11.154 -0.6718  1.7163 -0.3524
14300TIP3   OH264390   3.625   2.590   0.455 -0.0680 -0.2832 -0.1568
14300TIP3    H164391   3.705   2.641   0.468 -1.0505  1.2058  0.2215
14300TIP3    H264392   3.558   2.638   0.503 -1.7570 -0.0460 -2.5774
14301TIP3   OH264393   6.818   2.677  15.440  0.0682 -0.7350 -0.1592
14301TIP3    H164394   6.763   2.610  15.398 -1.0248 -0.8913  1.4338
14301TIP3    H264395   6.756   2.744  15.470  0.8987 -0.2144  0.4368
14302TIP3   OH264396   6.487   6.848  15.656 -0.1622 -0.1491 -1.0477
14302TIP3    H164397   6.568   6.884  15.620  1.6732 -1.4262  1.4838
14302TIP3    H264398   6.464   6.908  15.727  0.6018 -1.6123  0.5032
14303TIP3   OH264399   2.840   5.935  14.565 -0.5713 -0.7717  0.3045
14303TIP3    H164400   2.791   5.995  14.508  2.0069  2.0663  0.8857
14303TIP3    H264401   2.789   5.931  14.645 -2.5688 -2.2675 -0.9303
14304TIP3   OH264402   2.810   1.440   1.704  0.4082 -0.0413  0.2425
14304TIP3    H164403   2.756   1.459   1.782 -0.1917  1.5153 -0.5022
14304TIP3    H264404   2.886   1.497   1.713  0.6463 -0.3234  0.0103
14305TIP3   OH264405   2.453   2.628   7.022 -0.4459 -0.1829 -0.4766
14305TIP3    H164406   2.478   2.713   7.060 -0.8125  0.0343 -0.7298
14305TIP3    H264407   2.532   2.574   7.031 -0.4258 -0.0331  0.3140
14306TIP3   OH264408   0.652   6.511   1.557 -0.0140 -0.1592 -0.4020
14306TIP3    H164409   0.672   6.580   1.493  2.8424 -1.0885 -0.6679
14306TIP3    H264410   0.735   6.466   1.569 -0.6904 -0.6847  3.2413
14307TIP3   OH264411   4.753   1.830  13.832 -0.2348  0.1089 -0.3715
14307TIP3    H164412   4.814   1.870  13.769 -0.1498  1.2179  0.3996
14307TIP3    H264413   4.674   1.884  13.826  0.0086  0.6543  0.9374
14308TIP3   OH264414   6.047   3.334   6.609 -0.3869  0.2930  0.0719
14308TIP3    H164415   5.958   3.354   6.638  0.3075  1.3114  1.6477
14308TIP3    H264416   6.070   3.254   6.656 -0.4891 -0.0400 -0.4306
14309TIP3   OH264417   1.400   0.114   3.742 -0.3842  0.1241  0.1391
14309TIP3    H164418   1.453   0.043   3.707  1.2340  0.5135  1.6368
14309TIP3    H264419   1.310   0.090   3.721  0.3219 -0.4569 -2.7158
14310TIP3   OH264420   5.112   5.718  13.141 -0.3925  0.1194 -0.2669
14310TIP3    H164421   5.129   5.716  13.046 -0.6004 -1.7070 -0.3185
14310TIP3    H264422   5.035   5.774  13.150 -0.2109  0.5353 -1.1424
14311TIP3   OH264423   6.775   0.266   1.252  0.3911 -0.0768 -0.6487
14311TIP3    H164424   6.727   0.249   1.171 -0.0932  1.1851 -0.6586
14311TIP3    H264425   6.848   0.322   1.225 -0.0516  0.7615 -0.1709
14312TIP3   OH264426   3.586   4.458  11.193 -0.4003  0.1090 -0.5038
14312TIP3    H164427   3.634   4.531  11.153  0.9699 -1.1695 -1.2993
14312TIP3    H264428   3.512   4.444  11.133  0.7635 -0.7696 -1.8028
14313TIP3   OH264429   3.147   6.516  13.603  0.3991  0.3885 -0.2979
14313TIP3    H164430   3.154   6.421  13.609 -0.7421  0.2636 -0.7388
14313TIP3    H264431   3.144   6.534  13.509  2.1658  1.0116 -0.2798
14314TIP3   OH264432   3.427   5.482  15.909  0.0085  0.1673  0.7643
14314TIP3    H164433   3.404   5.543  15.839 -0.4159 -1.3714 -0.4887
14314TIP3    H264434   3.509   5.443  15.881 -0.6263 -1.1377  0.6276
14315TIP3   OH264435   1.420   5.720   3.143 -0.4000 -0.4766  0.2262
14315TIP3    H164436   1.463   5.664   3.208  1.6720  1.6404  0.8240
14315TIP3    H264437   1.415   5.667   3.064 -0.3229 -2.1497  1.3060
14316TIP3   OH264438   4.636   6.113  10.833 -0.0103 -0.0235 -0.8451
14316TIP3    H164439   4.619   6.040  10.773 -0.6518  0.1814 -0.9252
14316TIP3    H264440   4.730   6.126  10.829  0.4933 -2.4007  0.9797
14317TIP3   OH264441   5.590   2.694  15.952  0.3736  0.2022  0.2824
14317TIP3    H164442   5.627   2.669  15.867  0.3667 -0.0844  0.3628
14317TIP3    H264443   5.664   2.688  16.013  0.2756 -0.0419  0.3807
14318TIP3   OH264444   3.114   5.896   0.129 -0.3833 -0.3509  0.0134
14318TIP3    H164445   3.161   5.923   0.050  1.8170 -1.6851  0.7705
14318TIP3    H264446   3.141   5.960   0.196  1.4565 -1.7810  0.7452
14319TIP3   OH264447   1.437   5.056   2.584 -0.4844  0.5743  0.2022
14319TIP3    H164448   1.512   5.035   2.529 -1.1809  0.1815 -0.6168
14319TIP3    H264449   1.361   5.042   2.528 -1.1818  0.8529  1.0506
14320TIP3   OH264450   6.245   4.222   2.356  0.0224 -0.0121 -0.2546
14320TIP3    H164451   6.191   4.243   2.281 -0.4375  1.3401  0.4310
14320TIP3    H264452   6.285   4.138   2.334 -1.9367 -0.7982 -1.0018
14321TIP3   OH264453   1.260   4.559   5.221  0.0286  0.1086  0.5356
14321TIP3    H164454   1.187   4.620   5.230 -0.8662 -1.1349  2.2723
14321TIP3    H264455   1.219   4.472   5.220  1.2824 -0.5218 -1.6690
14322TIP3   OH264456   6.011   5.576  10.997 -0.3663  0.1417  0.0589
14322TIP3    H164457   6.036   5.508  10.935  2.4509 -0.3532  1.5668
14322TIP3    H264458   6.014   5.657  10.946 -0.2885 -0.4730 -0.9487
14323TIP3   OH264459   5.911   4.240   5.664 -0.2444  0.2615 -0.0813
14323TIP3    H164460   5.960   4.216   5.743  0.1008  0.1845 -0.3194
14323TIP3    H264461   5.862   4.161   5.642  0.0564  0.1188 -0.2403
14324TIP3   OH264462   2.524   2.741  11.606  0.7784  0.1575  0.4773
14324TIP3    H164463   2.533   2.656  11.650  1.5126  0.1791  0.3825
14324TIP3    H264464   2.607   2.752  11.559  1.1904  1.4653  1.4408
14325TIP3   OH264465   5.474   4.839  12.072 -0.1599 -0.6540 -0.5533
14325TIP3    H164466   5.400   4.815  12.126  0.4940 -1.4815 -0.0045
14325TIP3    H264467   5.528   4.760  12.067  1.5655  0.3666  0.5164
14326TIP3   OH264468   1.271   3.962  14.730  0.3831  0.6419  0.4774
14326TIP3    H164469   1.187   4.007  14.716  0.7483  1.5409  1.1339
14326TIP3    H264470   1.328   3.995  14.662  0.5891  1.0146  0.8296
14327TIP3   OH264471   4.678   5.479   4.789  0.1743 -0.0901  0.2564
14327TIP3    H164472   4.773   5.477   4.797  0.1455 -1.7557  0.5885
14327TIP3    H264473   4.659   5.562   4.745  1.8570 -0.2357 -0.8239
14328TIP3   OH264474   0.292   5.802   2.792  0.4013 -0.1680 -0.0371
14328TIP3    H164475   0.221   5.766   2.739 -0.6442 -0.1766  1.2945
14328TIP3    H264476   0.261   5.890   2.816  0.9014 -0.1210  0.4558
14329TIP3   OH264477   0.605   3.394  16.587  0.5781  0.1834 -0.0959
14329TIP3    H164478   0.670   3.405  16.517  1.0697  1.2337  0.5214
14329TIP3    H264479   0.529   3.354  16.542  1.2706 -0.1384 -1.0137
14330TIP3   OH264480   1.812   6.783   3.861 -0.2359 -0.4028  0.1837
14330TIP3    H164481   1.739   6.843   3.878 -0.2253 -0.0910 -0.8221
14330TIP3    H264482   1.890   6.837   3.867 -0.1299 -0.5972  0.5847
14331TIP3   OH264483   4.776   6.469   1.673  0.1793 -0.1447 -0.0811
14331TIP3    H164484   4.693   6.485   1.629  0.0093  1.8428  0.8689
14331TIP3    H264485   4.834   6.538   1.642  0.6170  0.1602  1.3086
14332TIP3   OH264486   0.121   5.828   0.378  0.5778 -0.1947  0.2521
14332TIP3    H164487   0.204   5.793   0.410  1.3147  1.6437  0.4775
14332TIP3    H264488   0.143   5.872   0.296 -0.2176  0.1013  0.1853
14333TIP3   OH264489   4.707   3.453   3.419  0.1297  0.6956 -0.0666
14333TIP3    H164490   4.691   3.443   3.325  0.9260 -1.8151 -0.0058
14333TIP3    H264491   4.646   3.522   3.446 -1.6317  0.0180 -2.0318
14334TIP3   OH264492   6.561   1.955  15.449 -0.2650  0.0694  0.1409
14334TIP3    H164493   6.593   2.019  15.385 -0.9454 -0.7469 -1.0523
14334TIP3    H264494   6.504   1.897  15.398  0.1862 -1.3850  1.2326
14335TIP3   OH264495   5.761   0.731   0.704 -0.2060 -0.2823 -0.4692
14335TIP3    H164496   5.700   0.762   0.770 -0.1914  0.3030 -0.7166
14335TIP3    H264497   5.834   0.793   0.708 -2.0419  2.5404 -3.9181
14336TIP3   OH264498   1.380   0.512   1.286  0.1613  0.0671  0.4348
14336TIP3    H164499   1.337   0.473   1.362 -1.2192 -0.9677 -0.8262
14336TIP3    H264500   1.473   0.491   1.298 -0.0096  0.0221  1.8752
14337TIP3   OH264501   0.937   1.199   1.836  0.0308  0.3828 -0.3426
14337TIP3    H164502   1.011   1.142   1.858 -0.2985  0.2953  0.5698
14337TIP3    H264503   0.922   1.250   1.915  0.2117  1.6387 -1.0866
14338TIP3   OH264504   6.326   3.181  13.608  0.4451 -0.2003  0.1778
14338TIP3    H164505   6.392   3.222  13.553  0.8123 -0.9415  0.0452
14338TIP3    H264506   6.274   3.128  13.548 -0.1996  0.2799  0.3026
14339TIP3   OH264507   5.700   5.521  12.132 -0.4618  0.1205 -0.2649
14339TIP3    H164508   5.780   5.480  12.099  0.3051  0.8134  0.6587
14339TIP3    H264509   5.661   5.454  12.189  0.4687  0.4216  0.7662
14340TIP3   OH264510   1.960   1.521   3.775 -0.0713 -0.3019  0.1044
14340TIP3    H164511   1.974   1.590   3.839  0.6373  0.6781 -1.0533
14340TIP3    H264512   1.925   1.447   3.825 -3.8223  1.8299  0.9964
14341TIP3   OH264513   1.795   0.481   2.760  0.0093  0.0657 -0.1060
14341TIP3    H164514   1.716   0.534   2.773 -0.0800  0.0495 -0.5768
14341TIP3    H264515   1.802   0.429   2.840 -0.7813 -0.3488 -0.2975
14342TIP3   OH264516   6.837   1.000   5.605  0.5421  0.1442 -0.6690
14342TIP3    H164517   6.843   0.918   5.555  0.6465 -1.1615  1.3668
14342TIP3    H264518   6.922   1.043   5.591  0.5932 -0.2226 -1.5402
14343TIP3   OH264519   6.556   5.016  12.993 -0.5757 -0.3022  0.6461
14343TIP3    H164520   6.485   4.975  12.944  0.9660 -1.1810 -0.9520
14343TIP3    H264521   6.631   5.013  12.935  0.1789  3.0256  1.2035
14344TIP3   OH264522   2.855   4.609  13.389 -0.4537 -0.1699 -0.1244
14344TIP3    H164523   2.871   4.534  13.446 -2.0123  1.3220  2.4838
14344TIP3    H264524   2.936   4.660  13.394 -0.3903 -0.3142  0.3896
14345TIP3   OH264525   4.750   1.561  13.603  0.3708 -0.0434 -0.3934
14345TIP3    H164526   4.735   1.656  13.600 -0.9205 -0.1770  0.8301
14345TIP3    H264527   4.792   1.541  13.520 -0.9127  1.3609 -1.4471
14346TIP3   OH264528   4.924   2.171  15.230 -0.0950  0.1827 -0.2382
14346TIP3    H164529   4.893   2.142  15.145 -1.2585  1.9284 -0.4666
14346TIP3    H264530   4.865   2.128  15.293  0.1307 -0.3143 -0.3594
14347TIP3   OH264531   5.283   2.797  10.882 -0.1259 -0.1591 -0.2928
14347TIP3    H164532   5.337   2.791  10.802  0.3937 -0.7839  0.0890
14347TIP3    H264533   5.228   2.874  10.869  1.6650  1.1960 -0.2278
14348TIP3   OH264534   2.880   4.857  11.995  0.3065  0.1179 -0.5949
14348TIP3    H164535   2.793   4.891  12.019 -0.1467 -1.4278  0.0812
14348TIP3    H264536   2.935   4.877  12.071 -0.1021 -1.1078  0.0479
14349TIP3   OH264537   3.307   1.050   3.263  0.1149 -0.1086 -0.5267
14349TIP3    H164538   3.330   0.964   3.298  1.3374  0.4076  0.0459
14349TIP3    H264539   3.247   1.087   3.328 -1.3373 -0.9426 -1.3446
14350TIP3   OH264540   5.060   4.311  15.808  0.6995 -0.1515  0.4805
14350TIP3    H164541   4.992   4.276  15.751  0.5456  1.6363 -0.5236
14350TIP3    H264542   5.142   4.277  15.773  0.5860  0.7516 -0.7250
14351TIP3   OH264543   2.020   6.086   4.415 -0.0533 -0.4228  0.2543
14351TIP3    H164544   2.081   6.097   4.342  0.1686 -3.8323 -0.2471
14351TIP3    H264545   2.074   6.098   4.494  0.9007 -1.6155 -0.1886
14352TIP3   OH264546   4.623   6.254  13.638 -0.3048 -0.5888 -0.2126
14352TIP3    H164547   4.704   6.279  13.594  0.2630 -1.3842  0.3479
14352TIP3    H264548   4.651   6.198  13.710 -1.4215 -1.6860 -0.5937
14353TIP3   OH264549   6.615   5.095  12.183 -0.3925 -0.7365  0.2199
14353TIP3    H164550   6.636   5.047  12.263  0.1990 -0.6511  0.1190
14353TIP3    H264551   6.669   5.056  12.115  1.7054  1.3634  0.5351
14354TIP3   OH264552   5.527   4.419   4.074 -0.6146 -0.0748  0.3462
14354TIP3    H164553   5.496   4.407   3.984 -0.6714  0.0192  0.3522
14354TIP3    H264554   5.580   4.499   4.070  0.4302 -0.7593  0.1381
14355TIP3   OH264555   2.326   2.779   0.322  0.4403  0.1489 -0.4453
14355TIP3    H164556   2.322   2.836   0.399  0.8574 -1.6186  0.9485
14355TIP3    H264557   2.257   2.714   0.337  0.8273 -0.4900 -1.3592
14356TIP3   OH264558   1.703   0.602  15.597 -0.1057  0.3564  0.4657
14356TIP3    H164559   1.797   0.609  15.613  0.4976  0.8544 -2.6272
14356TIP3    H264560   1.667   0.685  15.626  0.5455  0.5253  0.8065
14357TIP3   OH264561   6.786   4.482  16.275  0.2828 -0.0026  0.1661
14357TIP3    H164562   6.794   4.420  16.348  0.1181  0.6576  0.7497
14357TIP3    H264563   6.698   4.466  16.240  0.4830 -0.5468 -0.1087
14358TIP3   OH264564   2.569   5.228  16.582  0.0307 -0.3077  0.2458
14358TIP3    H164565   2.563   5.255  16.674 -0.1923  0.2668  0.0708
14358TIP3    H264566   2.479   5.205  16.558 -0.8104  3.4227 -0.9394
14359TIP3   OH264567   4.165   3.579   6.123 -0.0315 -0.1261  0.0434
14359TIP3    H164568   4.102   3.508   6.137  0.2921 -0.3587  0.3216
14359TIP3    H264569   4.122   3.636   6.058 -0.4950 -0.3221  0.1702
14360TIP3   OH264570   2.106   6.370   3.791 -0.4469 -0.4424  0.1952
14360TIP3    H164571   2.013   6.350   3.778 -0.5273  0.9167 -1.8400
14360TIP3    H264572   2.152   6.313   3.729  0.0276 -0.7092  0.7902
14361TIP3   OH264573   6.436   1.621   3.007  0.9015  0.3326  0.5224
14361TIP3    H164574   6.428   1.534   3.047  0.4857  0.5495  0.9251
14361TIP3    H264575   6.439   1.605   2.913 -1.4060  0.0075  0.4443
14362TIP3   OH264576   2.120   4.900  13.342  0.1394 -0.0986  0.0516
14362TIP3    H164577   2.147   4.990  13.359  0.1949 -0.2040  0.5621
14362TIP3    H264578   2.180   4.867  13.276  1.0648 -0.2331  0.9414
14363TIP3   OH264579   1.667   5.015  13.779 -0.2510 -0.3567  0.6835
14363TIP3    H164580   1.677   4.920  13.772 -0.3252 -0.2843 -0.5227
14363TIP3    H264581   1.607   5.038  13.708 -0.7240  0.5210  1.3520
14364TIP3   OH264582   1.451   0.093  11.679  0.0105  0.4083  0.0852
14364TIP3    H164583   1.489   0.144  11.750 -1.4976  0.8808  0.6068
14364TIP3    H264584   1.401   0.157  11.628 -1.8558 -0.4688  0.7082
14365TIP3   OH264585   5.228   0.177  16.008  0.2460 -0.3640  0.1349
14365TIP3    H164586   5.144   0.166  16.053 -0.8618  1.6367 -1.2712
14365TIP3    H264587   5.286   0.214  16.074  0.3704 -2.6081  1.3826
14366TIP3   OH264588   1.892   6.370  13.435 -0.2663 -0.1684 -0.4038
14366TIP3    H164589   1.939   6.445  13.472 -0.9599 -0.3160  0.8493
14366TIP3    H264590   1.951   6.296  13.447 -0.8643 -0.3988  1.3881
14367TIP3   OH264591   3.163   0.187  11.933 -0.6960  0.6953  0.3854
14367TIP3    H164592   3.246   0.234  11.943  0.5974 -1.7906  2.7565
14367TIP3    H264593   3.115   0.206  12.014 -1.4401  0.3063  0.0432
14368TIP3   OH264594   4.032   5.122   0.543 -0.1246 -0.0489  0.1821
14368TIP3    H164595   4.014   5.104   0.451  0.6086 -0.1163  0.0430
14368TIP3    H264596   4.120   5.159   0.543  0.8180 -2.0890  1.0497
14369TIP3   OH264597   4.179   2.517   5.455  0.7315  0.0106 -0.1522
14369TIP3    H164598   4.167   2.582   5.386  0.6333  0.7783  0.5772
14369TIP3    H264599   4.183   2.433   5.408  0.5337  0.5018 -1.0729
14370TIP3   OH264600   6.771   3.801  10.998  0.0540 -0.2771 -0.1360
14370TIP3    H164601   6.678   3.801  10.975 -0.0850 -0.5155  0.4086
14370TIP3    H264602   6.802   3.888  10.974 -0.4749  0.0448  0.3406
14371TIP3   OH264603   1.169   4.661   4.744  0.4979 -0.2872 -0.9086
14371TIP3    H164604   1.204   4.725   4.683 -0.9598  0.3580 -1.1093
14371TIP3    H264605   1.075   4.678   4.746  0.5006 -0.0259  1.7734
14372TIP3   OH264606   3.302   2.575  14.842  0.1544 -0.1117  0.1030
14372TIP3    H164607   3.304   2.547  14.934  0.2490  0.1069  0.1683
14372TIP3    H264608   3.266   2.500  14.795 -0.3996 -0.0310  0.3884
14373TIP3   OH264609   1.575   5.514  15.319  0.1021 -0.1091  0.3271
14373TIP3    H164610   1.597   5.532  15.411  0.9003  0.1619  0.0839
14373TIP3    H264611   1.659   5.504  15.275 -0.1368  2.4334 -0.9109
14374TIP3   OH264612   1.608   3.294  11.249 -0.3443  0.0771  0.6053
14374TIP3    H164613   1.523   3.325  11.218 -0.1585  0.0365  0.0480
14374TIP3    H264614   1.635   3.228  11.185  0.9134  1.3410 -0.2478
14375TIP3   OH264615   4.777   3.838   4.762 -0.1893 -0.1863 -0.0920
14375TIP3    H164616   4.716   3.872   4.827 -1.3489 -2.1744 -0.0640
14375TIP3    H264617   4.746   3.873   4.678  0.0618  0.6834  0.1668
14376TIP3   OH264618   0.456   6.275  17.005 -0.4300  0.3438  0.2475
14376TIP3    H164619   0.530   6.218  17.027 -1.7408 -0.7478  2.1687
14376TIP3    H264620   0.472   6.355  17.056  0.0086  0.6196 -0.3028
14377TIP3   OH264621   0.012   5.922  12.537 -0.9877 -0.6752  0.0472
14377TIP3    H164622  -0.082   5.928  12.554 -1.1084 -0.3478 -0.6999
14377TIP3    H264623   0.038   6.011  12.513 -0.8419 -1.1074 -1.4985
14378TIP3   OH264624   3.628   0.625   3.474  0.1601  0.1583 -0.0116
14378TIP3    H164625   3.653   0.661   3.559 -0.6378 -1.9660  1.1951
14378TIP3    H264626   3.710   0.588   3.439  0.3860  0.5863  0.0610
14379TIP3   OH264627   0.863   4.569  11.261 -0.6370 -0.1886  0.0117
14379TIP3    H164628   0.799   4.625  11.304 -1.2716  0.6317 -1.8811
14379TIP3    H264629   0.948   4.604  11.288 -0.9196 -1.1157  2.3310
14380TIP3   OH264630   1.666   0.328  12.797  0.4211 -0.3877  0.4121
14380TIP3    H164631   1.599   0.265  12.822 -2.1237  1.7936 -0.3950
14380TIP3    H264632   1.668   0.391  12.868  0.9315  0.0890 -0.0169
14381TIP3   OH264633   2.402   6.063   5.316  0.3714  0.0376 -0.0603
14381TIP3    H164634   2.477   6.024   5.360  0.6925  2.3394  1.5585
14381TIP3    H264635   2.425   6.059   5.223  2.2875  0.2786  0.3650
14382TIP3   OH264636   5.808   2.808   5.281  0.5495 -0.4191 -0.0525
14382TIP3    H164637   5.755   2.815   5.361 -0.0499  0.3792 -0.5010
14382TIP3    H264638   5.756   2.754   5.222  0.5550 -0.2155 -0.2437
14383TIP3   OH264639   5.813   5.484   5.314 -0.2078 -0.2685 -0.4775
14383TIP3    H164640   5.736   5.454   5.266  0.3967 -0.7908 -1.1364
14383TIP3    H264641   5.844   5.560   5.265 -0.1685 -0.1949 -0.3394
14384TIP3   OH264642   0.899   0.108  13.662 -0.1677 -0.6504  0.0651
14384TIP3    H164643   0.938   0.192  13.686 -1.0614 -0.7019  1.8585
14384TIP3    H264644   0.954   0.076  13.591  1.4264  0.5047  0.7150
14385TIP3   OH264645   3.536   3.422  15.829 -0.0558  0.2785  0.2724
14385TIP3    H164646   3.541   3.375  15.746 -1.4831  0.8469 -0.1761
14385TIP3    H264647   3.609   3.484  15.826  0.3683 -0.2269 -0.2062
14386TIP3   OH264648   5.164   0.163  11.489  0.3827  0.3967 -0.3563
14386TIP3    H164649   5.246   0.137  11.448 -0.0348 -2.1136  0.1890
14386TIP3    H264650   5.105   0.183  11.416  0.5908 -0.8608 -0.8972
14387TIP3   OH264651   4.495   2.763  15.550 -0.0379  0.3718  0.0218
14387TIP3    H164652   4.455   2.829  15.607 -0.5630  1.3623 -1.4388
14387TIP3    H264653   4.562   2.811  15.501  1.1512 -0.7005  0.5276
14388TIP3   OH264654   6.423   6.451   4.184  0.1099 -0.0615 -0.2241
14388TIP3    H164655   6.414   6.359   4.207  0.8237  0.0315  0.4874
14388TIP3    H264656   6.466   6.451   4.099 -0.0193 -0.3806 -0.2906
14389TIP3   OH264657   3.035   2.062   3.369  0.2488  0.1336 -0.0271
14389TIP3    H164658   2.991   2.119   3.306  1.0511 -0.2693 -0.9687
14389TIP3    H264659   3.115   2.110   3.393  0.3062 -0.0397  0.1343
14390TIP3   OH264660   5.293   4.865   1.371  0.3369 -0.7226 -0.4260
14390TIP3    H164661   5.338   4.909   1.299  2.1988 -0.7338  0.6643
14390TIP3    H264662   5.254   4.937   1.421  0.1581 -0.6121 -0.7206
14391TIP3   OH264663   4.652   6.197  11.997 -0.0051 -0.0737 -0.7761
14391TIP3    H164664   4.593   6.181  12.070 -0.6509  1.1109 -1.0040
14391TIP3    H264665   4.604   6.166  11.920  1.0656 -2.2316 -0.6503
14392TIP3   OH264666   2.204   5.455  12.919  0.3471  0.1161  0.0812
14392TIP3    H164667   2.223   5.422  13.007 -1.2708 -0.6343  0.1923
14392TIP3    H264668   2.262   5.530  12.909  1.3994 -0.4752  1.3294
14393TIP3   OH264669   1.379   4.048  17.054  0.0539  0.3188  0.4915
14393TIP3    H164670   1.343   4.096  17.128 -1.4908  0.0007 -0.0296
14393TIP3    H264671   1.335   4.084  16.977  0.3691 -0.5130 -0.1040
14394TIP3   OH264672   0.090   6.565   4.164  0.0225  0.1893 -0.4561
14394TIP3    H164673   0.163   6.560   4.103  0.2205  1.1335 -0.3082
14394TIP3    H264674   0.012   6.546   4.111  0.4119 -1.3386 -0.5066
14395TIP3   OH264675   6.669   6.358   1.500 -0.1906  0.2245 -0.1967
14395TIP3    H164676   6.665   6.372   1.594  1.1839  0.9398 -0.2203
14395TIP3    H264677   6.594   6.405   1.464 -1.3600 -0.9560  0.6092
14396TIP3   OH264678   2.780   2.203  14.219 -0.2004  0.0713 -0.4692
14396TIP3    H164679   2.700   2.199  14.167  0.4751  0.3304 -1.5738
14396TIP3    H264680   2.764   2.272  14.284 -0.4070  1.0238 -1.5069
14397TIP3   OH264681   5.787   6.698   5.975 -0.5994  0.0179 -0.6061
14397TIP3    H164682   5.736   6.779   5.973  1.3459  1.5290  2.7168
14397TIP3    H264683   5.724   6.631   6.001 -1.5606  1.2602  0.4484
14398TIP3   OH264684   0.984   0.884   4.642  0.0761 -0.3077 -0.0650
14398TIP3    H164685   0.921   0.832   4.691 -0.7562 -0.1351 -0.9254
14398TIP3    H264686   0.989   0.967   4.690  0.8929 -0.9085  0.9209
14399TIP3   OH264687   4.220   5.274   0.164 -0.3363 -0.5338 -0.4943
14399TIP3    H164688   4.134   5.235   0.180  0.6385 -2.0102  1.6123
14399TIP3    H264689   4.202   5.366   0.148 -2.3115 -0.7875  0.0315
14400TIP3   OH264690   2.627   2.105   6.621 -0.0884 -0.0794 -0.0161
14400TIP3    H164691   2.690   2.169   6.589 -0.6841 -0.0312 -1.1334
14400TIP3    H264692   2.546   2.154   6.632 -0.4462 -0.5521 -0.4914
14401TIP3   OH264693   1.047   6.123  10.652 -0.1681 -0.0714  0.4236
14401TIP3    H164694   0.960   6.121  10.691 -1.1423  0.1314 -1.6464
14401TIP3    H264695   1.041   6.187  10.581  1.9091  0.5637  0.7435
14402TIP3   OH264696   6.458   5.511   5.285 -0.0191 -0.2583 -0.1115
14402TIP3    H164697   6.447   5.589   5.230 -0.4415 -0.0008  0.3273
14402TIP3    H264698   6.456   5.545   5.374  1.6485 -0.5528  0.0597
14403TIP3   OH264699   0.835   6.443   1.019 -0.1188  0.3246  0.5092
14403TIP3    H164700   0.908   6.446   1.082  0.5721  0.0253 -0.2586
14403TIP3    H264701   0.759   6.422   1.072  0.1007  1.9607  1.5479
14404TIP3   OH264702   0.762   1.648   5.401  0.2079 -0.1806  0.2759
14404TIP3    H164703   0.825   1.624   5.468  0.7712 -3.1178 -1.1373
14404TIP3    H264704   0.786   1.595   5.324 -2.2680  0.6573 -1.2235
14405TIP3   OH264705   1.872   4.934  11.376  0.4352 -0.1022  0.5973
14405TIP3    H164706   1.881   5.002  11.442  0.4376 -0.2695  0.7688
14405TIP3    H264707   1.791   4.889  11.398  0.4707 -0.2012  0.5275
14406TIP3   OH264708   2.460   4.293  15.684 -0.0449  0.3503 -0.2698
14406TIP3    H164709   2.501   4.333  15.761 -1.1056 -0.2476  0.6522
14406TIP3    H264710   2.489   4.202  15.686 -0.8767  0.0811  0.0277
14407TIP3   OH264711   6.695   4.743   3.525  0.3161 -0.2442 -0.3309
14407TIP3    H164712   6.777   4.774   3.486 -0.3669  0.4456 -1.2617
14407TIP3    H264713   6.703   4.767   3.618  1.2410 -0.3462 -0.3753
14408TIP3   OH264714   6.492   4.666   2.822  0.2093 -0.0679  0.2617
14408TIP3    H164715   6.551   4.655   2.897  1.0506 -0.5986 -0.4588
14408TIP3    H264716   6.430   4.732   2.851  0.5619 -0.2024  1.4036
14409TIP3   OH264717   1.821   3.497   3.837  0.2209  0.6594 -0.6620
14409TIP3    H164718   1.879   3.499   3.761  1.6559  0.9223  0.3899
14409TIP3    H264719   1.839   3.578   3.884 -1.3027  0.9271 -0.4882
14410TIP3   OH264720   1.560   0.176  16.792  0.2030  0.1545 -0.2554
14410TIP3    H164721   1.606   0.181  16.876  0.9201 -0.1529 -0.6238
14410TIP3    H264722   1.468   0.191  16.815  0.6718  2.7137  0.2624
14411TIP3   OH264723   1.139   0.339  16.161 -0.2374 -0.4694 -0.1681
14411TIP3    H164724   1.113   0.286  16.236 -0.1766 -0.0712  0.1375
14411TIP3    H264725   1.225   0.374  16.184  1.4520 -3.1727 -1.8898
14412TIP3   OH264726   2.568   4.814  11.702 -0.7776  0.2638 -0.0692
14412TIP3    H164727   2.662   4.817  11.681 -0.2975 -0.5104  1.7621
14412TIP3    H264728   2.527   4.775  11.625  0.5143 -0.1595 -0.5710
14413TIP3   OH264729   3.243   1.734  14.991 -0.3510 -0.1324 -0.3877
14413TIP3    H164730   3.233   1.776  14.906 -0.2255 -0.3772 -0.5232
14413TIP3    H264731   3.250   1.641  14.971  0.2281 -0.1440 -0.1522
14414TIP3   OH264732   0.203   2.235  10.869 -0.4314 -0.1501  0.7216
14414TIP3    H164733   0.273   2.206  10.927  0.7195  0.1700 -0.4533
14414TIP3    H264734   0.248   2.261  10.788 -1.6576  2.1133  0.6687
14415TIP3   OH264735   0.486   5.728  16.982  0.0509  0.1629 -0.2974
14415TIP3    H164736   0.518   5.665  16.918 -0.5566 -2.1645  1.5793
14415TIP3    H264737   0.526   5.702  17.065 -3.0159 -0.0858  1.2600
14416TIP3   OH264738   3.880   3.999  12.802  0.1568  0.3350 -0.0281
14416TIP3    H164739   3.913   3.997  12.712 -0.6638  0.7753 -0.3459
14416TIP3    H264740   3.939   4.059  12.848 -0.1764  1.1106 -0.5899
14417TIP3   OH264741   4.364   0.337  12.314  0.3733 -0.3295 -0.4900
14417TIP3    H164742   4.398   0.256  12.277 -1.7880 -1.7167  0.3986
14417TIP3    H264743   4.275   0.316  12.343 -0.0389  2.1829  0.3767
14418TIP3   OH264744   4.235   4.846   4.737 -0.0398  0.1283  0.0652
14418TIP3    H164745   4.164   4.881   4.790  0.3571  1.2482 -0.1218
14418TIP3    H264746   4.237   4.752   4.758  0.0330  0.5186  1.9211
14419TIP3   OH264747   4.792   2.276   2.705 -0.0024 -0.1266 -0.2245
14419TIP3    H164748   4.733   2.351   2.698 -0.8971 -0.8107 -0.2301
14419TIP3    H264749   4.863   2.306   2.762  0.4437  1.1933 -1.4374
14420TIP3   OH264750   6.058   3.905  13.469  0.1807 -0.0668 -0.2842
14420TIP3    H164751   6.147   3.942  13.469  0.4830 -0.7461  0.4018
14420TIP3    H264752   6.006   3.967  13.418  0.5392  1.6157  1.2856
14421TIP3   OH264753   6.441   1.944  10.948 -0.0400  0.2082  0.2789
14421TIP3    H164754   6.530   1.948  10.983  0.0716  0.5746 -0.0451
14421TIP3    H264755   6.401   2.027  10.975 -0.4988 -0.2317  0.9911
14422TIP3   OH264756   4.600   5.285  16.159  0.2544 -0.3972  1.1000
14422TIP3    H164757   4.656   5.363  16.166  1.7711 -1.3858  0.4126
14422TIP3    H264758   4.600   5.248  16.247  1.4023 -0.8574  0.9161
14423TIP3   OH264759   5.359   5.503   1.688 -0.3628  0.1179 -0.0460
14423TIP3    H164760   5.286   5.548   1.645 -0.8450  0.7321  1.3410
14423TIP3    H264761   5.358   5.536   1.778  0.6933 -1.0028  0.4146
14424TIP3   OH264762   1.652   1.718   5.843  0.2077  0.1480  0.0575
14424TIP3    H164763   1.681   1.732   5.933 -0.4393  0.2015  0.2666
14424TIP3    H264764   1.588   1.647   5.850  0.1105  0.1961 -0.3493
14425TIP3   OH264765   4.099   5.508   1.253  0.5064  0.2568  0.0960
14425TIP3    H164766   4.165   5.500   1.184  0.2090 -2.0602  0.0025
14425TIP3    H264767   4.148   5.533   1.331  1.0573  1.3439 -0.5688
14426TIP3   OH264768   0.416   4.513   2.492 -0.1384  0.2801  0.1205
14426TIP3    H164769   0.452   4.425   2.506 -2.7301 -1.0340 -0.7801
14426TIP3    H264770   0.425   4.528   2.398 -2.6705 -0.5338 -0.3232
14427TIP3   OH264771   3.499   0.178   4.178 -0.6936  0.4788  0.2896
14427TIP3    H164772   3.557   0.150   4.249 -0.0075 -0.4224 -0.5935
14427TIP3    H264773   3.558   0.195   4.105 -1.3509  1.8670  0.0645
14428TIP3   OH264774   2.829   4.198  10.862 -0.4903  0.1732 -0.0356
14428TIP3    H164775   2.790   4.123  10.817 -0.3955  0.5749 -0.8017
14428TIP3    H264776   2.923   4.186  10.854 -0.4774  0.8558 -0.9877
14429TIP3   OH264777   1.736   1.636   2.409 -0.5143  0.4179 -0.0690
14429TIP3    H164778   1.797   1.569   2.376 -0.0367  0.5317  0.5531
14429TIP3    H264779   1.651   1.594   2.406 -0.2654 -0.1020 -0.0330
14430TIP3   OH264780   3.830   4.599  14.268  0.1837  0.1069  0.4898
14430TIP3    H164781   3.748   4.583  14.221 -0.2774  0.7701  1.0412
14430TIP3    H264782   3.805   4.605  14.360  0.8200  0.4953  0.6499
14431TIP3   OH264783   1.613   2.183  14.930  0.0637 -0.2367  0.6258
14431TIP3    H164784   1.562   2.184  15.011  0.4152  1.4016  0.8608
14431TIP3    H264785   1.651   2.095  14.926 -1.0422 -0.7750  1.5347
14432TIP3   OH264786   0.501   1.532  13.549 -0.1982  0.2972  0.2745
14432TIP3    H164787   0.590   1.519  13.581  0.1698 -1.1111 -1.1621
14432TIP3    H264788   0.470   1.444  13.528 -1.7661  0.8100  0.3070
14433TIP3   OH264789   2.428   6.653  12.009  0.7813  0.5653 -0.5305
14433TIP3    H164790   2.416   6.674  12.102  0.0467  2.1998 -0.9670
14433TIP3    H264791   2.501   6.709  11.981  0.1896  0.9955 -1.2292
14434TIP3   OH264792   1.255   0.670   3.408  0.0953  0.1734 -0.1572
14434TIP3    H164793   1.197   0.739   3.438  0.3642  0.6538 -0.7129
14434TIP3    H264794   1.293   0.633   3.487 -1.7417 -0.8546  0.2963
14435TIP3   OH264795   2.054   5.044  15.204 -0.0323 -0.4143 -0.0545
14435TIP3    H164796   1.974   5.074  15.246 -0.4013 -1.6259  0.1596
14435TIP3    H264797   2.057   4.950  15.224  1.3949 -0.4070 -0.1282
14436TIP3   OH264798   6.517   0.869  16.263 -0.0853 -0.8427 -0.1525
14436TIP3    H164799   6.429   0.903  16.279 -0.4281 -2.3460  1.4921
14436TIP3    H264800   6.556   0.860  16.350  1.7260 -0.2493 -0.8344
14437TIP3   OH264801   4.165   6.209  13.311 -0.2520  0.0198  0.0031
14437TIP3    H164802   4.122   6.276  13.364 -0.3587 -0.9858  1.2355
14437TIP3    H264803   4.198   6.256  13.235 -0.1661  1.5082  0.9241
14438TIP3   OH264804   3.474   1.168   2.127 -0.2341 -0.2254  0.0955
14438TIP3    H164805   3.480   1.096   2.190 -0.6391  1.5445  2.2671
14438TIP3    H264806   3.392   1.152   2.080 -1.0479 -0.4688  1.5257
14439TIP3   OH264807   3.097   3.843  13.865  0.8912 -0.1174  0.4296
14439TIP3    H164808   3.042   3.789  13.922  1.1305 -0.5365  0.2726
14439TIP3    H264809   3.138   3.906  13.923 -0.6975  1.0058  0.3855
14440TIP3   OH264810   4.490   6.501   5.637 -0.1033  0.6899  0.8961
14440TIP3    H164811   4.436   6.426   5.611  0.7081  0.3586  0.1204
14440TIP3    H264812   4.430   6.557   5.686 -0.7013 -0.5016  1.5719
14441TIP3   OH264813   4.753   2.444   0.921 -0.5030 -0.2639 -0.0784
14441TIP3    H164814   4.831   2.473   0.969 -0.2892  3.2305 -2.1737
14441TIP3    H264815   4.786   2.378   0.861  0.0886 -1.3573  1.3746
14442TIP3   OH264816   2.286   4.806   0.652 -0.2435 -0.4086  0.0166
14442TIP3    H164817   2.315   4.898   0.657  0.4311 -0.6714  1.4936
14442TIP3    H264818   2.282   4.787   0.558  0.7653  0.7782 -0.2924
14443TIP3   OH264819   6.492   2.119   3.776  0.2625 -0.2123 -0.3243
14443TIP3    H164820   6.431   2.171   3.724  0.5681 -0.9030 -1.4023
14443TIP3    H264821   6.509   2.172   3.853 -2.4502 -0.4039  0.5132
14444TIP3   OH264822   3.255   6.700   1.466 -0.4435  0.3475  0.4519
14444TIP3    H164823   3.201   6.757   1.521 -0.1491  1.4810 -0.3974
14444TIP3    H264824   3.345   6.719   1.493 -0.4059 -1.2281  1.5721
14445TIP3   OH264825   0.480   0.624   2.644 -0.4490  0.2016 -0.5167
14445TIP3    H164826   0.513   0.551   2.697 -1.9457  0.2775  0.5851
14445TIP3    H264827   0.385   0.613   2.645 -1.1452  4.1192  2.7777
14446TIP3   OH264828   1.620   6.220  14.377  0.4575 -0.1706 -0.4759
14446TIP3    H164829   1.609   6.314  14.391  0.9407  0.0436 -1.4620
14446TIP3    H264830   1.556   6.198  14.310  0.2398 -0.5801 -0.1391
14447TIP3   OH264831   0.399   1.318  13.447  0.1160  0.9123 -0.1982
14447TIP3    H164832   0.318   1.369  13.438  0.7201  2.3070  1.5637
14447TIP3    H264833   0.395   1.253  13.377 -1.4501  2.3898 -1.5662
14448TIP3   OH264834   1.892   2.520   3.791 -0.1110 -0.1733  0.1872
14448TIP3    H164835   1.949   2.520   3.867 -0.2486  1.1074  0.3144
14448TIP3    H264836   1.885   2.612   3.767 -0.7618 -0.4814 -0.8530
14449TIP3   OH264837   0.680   2.431   6.235 -0.3267 -0.3248  0.2038
14449TIP3    H164838   0.687   2.352   6.289 -3.2028 -0.1267  1.0302
14449TIP3    H264839   0.592   2.426   6.196 -0.6504  2.4905  0.3670
14450TIP3   OH264840   2.465   5.473  13.854  0.1556  0.3451 -0.7456
14450TIP3    H164841   2.408   5.497  13.781 -0.6606 -0.9054 -0.5580
14450TIP3    H264842   2.415   5.407  13.902  1.7203 -0.6994 -0.4838
14451TIP3   OH264843   5.070   3.713  12.026 -0.5831 -0.2068  0.4387
14451TIP3    H164844   5.071   3.629  12.073  1.1532 -0.2808  0.3396
14451TIP3    H264845   5.016   3.770  12.081 -0.1183 -0.8272  1.5775
14452TIP3   OH264846   4.535   1.683  13.932 -0.2549 -0.0798  0.2840
14452TIP3    H164847   4.587   1.719  13.861 -0.6740 -0.5481 -0.2772
14452TIP3    H264848   4.499   1.602  13.896 -1.4018  0.2532  0.6278
14453TIP3   OH264849   4.839   4.668   2.374  0.2309 -0.1687  0.4274
14453TIP3    H164850   4.910   4.698   2.317 -0.3235 -0.8840 -0.7007
14453TIP3    H264851   4.773   4.737   2.369 -0.8903 -1.2746 -1.8756
14454TIP3   OH264852   2.905   6.394  11.385 -0.4988  0.2093  0.4561
14454TIP3    H164853   2.938   6.480  11.362  1.4050 -0.4357  0.6429
14454TIP3    H264854   2.814   6.409  11.412 -0.1697  2.1477  0.5698
14455TIP3   OH264855   2.795   4.949   2.149  0.0472  0.3990  0.1451
14455TIP3    H164856   2.874   4.972   2.101  1.5766 -1.0989  1.7637
14455TIP3    H264857   2.788   4.854   2.138 -0.4627  0.2549  1.5067
14456TIP3   OH264858   3.483   3.123  12.040 -0.0076 -0.2836 -0.2336
14456TIP3    H164859   3.483   3.189  11.971 -0.3885  0.0477  0.0795
14456TIP3    H264860   3.563   3.072  12.025  0.8512  0.9050  0.1405
14457TIP3   OH264861   6.437   5.995   3.747  0.0184  0.6914  0.6856
14457TIP3    H164862   6.438   5.903   3.719  0.3450  0.7935  0.3666
14457TIP3    H264863   6.526   6.012   3.778  0.7159  1.6305 -1.6291
14458TIP3   OH264864   1.778   5.850  12.496 -0.2263  0.0691  0.0802
14458TIP3    H164865   1.762   5.888  12.410 -0.6440 -1.5596 -0.5923
14458TIP3    H264866   1.871   5.867  12.512  0.3925 -1.3480 -1.6305
14459TIP3   OH264867   6.458   6.089   4.681 -0.2321  0.1367 -0.0596
14459TIP3    H164868   6.409   6.151   4.628 -0.8156 -0.2785 -0.0125
14459TIP3    H264869   6.540   6.134   4.701 -0.7333  0.9701  0.1534
14460TIP3   OH264870   5.650   1.438  16.409  0.0590  0.2768  0.1771
14460TIP3    H164871   5.615   1.388  16.483  1.3578  0.1569  0.7514
14460TIP3    H264872   5.716   1.381  16.370 -0.9732  0.1423 -1.4197
14461TIP3   OH264873   2.630   6.794  15.211 -0.6401  0.3828 -0.1308
14461TIP3    H164874   2.569   6.858  15.173 -0.1012  0.6823 -0.5073
14461TIP3    H264875   2.716   6.823  15.181 -0.3033  0.0240  0.4860
14462TIP3   OH264876   0.170   2.412   4.405 -0.0928 -0.2590 -0.5544
14462TIP3    H164877   0.143   2.465   4.480  0.9237 -0.7476  0.1807
14462TIP3    H264878   0.199   2.329   4.443 -1.7214 -1.4067 -1.6847
14463TIP3   OH264879   1.439   1.196  14.014  0.4704  0.2384  0.9080
14463TIP3    H164880   1.493   1.120  13.990 -1.2521 -1.4627  2.0624
14463TIP3    H264881   1.492   1.244  14.078  0.7111 -1.3649  1.9771
14464TIP3   OH264882   3.626   6.067   2.728 -0.0836  0.2429 -0.0097
14464TIP3    H164883   3.677   6.135   2.772  1.1954 -0.7986  0.1908
14464TIP3    H264884   3.608   6.003   2.797 -0.9540  0.1742 -0.2794
14465TIP3   OH264885   5.560   3.079  16.104 -0.0560 -0.0131  0.4883
14465TIP3    H164886   5.502   3.030  16.162 -1.3232 -0.7152 -1.2813
14465TIP3    H264887   5.502   3.116  16.038  1.3832  0.3764 -0.6082
14466TIP3   OH264888   1.740   2.384   2.749  0.7146 -0.3925 -0.2704
14466TIP3    H164889   1.823   2.430   2.737  0.4344  0.0322 -0.5974
14466TIP3    H264890   1.745   2.351   2.839  1.1725 -0.2404 -0.2344
14467TIP3   OH264891   6.836   4.260  10.549  0.3230  0.0306 -0.3124
14467TIP3    H164892   6.844   4.227  10.459  1.0041 -0.4006 -0.1011
14467TIP3    H264893   6.838   4.182  10.604 -1.4240  0.1856  0.0301
14468TIP3   OH264894   6.235   1.272   1.661 -0.0051  0.3862  0.1155
14468TIP3    H164895   6.326   1.271   1.630  0.6740  0.3099  1.9783
14468TIP3    H264896   6.189   1.325   1.597  1.3738  0.4821 -0.8459
14469TIP3   OH264897   6.054   6.252  12.373  0.0704 -0.2881 -0.1401
14469TIP3    H164898   6.060   6.257  12.469  2.2676  1.2946 -0.2661
14469TIP3    H264899   6.143   6.231  12.345  0.0214  1.5698 -1.9039
14470TIP3   OH264900   6.387   4.019   0.925  0.1938 -0.9255 -0.0694
14470TIP3    H164901   6.405   3.978   0.840 -1.3227 -0.4294 -0.6605
14470TIP3    H264902   6.302   3.984   0.951 -0.2358  0.3827  0.3305
14471TIP3   OH264903   5.157   0.378  14.164 -0.7592  0.2578  0.1259
14471TIP3    H164904   5.152   0.296  14.115  0.0517  0.9497 -1.1765
14471TIP3    H264905   5.110   0.441  14.110 -0.2008  0.9491  0.4289
14472TIP3   OH264906   5.726   1.689   2.344  0.0443  0.2894  0.6031
14472TIP3    H164907   5.819   1.674   2.326  0.0851 -1.5417  1.9783
14472TIP3    H264908   5.724   1.720   2.435 -0.6402  1.1378  0.3084
14473TIP3   OH264909   0.290   6.714   4.967 -0.1365  0.2920 -0.1982
14473TIP3    H164910   0.290   6.691   5.060  0.0210 -1.0792 -0.5108
14473TIP3    H264911   0.202   6.692   4.937  0.1958 -0.5034 -0.6339
14474TIP3   OH264912   4.980   1.808   0.653 -0.0028 -0.0651  0.0987
14474TIP3    H164913   5.029   1.809   0.735 -0.8520 -1.2534  0.6500
14474TIP3    H264914   4.933   1.725   0.654 -1.1154  0.5217 -0.9515
14475TIP3   OH264915   2.289   6.139  15.202 -0.3753 -0.0052 -0.1518
14475TIP3    H164916   2.359   6.182  15.154  0.2709 -1.9193 -1.0172
14475TIP3    H264917   2.291   6.048  15.172 -1.7615 -0.6366  1.4710
14476TIP3   OH264918   1.786   4.685   4.157  0.1012  0.2419 -0.4048
14476TIP3    H164919   1.729   4.610   4.140  1.6846 -1.1496  0.1008
14476TIP3    H264920   1.744   4.731   4.230 -0.0860 -1.0903  0.3651
14477TIP3   OH264921   0.348   0.906  11.352 -0.6683 -0.0945 -0.1685
14477TIP3    H164922   0.364   0.984  11.405  1.1761 -1.6036  1.6625
14477TIP3    H264923   0.323   0.838  11.415  2.3665 -2.1903 -1.0037
14478TIP3   OH264924   4.277   0.979  13.005 -0.3279 -0.0591 -0.0969
14478TIP3    H164925   4.366   0.960  13.034 -0.1786  1.8395  0.7865
14478TIP3    H264926   4.225   0.906  13.039  0.8512 -1.1557 -0.5748
14479TIP3   OH264927   4.007   0.672  16.371  0.0452  0.2586  0.2858
14479TIP3    H164928   3.980   0.751  16.417 -0.0015  0.1267  0.4877
14479TIP3    H264929   3.933   0.612  16.382 -0.7735  0.8654 -1.5463
14480TIP3   OH264930   4.031   0.107  16.046 -0.5507 -0.5155  0.1703
14480TIP3    H164931   4.007   0.154  15.966  0.1226 -1.6105 -0.7036
14480TIP3    H264932   4.126   0.120  16.053 -0.0884 -2.9259 -0.9131
14481TIP3   OH264933   5.330   2.557  14.732 -0.0437 -0.7663 -0.0757
14481TIP3    H164934   5.418   2.518  14.728 -0.0022 -0.5277 -2.4553
14481TIP3    H264935   5.339   2.642  14.689 -1.0989  0.0163  1.1775
14482TIP3   OH264936   4.218   1.688   0.414  0.3487  0.1639  0.0061
14482TIP3    H164937   4.307   1.693   0.448  0.2802 -0.0970  0.2244
14482TIP3    H264938   4.175   1.622   0.468  0.2285 -0.2288 -0.5619
14483TIP3   OH264939   1.536   4.708   4.366 -0.3924 -0.3320  0.1716
14483TIP3    H164940   1.501   4.620   4.382  1.2854 -0.8249  1.3053
14483TIP3    H264941   1.497   4.734   4.282 -1.1773 -2.0116 -0.0208
14484TIP3   OH264942   0.445   3.110  11.151 -0.3217 -0.3382 -0.5804
14484TIP3    H164943   0.500   3.107  11.072  0.6609 -1.2898  0.1062
14484TIP3    H264944   0.418   3.202  11.157  3.3955  0.8674  0.4642
14485TIP3   OH264945   4.801   1.537  11.934 -0.0187  0.3256  0.1055
14485TIP3    H164946   4.788   1.621  11.889 -0.5560 -0.8670 -2.0856
14485TIP3    H264947   4.889   1.544  11.972  0.5810  1.3205 -1.3616
14486TIP3   OH264948   3.392   4.683   1.116 -0.0562 -0.1468 -0.3294
14486TIP3    H164949   3.435   4.606   1.154  0.9801 -0.8228 -2.6863
14486TIP3    H264950   3.310   4.649   1.081 -0.3455  0.1637  0.0487
14487TIP3   OH264951   4.908   6.242  13.743  0.3015  0.2784  0.1292
14487TIP3    H164952   4.865   6.190  13.811 -0.6023  0.6386 -0.1452
14487TIP3    H264953   4.852   6.319  13.733 -0.2737 -0.3216 -1.8414
14488TIP3   OH264954   0.420   4.415  15.675  0.3890  0.2998  0.0231
14488TIP3    H164955   0.367   4.373  15.743 -1.0213  0.4980 -0.9177
14488TIP3    H264956   0.502   4.438  15.720  0.3427 -1.4501  1.1126
14489TIP3   OH264957   0.195   5.507  14.474 -0.2481 -0.1838 -0.3611
14489TIP3    H164958   0.277   5.511  14.426 -0.5817  0.1955 -0.9085
14489TIP3    H264959   0.153   5.591  14.458  0.5699  0.8637  2.3205
14490TIP3   OH264960   1.293   6.725  15.288 -0.1836  0.0235  0.3575
14490TIP3    H164961   1.203   6.693  15.281 -0.3037 -0.3022  2.6357
14490TIP3    H264962   1.284   6.815  15.318  0.2456  0.5287 -0.9926
14491TIP3   OH264963   6.183   1.715  11.002  0.4631 -0.0313 -0.5701
14491TIP3    H164964   6.124   1.647  11.035  0.3997  0.0031 -0.6130
14491TIP3    H264965   6.235   1.670  10.935  0.4471 -0.0475 -0.5725
14492TIP3   OH264966   5.646   2.896   1.524 -0.7778 -0.6344  0.1472
14492TIP3    H164967   5.563   2.939   1.502 -0.4143  0.7626  1.4110
14492TIP3    H264968   5.713   2.961   1.503 -0.0206 -1.4958 -0.1904
14493TIP3   OH264969   1.010   1.143   4.794  0.2010  0.1318 -0.0155
14493TIP3    H164970   1.042   1.230   4.773 -0.9833  0.8430  1.0089
14493TIP3    H264971   1.050   1.123   4.879  1.4166 -0.8485 -0.7823
14494TIP3   OH264972   6.522   0.865  14.277 -0.1745 -0.0040  0.2081
14494TIP3    H164973   6.434   0.828  14.289  0.0531 -0.0680  1.8875
14494TIP3    H264974   6.572   0.833  14.352  0.6205  1.9981  0.5991
14495TIP3   OH264975   4.775   0.808  12.424  0.4775  0.1282 -0.6115
14495TIP3    H164976   4.793   0.725  12.469 -1.9881  0.5975  1.4823
14495TIP3    H264977   4.817   0.875  12.478  0.0427  0.4730 -0.6931
14496TIP3   OH264978   4.778   3.493   1.786 -0.1347  0.4323  0.2917
14496TIP3    H164979   4.810   3.514   1.873 -0.4266  1.0193  0.2654
14496TIP3    H264980   4.683   3.481   1.797 -0.3644  1.6997 -0.1389
14497TIP3   OH264981   1.846   4.668   2.483 -0.2746 -0.1304 -0.0218
14497TIP3    H164982   1.806   4.592   2.525 -1.5228  0.6433  0.2356
14497TIP3    H264983   1.871   4.725   2.556  1.2788 -0.5677 -0.1829
14498TIP3   OH264984   4.597   1.606   3.389 -0.4806 -0.1458  0.5364
14498TIP3    H164985   4.637   1.691   3.369 -1.4576  0.2646  0.2609
14498TIP3    H264986   4.671   1.550   3.413  0.3848  0.2826 -0.9631
14499TIP3   OH264987   1.585   4.527  11.717  0.5518 -0.6458 -0.5529
14499TIP3    H164988   1.617   4.519  11.627  0.8505 -1.5823 -0.3684
14499TIP3    H264989   1.509   4.584  11.709 -0.3139 -1.8754 -1.6408
14500TIP3   OH264990   3.448   6.663   4.521 -0.4125 -0.2035 -0.1205
14500TIP3    H164991   3.397   6.736   4.484 -0.4794 -0.7462 -1.1406
14500TIP3    H264992   3.423   6.588   4.468 -0.3418 -0.9806  0.9241
14501TIP3   OH264993   6.218   5.611  10.558  0.0796 -0.2432 -0.5836
14501TIP3    H164994   6.278   5.607  10.483 -1.0891 -0.2052 -1.5433
14501TIP3    H264995   6.156   5.680  10.535 -1.8499 -1.9512 -0.7595
14502TIP3   OH264996   1.597   0.057  13.838 -0.4171  0.0225 -0.1749
14502TIP3    H164997   1.573  -0.019  13.891 -1.4499 -1.0911 -2.1315
14502TIP3    H264998   1.691   0.048  13.824 -0.3992 -0.4485  0.2331
14503TIP3   OH264999   1.007   5.549   4.733  0.6547  0.1661 -0.2563
14503TIP3    H165000   0.977   5.474   4.682 -0.9643  1.2921 -1.0154
14503TIP3    H265001   0.928   5.598   4.755  1.4351  0.5393  2.0953
14504TIP3   OH265002   4.350   3.892  11.305  0.0693  0.5202  0.0708
14504TIP3    H165003   4.345   3.806  11.264  1.5905  0.5325 -0.2197
14504TIP3    H265004   4.410   3.880  11.378  0.0001  1.2522  0.2554
14505TIP3   OH265005   5.187   4.673   4.790  0.1768  0.3535  0.5970
14505TIP3    H165006   5.243   4.740   4.826 -0.4735  0.9832  0.4580
14505TIP3    H265007   5.236   4.591   4.802  0.9913  0.8507  0.7181
14506TIP3   OH265008   1.016   1.071  14.523  0.0234 -0.1603 -0.1093
14506TIP3    H165009   0.958   0.997  14.506 -0.1831 -0.4100  1.5561
14506TIP3    H265010   0.974   1.119  14.594  1.0030  0.6346 -0.0452
14507TIP3   OH265011   2.743   1.048  10.941 -0.0052 -0.6992 -0.1799
14507TIP3    H165012   2.663   1.049  10.889  0.4933 -0.9074 -0.9744
14507TIP3    H265013   2.808   1.007  10.884  0.1538 -2.5306  1.2243
14508TIP3   OH265014   6.130   5.857  15.728  0.3073  0.3206  0.5413
14508TIP3    H165015   6.133   5.829  15.820  1.1774 -0.0985  0.4024
14508TIP3    H265016   6.214   5.902  15.715 -0.6095  2.0798  0.4636
14509TIP3   OH265017   4.549   4.005   1.077  0.1427 -0.2468 -0.4373
14509TIP3    H165018   4.501   4.085   1.054  1.6087  0.7332 -0.1631
14509TIP3    H265019   4.510   3.977   1.160 -0.0554  0.4520 -0.2876
14510TIP3   OH265020   1.015   2.703  10.734 -0.2893 -0.2718  0.5777
14510TIP3    H165021   0.935   2.657  10.758 -0.4507 -0.6809 -0.6645
14510TIP3    H265022   1.004   2.722  10.640  1.9694 -2.2510 -0.1801
14511TIP3   OH265023   2.271   2.414   1.635  0.3836 -0.4797 -0.5792
14511TIP3    H165024   2.273   2.492   1.691  0.6853 -1.9881  1.6788
14511TIP3    H265025   2.191   2.423   1.584 -0.1272  0.8290  0.3941
14512TIP3   OH265026   3.917   0.652  13.558  0.1041  0.2338  0.0928
14512TIP3    H165027   3.991   0.657  13.498  0.0324 -2.9026 -0.3804
14512TIP3    H265028   3.956   0.655  13.645  0.8359 -1.3222 -0.1504
14513TIP3   OH265029   5.015   4.991  15.967 -0.1875  0.5706 -0.4346
14513TIP3    H165030   5.066   4.969  16.045 -1.5729  1.5048  0.7868
14513TIP3    H265031   4.990   4.906  15.930 -0.1684  0.1018  0.5875
14514TIP3   OH265032   0.900   6.669   0.854 -0.3676  0.6249 -0.1546
14514TIP3    H165033   0.890   6.581   0.890 -1.3714  0.6512 -0.3338
14514TIP3    H265034   0.831   6.721   0.895  0.8276  1.6034  0.7096
14515TIP3   OH265035   0.672   1.472  11.121  0.5218 -0.5245 -0.2589
14515TIP3    H165036   0.707   1.397  11.073  1.1919 -0.8001  0.6417
14515TIP3    H265037   0.582   1.447  11.143  0.8786 -1.2399  0.4043
14516TIP3   OH265038   5.035   3.958   4.953 -0.2637  0.2908 -0.2300
14516TIP3    H165039   5.045   4.046   4.916 -0.3218 -0.0644 -1.1155
14516TIP3    H265040   4.947   3.931   4.926 -0.3299  0.0440  0.2256
14517TIP3   OH265041   6.579   0.235   5.730  0.1239 -0.1686 -0.1697
14517TIP3    H165042   6.549   0.146   5.710 -0.6510 -0.3961  1.8638
14517TIP3    H265043   6.621   0.228   5.815  2.2287  0.9939 -1.0233
14518TIP3   OH265044   6.692   0.730  16.110 -0.2022 -0.0223 -0.2259
14518TIP3    H165045   6.634   0.790  16.158 -0.6818 -0.5550 -0.1297
14518TIP3    H265046   6.780   0.753  16.141 -0.1958  1.7559 -1.4233
14519TIP3   OH265047   4.511   1.809   5.114  0.0090 -0.0842  0.1658
14519TIP3    H165048   4.491   1.720   5.143 -0.8045  0.4940  1.4694
14519TIP3    H265049   4.538   1.854   5.193 -1.2957  1.2960 -0.1419
14520TIP3   OH265050   6.040   1.156  12.418  0.2930  0.0263 -0.0168
14520TIP3    H165051   6.135   1.164  12.430  0.1142  0.4779  1.2113
14520TIP3    H265052   6.025   1.061  12.418  0.7533 -0.0551 -0.3574
14521TIP3   OH265053   3.841   5.296   1.928  0.3415  0.0296 -0.1822
14521TIP3    H165054   3.776   5.326   1.991 -1.6129 -0.4219 -1.8839
14521TIP3    H265055   3.901   5.241   1.980 -0.0293  1.2410  1.6203
14522TIP3   OH265056   4.778   5.909   0.341 -0.5387  0.0178 -0.2238
14522TIP3    H165057   4.844   5.911   0.411  0.7532 -2.3183 -1.2391
14522TIP3    H265058   4.713   5.845   0.371 -1.0866  0.5410 -0.2772
14523TIP3   OH265059   3.001   6.420   3.054  0.4777  0.6604 -0.1263
14523TIP3    H165060   2.930   6.364   3.085  0.9378  0.6247  0.9028
14523TIP3    H265061   3.054   6.363   2.999  0.7203  0.1915  0.5877
14524TIP3   OH265062   1.638   2.333   2.500  0.7525  0.0933  0.3866
14524TIP3    H165063   1.679   2.348   2.585  0.5455 -0.2533  0.5463
14524TIP3    H265064   1.549   2.367   2.509  0.4711 -0.6695  0.5641
14525TIP3   OH265065   1.595   1.956   2.006  0.4185 -0.2040  0.5983
14525TIP3    H165066   1.625   2.044   1.984  0.6162 -0.5720 -0.6366
14525TIP3    H265067   1.637   1.937   2.090  0.3969  0.8630  0.8644
14526TIP3   OH265068   0.566   2.704   1.208 -0.2261  0.2538 -0.2602
14526TIP3    H165069   0.630   2.734   1.273  1.4321 -0.0900 -1.6637
14526TIP3    H265070   0.619   2.670   1.136 -2.0062  0.2464 -1.6334
14527TIP3   OH265071   3.347   4.444   6.048  0.2794 -0.1830 -0.5034
14527TIP3    H165072   3.376   4.394   6.125 -0.5705  0.3881  0.2025
14527TIP3    H265073   3.279   4.502   6.081 -1.3060 -1.0999 -2.0232
14528TIP3   OH265074   0.814   1.801  16.833 -0.0494  0.1014  0.3702
14528TIP3    H165075   0.815   1.799  16.737  1.4021 -1.3734  0.3781
14528TIP3    H265076   0.722   1.794  16.856 -0.4116  0.3474 -0.9024
14529TIP3   OH265077   3.644   4.639   4.702  0.3692 -0.1428 -0.7624
14529TIP3    H165078   3.568   4.690   4.729  0.2019 -0.4594 -0.6374
14529TIP3    H265079   3.693   4.624   4.783  1.2284  1.1368 -1.0155
14530TIP3   OH265080   6.644   0.430   2.033  0.2977 -0.0737 -0.4427
14530TIP3    H165081   6.602   0.436   2.119 -0.6173 -0.5076 -0.8369
14530TIP3    H265082   6.573   0.401   1.974  0.2415  2.5585 -1.8234
14531TIP3   OH265083   5.307   2.581   5.955  0.5579  0.6994 -1.2136
14531TIP3    H165084   5.268   2.650   6.007  2.4778  1.6120 -0.9046
14531TIP3    H265085   5.327   2.622   5.871  0.0793  0.0195 -1.6717
14532TIP3   OH265086   6.390   0.715  10.859 -0.3645  0.0794  0.5980
14532TIP3    H165087   6.332   0.741  10.788 -0.5323 -0.3601  0.5724
14532TIP3    H265088   6.361   0.766  10.934 -0.7463 -0.0931  0.5693
14533TIP3   OH265089   3.860   4.369  14.846  0.2072 -0.4290  0.1864
14533TIP3    H165090   3.942   4.337  14.883 -0.2130 -0.4431  1.1258
14533TIP3    H265091   3.804   4.387  14.922 -0.1453  0.9932 -0.3758
14534TIP3   OH265092   2.989   0.943   0.289 -0.4453  0.4509 -0.2757
14534TIP3    H165093   2.918   0.908   0.236  0.2263  0.2717 -1.0857
14534TIP3    H265094   2.977   0.903   0.375  0.6187 -2.2940 -1.3101
14535TIP3   OH265095   1.739   2.619  12.962 -0.5072 -0.5689 -0.6098
14535TIP3    H165096   1.775   2.575  13.038 -0.0498  0.2858 -0.3173
14535TIP3    H265097   1.651   2.646  12.989 -0.3200 -0.2081 -0.3524
14536TIP3   OH265098   3.438   3.013  10.294 -0.1231 -0.1818 -0.1387
14536TIP3    H165099   3.356   2.981  10.331 -0.6664 -0.4180 -1.4862
14536TIP3    H265100   3.500   3.010  10.367 -1.0331 -1.0343  0.6338
14537TIP3   OH265101   4.227   0.336  12.054 -0.3369  0.3996  0.0377
14537TIP3    H165102   4.284   0.346  12.130 -0.9806 -0.5055  0.6616
14537TIP3    H265103   4.156   0.399  12.069 -0.2584  0.5042 -0.0239
14538TIP3   OH265104   4.783   0.110   3.806 -0.0896 -0.3257  0.9331
14538TIP3    H165105   4.747   0.021   3.796 -0.0351 -0.4026  1.3986
14538TIP3    H265106   4.797   0.119   3.900  1.3227 -0.3724  0.7387
14539TIP3   OH265107   0.013   2.776   5.034 -0.1598 -0.6308 -0.4043
14539TIP3    H165108   0.007   2.867   5.065 -0.6049 -0.5971 -0.5779
14539TIP3    H265109   0.062   2.731   5.103 -1.1299 -0.5504  0.3710
14540TIP3   OH265110   3.978   6.835   0.102  0.6433 -0.0690 -0.1614
14540TIP3    H165111   3.971   6.921   0.143  1.2763 -0.2405  0.3219
14540TIP3    H265112   4.038   6.847   0.029  0.3317  0.0090 -0.4062
14541TIP3   OH265113   6.839   0.934   0.137  0.2179 -0.3267  0.5338
14541TIP3    H165114   6.844   0.941   0.233  0.3478  0.2343  0.4885
14541TIP3    H265115   6.817   0.842   0.121  1.4930 -0.7564  1.0593
14542TIP3   OH265116   0.444   6.484   0.521 -0.1679  0.1781 -0.2213
14542TIP3    H165117   0.426   6.391   0.509  0.7308  0.0346 -0.5259
14542TIP3    H265118   0.498   6.488   0.600 -1.5800  0.6128  0.7684
14543TIP3   OH265119   3.381   5.668  14.387  0.1192  0.7454 -0.1777
14543TIP3    H165120   3.361   5.672  14.480 -0.8600 -0.9675 -0.2737
14543TIP3    H265121   3.324   5.734  14.347 -0.1076  0.8643  0.3408
14544TIP3   OH265122   3.024   0.518   2.636  0.1071 -0.1598  0.2036
14544TIP3    H165123   2.988   0.532   2.724 -1.5775  1.5698 -0.6755
14544TIP3    H265124   2.996   0.595   2.587 -0.6209 -1.9340 -2.3412
14545TIP3   OH265125   5.823   0.919   4.987 -0.4111  0.1933  0.2049
14545TIP3    H165126   5.751   0.982   4.990 -0.0778  0.5683  0.5145
14545TIP3    H265127   5.852   0.913   5.078 -0.6648 -0.6740  0.2311
14546TIP3   OH265128   4.714   5.718  13.357  0.5602  0.2468  0.2120
14546TIP3    H165129   4.715   5.782  13.285  2.5223  0.8232  0.7198
14546TIP3    H265130   4.680   5.767  13.432 -1.9727 -0.4841 -0.3369
14547TIP3   OH265131   6.355   2.766  16.683  0.4561  0.4172 -0.3668
14547TIP3    H165132   6.302   2.835  16.643  0.5415 -1.5853 -4.4471
14547TIP3    H265133   6.433   2.761  16.627  1.9133 -0.9912  1.6574
14548TIP3   OH265134   0.979   4.225   3.295  0.0952  0.3366 -0.0501
14548TIP3    H165135   0.948   4.159   3.357  2.1475 -2.0452 -1.3358
14548TIP3    H265136   1.001   4.174   3.216 -0.6894  2.9662 -2.0983
14549TIP3   OH265137   6.162   4.427  10.851 -0.1024  0.2355 -0.3265
14549TIP3    H165138   6.244   4.404  10.893 -0.5289  2.0876  1.6750
14549TIP3    H265139   6.177   4.409  10.758  2.6272  0.7770 -0.0702
14550TIP3   OH265140   6.352   4.611   0.324  0.2223 -0.3147  0.0535
14550TIP3    H165141   6.394   4.695   0.307  0.4958 -0.2349  1.0504
14550TIP3    H265142   6.352   4.566   0.240  1.4836  0.0647 -0.1660
14551TIP3   OH265143   1.352   6.057  16.552 -0.6543  0.4471 -0.3589
14551TIP3    H165144   1.377   6.134  16.604 -1.4462 -0.6873  1.8555
14551TIP3    H265145   1.286   6.013  16.605 -0.3941 -1.6425 -1.6531
14552TIP3   OH265146   3.664   1.155  12.593 -0.0209  0.1311 -0.2168
14552TIP3    H165147   3.709   1.224  12.543  1.7044 -0.2092  0.7755
14552TIP3    H265148   3.575   1.187  12.602  0.0651  1.0341 -1.9601
14553TIP3   OH265149   4.611   3.960   4.950  0.0087  0.4912  0.1346
14553TIP3    H165150   4.671   4.032   4.967  0.6768 -0.3077  1.2980
14553TIP3    H265151   4.639   3.891   5.010 -1.6906 -0.1296  0.2537
14554TIP3   OH265152   1.155   6.286  17.001  0.0449  0.0427 -0.1065
14554TIP3    H165153   1.121   6.269  16.913  1.3179 -0.4129 -0.5332
14554TIP3    H265154   1.092   6.246  17.060 -1.0589  0.7411 -0.7877
14555TIP3   OH265155   1.074   3.107  15.124 -0.1334  0.2558  0.3794
14555TIP3    H165156   1.005   3.085  15.061 -1.0260 -0.3104  1.5119
14555TIP3    H265157   1.155   3.081  15.080 -0.8103 -1.0099 -0.1762
14556TIP3   OH265158   1.464   4.030   2.725  0.5156  0.4838  0.1730
14556TIP3    H165159   1.459   4.114   2.771 -1.8040  1.2416 -1.2842
14556TIP3    H265160   1.504   4.051   2.640  1.3914 -0.2073  0.3995
14557TIP3   OH265161   3.042   1.802  12.214  0.7222  0.4233 -0.1969
14557TIP3    H165162   3.083   1.839  12.135 -0.3296  0.5819 -0.6883
14557TIP3    H265163   2.977   1.740  12.181  1.3807 -0.7243  0.5950
14558TIP3   OH265164   4.775   0.494  14.007  0.1662 -0.8103  0.0425
14558TIP3    H165165   4.765   0.529  14.096 -0.0276 -0.6423 -0.0439
14558TIP3    H265166   4.868   0.505  13.987  0.1486 -0.5520  0.1025
14559TIP3   OH265167   6.185   4.944   2.226  0.6148 -0.4318 -0.4819
14559TIP3    H165168   6.097   4.981   2.221 -0.4191 -2.5488  0.6171
14559TIP3    H265169   6.243   5.019   2.218 -1.2981  1.1584 -0.2501
14560TIP3   OH265170   4.612   1.733  11.835  0.2734 -0.4833 -0.5302
14560TIP3    H165171   4.598   1.675  11.760 -0.5408  1.0616 -1.6328
14560TIP3    H265172   4.551   1.806  11.821  1.1402  0.5740  0.8639
14561TIP3   OH265173   6.301   6.229  15.510  0.0030  0.0175  0.3731
14561TIP3    H165174   6.307   6.156  15.448 -1.1957 -0.2746  0.5678
14561TIP3    H265175   6.223   6.277  15.483 -0.2642  0.1629  1.3586
14562TIP3   OH265176   2.998   4.808   0.327  0.0300 -0.1032 -0.6982
14562TIP3    H165177   2.938   4.825   0.255 -1.4663 -1.3087  0.2015
14562TIP3    H265178   3.064   4.877   0.320 -0.6573  0.4197 -2.5689
14563TIP3   OH265179   2.023   2.743   4.875  0.2643 -0.4385 -0.3379
14563TIP3    H165180   2.107   2.757   4.919 -0.4538  0.0932  0.9046
14563TIP3    H265181   1.966   2.707   4.943 -0.0869 -2.3587 -1.5641
14564TIP3   OH265182   5.471   2.708   1.915  0.0408  0.0435 -0.1268
14564TIP3    H165183   5.459   2.634   1.976 -0.3324  0.2766  0.0849
14564TIP3    H265184   5.408   2.774   1.945 -1.0273 -0.2990 -1.5007
14565TIP3   OH265185   0.906   1.170  13.060 -0.5861 -0.5496 -0.1974
14565TIP3    H165186   0.822   1.203  13.092  0.0494  1.3130 -0.3061
14565TIP3    H265187   0.924   1.222  12.982  0.9503 -0.4699  0.1721
14566TIP3   OH265188   3.185   0.462  16.404  1.3324  0.3310  0.4792
14566TIP3    H165189   3.160   0.533  16.463 -0.4829  0.7389 -0.7021
14566TIP3    H265190   3.165   0.495  16.316 -0.3405 -1.8722 -0.0671
14567TIP3   OH265191   5.249   4.722  12.232  0.0023  0.1220  0.1218
14567TIP3    H165192   5.256   4.628  12.211 -1.3265  0.5224 -2.4618
14567TIP3    H265193   5.166   4.730  12.278  0.7057 -0.0981  1.4791
14568TIP3   OH265194   2.905   1.861  17.097 -0.3189 -0.1493  0.3130
14568TIP3    H165195   2.945   1.909  17.170 -0.3616  0.2087  0.1056
14568TIP3    H265196   2.860   1.788  17.139  2.9030 -2.2994  0.3731
14569TIP3   OH265197   4.695   1.909  17.042  0.5034  0.6817  0.3299
14569TIP3    H165198   4.605   1.879  17.045  0.7826 -0.0938  1.4722
14569TIP3    H265199   4.714   1.920  16.949 -0.5003  0.0308  0.0414
14570TIP3   OH265200   4.942   2.667   3.948 -0.1883 -0.2893  0.1335
14570TIP3    H165201   4.998   2.634   4.018  0.3842 -0.8999 -0.5859
14570TIP3    H265202   4.869   2.709   3.992 -0.2327 -1.3406  1.0839
14571TIP3   OH265203   6.838   3.099   2.259  0.3729 -0.2195  0.3768
14571TIP3    H165204   6.892   3.178   2.266  1.5116 -1.0523  1.5706
14571TIP3    H265205   6.862   3.061   2.175  0.6027  0.1555  0.2685
14572TIP3   OH265206   3.694   3.416  12.213  0.6029  0.4489  0.0302
14572TIP3    H165207   3.629   3.476  12.251  1.6156  2.3518 -1.1107
14572TIP3    H265208   3.663   3.329  12.238 -0.8972  1.4138  1.8235
14573TIP3   OH265209   2.349   3.537  14.788 -0.0590 -0.2323 -0.4178
14573TIP3    H165210   2.379   3.569  14.702  0.1185  0.6169 -0.0551
14573TIP3    H265211   2.422   3.485  14.821  0.1713  0.0545 -0.4660
14574TIP3   OH265212   6.152   6.307   1.220  0.3121  0.5279  0.1123
14574TIP3    H165213   6.200   6.267   1.292  1.3623  1.4353 -0.0608
14574TIP3    H265214   6.071   6.256   1.213 -0.3475  1.1148  2.6640
14575TIP3   OH265215   0.207   6.562   2.715 -0.7287  0.6530 -0.2409
14575TIP3    H165216   0.267   6.511   2.661  0.3245  0.6926  0.8570
14575TIP3    H265217   0.172   6.498   2.778 -0.0454  1.0847  0.5998
14576TIP3   OH265218   1.830   6.301   2.827 -0.0527 -0.4893 -0.0867
14576TIP3    H165219   1.920   6.318   2.800 -0.4508  1.2417 -0.4073
14576TIP3    H265220   1.784   6.277   2.746 -0.0734 -0.5268 -0.0642
14577TIP3   OH265221   5.682   5.873   4.328 -0.4831 -0.3687  0.5346
14577TIP3    H165222   5.703   5.779   4.327  1.7762  0.0902  0.0086
14577TIP3    H265223   5.644   5.888   4.415 -1.0974 -1.7848  0.5399
14578TIP3   OH265224   0.800   4.234   0.061 -0.0062 -0.3471 -0.0347
14578TIP3    H165225   0.734   4.165   0.072 -0.5902  0.2010 -0.0836
14578TIP3    H265226   0.859   4.222   0.136  0.4224 -1.4686 -0.5295
14579TIP3   OH265227   6.618   2.552  16.717  0.2962 -0.2301 -0.4997
14579TIP3    H165228   6.619   2.577  16.624  0.2134 -0.4512 -0.5591
14579TIP3    H265229   6.598   2.459  16.717 -0.7434 -0.0247 -0.2165
14580TIP3   OH265230   6.253   3.507  11.231 -0.0608 -0.0016  0.5400
14580TIP3    H165231   6.220   3.420  11.249 -0.1580 -0.0349  0.2065
14580TIP3    H265232   6.176   3.564  11.233 -0.2171 -0.1446 -0.6609
14581TIP3   OH265233   2.390   3.691   0.646 -0.4709 -0.0328 -0.1474
14581TIP3    H165234   2.440   3.685   0.565  0.6523 -0.8506  0.5685
14581TIP3    H265235   2.450   3.659   0.713 -2.3275 -2.2017  0.6140
14582TIP3   OH265236   0.952   1.584   0.522 -0.5652 -0.1327  0.6502
14582TIP3    H165237   0.947   1.650   0.454 -2.6260  1.0605  1.8684
14582TIP3    H265238   1.042   1.592   0.556 -0.8992  2.5060  1.1493
14583TIP3   OH265239   1.061   4.792   5.568  0.2215  0.2581 -0.1215
14583TIP3    H165240   0.972   4.773   5.537  0.2799 -0.8333  0.3543
14583TIP3    H265241   1.081   4.877   5.530 -0.7468  0.1842 -0.8441
14584TIP3   OH265242   2.989   3.286   0.968  0.2944  0.2530  0.3691
14584TIP3    H165243   2.999   3.243   0.883  0.4299  1.8932 -0.4836
14584TIP3    H265244   2.977   3.214   1.030  2.5357 -1.1410 -0.6624
14585TIP3   OH265245   0.689   3.108  14.160  0.2791 -0.1526 -0.7652
14585TIP3    H165246   0.730   3.034  14.116 -0.5465 -0.3061 -1.3076
14585TIP3    H265247   0.755   3.178  14.157  1.9554 -1.4925  1.7689
14586TIP3   OH265248   2.882   2.182   4.387  0.2032 -0.0755 -0.1182
14586TIP3    H165249   2.808   2.159   4.444 -0.0224 -0.3839 -0.5320
14586TIP3    H265250   2.897   2.275   4.404 -1.2835  0.3949 -1.1497
14587TIP3   OH265251   3.293   6.748  16.900 -0.0944 -0.9297  1.0287
14587TIP3    H165252   3.247   6.692  16.838 -1.0147 -1.2124  1.9291
14587TIP3    H265253   3.377   6.767  16.858 -0.1241 -2.2537  0.3248
14588TIP3   OH265254   5.865   2.856   2.625  0.3251 -0.4793 -0.0792
14588TIP3    H165255   5.857   2.911   2.547 -0.0833 -1.5104 -0.7837
14588TIP3    H265256   5.856   2.766   2.592  1.0037 -0.9773  1.0398
14589TIP3   OH265257   6.528   2.173   5.139  0.0635  0.2257 -0.5488
14589TIP3    H165258   6.597   2.238   5.152 -0.1394  0.2819  0.3423
14589TIP3    H265259   6.543   2.108   5.208 -0.2357 -0.2350 -0.9074
14590TIP3   OH265260   5.191   5.059   5.274 -0.1697  0.6504  0.0097
14590TIP3    H165261   5.205   5.067   5.368 -0.8580  0.9361  0.0939
14590TIP3    H265262   5.240   5.133   5.237  0.3603  0.3551  0.1138
14591TIP3   OH265263   5.292   4.319  13.648 -0.3871  0.1157  0.1218
14591TIP3    H165264   5.367   4.289  13.699 -0.9691 -0.0621  0.8863
14591TIP3    H265265   5.252   4.239  13.615 -0.4483  0.1928  0.0089
14592TIP3   OH265266   3.011   2.624   6.412 -0.2773  0.2561  0.5217
14592TIP3    H165267   2.926   2.583   6.428 -0.5609  0.4270 -0.5085
14592TIP3    H265268   2.993   2.718   6.416  0.0310  0.2911  1.1378
14593TIP3   OH265269   3.654   1.938   6.651  0.5432  0.1031 -0.7423
14593TIP3    H165270   3.612   1.886   6.720 -0.0579 -0.7974 -1.7596
14593TIP3    H265271   3.747   1.934   6.672  0.4046 -0.4767 -0.1952
14594TIP3   OH265272   3.419   3.896  11.198  0.3740 -0.1018  0.7427
14594TIP3    H165273   3.347   3.838  11.225 -0.1500  0.2820  0.1945
14594TIP3    H265274   3.478   3.897  11.273  0.5811 -1.6286  0.6350
14595TIP3   OH265275   4.975   2.361  13.392  0.4922  0.5099 -0.4454
14595TIP3    H165276   5.054   2.414  13.406  1.3318 -0.9529  0.5845
14595TIP3    H265277   5.006   2.271  13.394 -0.8117 -0.0459 -2.8069
14596TIP3   OH265278   5.204   0.513   1.435 -0.6655 -0.3962  0.1340
14596TIP3    H165279   5.290   0.485   1.405 -1.1654 -1.8340 -0.0614
14596TIP3    H265280   5.146   0.498   1.360 -0.8727  1.9842 -0.2614
14597TIP3   OH265281   5.929   3.912   4.686  0.2510 -0.5857  0.1521
14597TIP3    H165282   5.856   3.867   4.644  0.7352 -0.3605 -0.9685
14597TIP3    H265283   5.989   3.842   4.712  0.2471 -0.6884 -0.1165
14598TIP3   OH265284   2.639   0.400  13.772  0.3047  0.2816 -0.3133
14598TIP3    H165285   2.606   0.446  13.694 -1.3983 -0.8196 -0.3002
14598TIP3    H265286   2.734   0.405  13.764  0.1756  1.9465 -1.3983
14599TIP3   OH265287   4.016   3.271  13.024 -0.1334  0.3357  0.6214
14599TIP3    H165288   4.044   3.261  13.115  2.2681  0.6173 -0.0277
14599TIP3    H265289   4.070   3.342  12.989  1.1110 -1.6048 -1.7677
14600TIP3   OH265290   0.567   4.751   2.026 -0.0724 -0.5329 -0.0903
14600TIP3    H165291   0.513   4.827   2.050  0.7524  0.6142 -1.6839
14600TIP3    H265292   0.656   4.784   2.030  0.2036 -0.8469 -2.6217
14601TIP3   OH265293   1.541   6.225   1.563 -0.4036  0.1093  0.4134
14601TIP3    H165294   1.531   6.129   1.564  0.1408  0.0348 -0.5123
14601TIP3    H265295   1.603   6.242   1.492 -2.2388  1.3081 -1.0133
14602TIP3   OH265296   2.721   4.685  11.101  0.2497  0.2752  0.2837
14602TIP3    H165297   2.642   4.638  11.073 -0.0896  0.3741  1.0587
14602TIP3    H265298   2.718   4.682  11.196  1.3495  0.0085  0.3213
14603TIP3   OH265299   0.858   6.403  15.891 -0.0434  0.0054 -0.5959
14603TIP3    H165300   0.843   6.376  15.982  0.2452 -2.1789 -1.1357
14603TIP3    H265301   0.774   6.388  15.848 -0.0528  0.6086 -0.7944
14604TIP3   OH265302   4.304   1.078  12.681  0.4346  0.1890 -0.9755
14604TIP3    H165303   4.292   1.073  12.776  0.1540  0.0391 -1.0180
14604TIP3    H265304   4.374   1.016  12.663  1.3581  1.1309 -0.7128
14605TIP3   OH265305   6.806   4.305   5.134 -0.2679  0.0215 -0.5812
14605TIP3    H165306   6.881   4.263   5.093 -0.7655 -1.5257  0.0082
14605TIP3    H265307   6.759   4.233   5.178 -1.2479  1.1819  0.3518
14606TIP3   OH265308   5.343   3.591   4.580 -0.4494  0.0171 -0.5255
14606TIP3    H165309   5.344   3.496   4.571  0.1524 -0.3561  2.5750
14606TIP3    H265310   5.426   3.620   4.543  0.8607 -1.0780  1.3879
14607TIP3   OH265311   3.125   4.461   0.067  0.0521  0.3479 -0.8860
14607TIP3    H165312   3.036   4.494   0.080 -0.3930 -0.5358 -1.6033
14607TIP3    H265313   3.180   4.521   0.117 -1.1307 -0.3860  1.4345
14608TIP3   OH265314   2.895   2.573   1.561 -0.3228  0.1724  0.6208
14608TIP3    H165315   2.862   2.663   1.556  1.5533  0.9641  1.8233
14608TIP3    H265316   2.971   2.573   1.502 -1.1853 -1.0773 -0.5467
14609TIP3   OH265317   0.634   4.969   0.643 -0.2567  0.8241 -0.0314
14609TIP3    H165318   0.586   5.051   0.638 -0.3392  1.0070  2.6594
14609TIP3    H265319   0.726   4.994   0.631 -0.3566  1.2039  0.0039
14610TIP3   OH265320   0.171   3.960  12.177  0.3011 -0.1587  0.1327
14610TIP3    H165321   0.194   3.926  12.264 -0.7386  0.4897  0.6845
14610TIP3    H265322   0.075   3.952  12.174  0.2587  0.6002 -0.6336
14611TIP3   OH265323   3.687   5.677  11.034 -0.1397  0.0616 -0.0527
14611TIP3    H165324   3.674   5.748  10.972  0.2070 -2.1202 -2.8340
14611TIP3    H265325   3.777   5.648  11.020 -1.3124 -3.2672 -1.8852
14612TIP3   OH265326   0.841   0.368   2.812  0.3284  0.0686  0.4681
14612TIP3    H165327   0.842   0.460   2.786 -1.9490  0.2230  0.7790
14612TIP3    H265328   0.877   0.322   2.736  1.1577  1.1530  0.1657
14613TIP3   OH265329   4.127   6.761  12.276  0.1391 -0.0456  0.1292
14613TIP3    H165330   4.080   6.799  12.202  2.2214  1.1909 -0.6731
14613TIP3    H265331   4.112   6.666  12.268 -0.2621  0.1230 -1.4762
14614TIP3   OH265332   4.047   5.818  12.166 -0.1089 -0.1673 -0.2726
14614TIP3    H165333   4.117   5.846  12.225 -1.2850  0.9878  0.6297
14614TIP3    H265334   4.006   5.743  12.210 -2.9514  2.5068  2.0753
14615TIP3   OH265335   3.513   4.463  14.632  0.0738  0.0384  0.6627
14615TIP3    H165336   3.516   4.445  14.726  1.1170 -0.1595  0.5926
14615TIP3    H265337   3.589   4.518  14.615  1.2573 -1.8409 -0.4682
14616TIP3   OH265338   0.545   3.396  15.034 -0.4727  0.0014 -0.7471
14616TIP3    H165339   0.529   3.400  15.129 -1.4756  1.0234 -0.9292
14616TIP3    H265340   0.639   3.385  15.026 -0.0730  2.0518  0.3853
14617TIP3   OH265341   1.221   5.010   3.562  0.1518  0.3514  0.5014
14617TIP3    H165342   1.266   5.033   3.643 -2.3360  1.0406  1.7860
14617TIP3    H265343   1.168   5.087   3.541 -1.4042 -0.8546 -0.1783
14618TIP3   OH265344   1.696   5.269   1.785 -0.1676 -0.4781 -0.3259
14618TIP3    H165345   1.771   5.211   1.784 -0.0837 -0.3665 -0.5884
14618TIP3    H265346   1.690   5.300   1.875 -0.5883 -1.3721 -0.0425
14619TIP3   OH265347   2.605   3.990   6.801  0.2303 -0.8386  0.3098
14619TIP3    H165348   2.620   4.031   6.886  0.0882  1.0238 -0.5005
14619TIP3    H265349   2.684   4.009   6.750  0.1076 -1.4884 -0.1437
14620TIP3   OH265350   6.449   5.416   1.765  0.5272 -0.0854 -0.7589
14620TIP3    H165351   6.458   5.497   1.715 -0.4490  0.5037 -0.0038
14620TIP3    H265352   6.354   5.406   1.778  0.7690  0.3050  1.7993
14621TIP3   OH265353   6.289   5.685   2.676  0.4192  1.0522 -0.2470
14621TIP3    H165354   6.267   5.753   2.740 -0.9687  0.5334 -0.1412
14621TIP3    H265355   6.277   5.603   2.724  0.8217  0.7014 -0.7457
14622TIP3   OH265356   4.467   6.323  13.238 -0.2965 -0.0841 -0.0201
14622TIP3    H165357   4.450   6.244  13.290 -1.7450 -0.4444 -0.9863
14622TIP3    H265358   4.487   6.290  13.151  0.8062  0.5756 -0.0371
14623TIP3   OH265359   1.653   4.798  11.499  0.1448 -0.5388 -0.1099
14623TIP3    H165360   1.563   4.825  11.482  0.3944  0.2447 -0.2527
14623TIP3    H265361   1.651   4.702  11.494 -0.9052 -0.6005  1.0723
14624TIP3   OH265362   0.405   3.224   0.982  0.6587  0.3886  0.1066
14624TIP3    H165363   0.343   3.208   0.911  0.6258 -1.3270  0.4777
14624TIP3    H265364   0.350   3.255   1.055  0.7016  2.2203 -0.5735
14625TIP3   OH265365   6.033   1.606   4.252 -0.1878  0.8626 -0.3153
14625TIP3    H165366   5.946   1.570   4.231 -0.2624 -0.4834  1.9349
14625TIP3    H265367   6.088   1.529   4.267  1.1157  1.7099 -0.5759
14626TIP3   OH265368   6.758   3.426   3.106 -0.4026  0.4260  0.8856
14626TIP3    H165369   6.720   3.397   3.023  0.9579  0.3243  0.2632
14626TIP3    H265370   6.716   3.372   3.172  1.0415 -2.0540 -0.1041
14627TIP3   OH265371   2.373   5.661  12.939  0.2060 -0.1997  0.2099
14627TIP3    H165372   2.437   5.648  13.009 -0.0746 -0.1075  0.4832
14627TIP3    H265373   2.335   5.747  12.956 -0.3525 -0.4677  0.3381
14628TIP3   OH265374   4.870   1.782   3.062  0.0969  0.1114  0.3275
14628TIP3    H165375   4.875   1.695   3.102  0.0036  0.6227  1.5047
14628TIP3    H265376   4.961   1.813   3.062  0.2927 -0.3914 -1.0830
14629TIP3   OH265377   5.497   1.497   1.826 -0.3324 -0.2358 -0.5111
14629TIP3    H165378   5.465   1.578   1.867 -0.0052 -0.1169 -0.4898
14629TIP3    H265379   5.573   1.472   1.879  0.6861  0.4341 -1.6024
14630TIP3   OH265380   1.711   0.680   3.661  0.0677  0.4650 -0.4265
14630TIP3    H165381   1.693   0.599   3.614 -2.6812 -1.1444  2.9299
14630TIP3    H265382   1.673   0.749   3.607 -1.2968 -1.0351 -1.4609
14631TIP3   OH265383   0.970   0.419  11.707  0.3402 -0.8099 -0.6248
14631TIP3    H165384   0.975   0.430  11.802 -0.6247  0.2028 -0.6768
14631TIP3    H265385   0.926   0.335  11.695  2.0712 -1.8283 -0.2044
14632TIP3   OH265386   0.644   5.891  13.616  0.4589 -0.2894 -0.1192
14632TIP3    H165387   0.675   5.822  13.558  0.7432  0.1431 -0.4949
14632TIP3    H265388   0.625   5.847  13.698  0.2166 -0.8817 -0.4911
14633TIP3   OH265389   3.992   3.575   1.597 -0.8440  0.0414  0.1863
14633TIP3    H165390   3.961   3.488   1.575  1.0532 -0.1365 -2.0930
14633TIP3    H265391   3.951   3.632   1.532 -1.1601  0.7097  0.9511
14634TIP3   OH265392   4.694   2.123   0.112  0.4105 -0.2189 -0.0734
14634TIP3    H165393   4.717   2.180   0.039 -1.8465 -0.1616 -0.8344
14634TIP3    H265394   4.698   2.035   0.077 -0.3132 -0.2168 -0.1726
14635TIP3   OH265395   6.491   1.600   1.747 -0.2052 -0.2825 -0.6595
14635TIP3    H165396   6.501   1.531   1.682 -0.3261 -0.1502 -0.8189
14635TIP3    H265397   6.542   1.673   1.712  0.0390 -0.3366 -0.4231
14636TIP3   OH265398   5.536   6.652   0.112 -0.1108  0.4574 -0.2895
14636TIP3    H165399   5.598   6.723   0.130  0.8599 -0.0853 -1.3389
14636TIP3    H265400   5.514   6.664   0.019  0.9195 -1.2318 -0.7847
14637TIP3   OH265401   1.983   6.456   3.043 -0.1696 -0.3484 -0.1998
14637TIP3    H165402   1.887   6.454   3.046 -0.1569 -0.8147  0.0102
14637TIP3    H265403   2.004   6.430   2.954 -0.2532  0.4874 -0.4681
14638TIP3   OH265404   4.458   2.129  16.775  0.4276 -0.2611  0.3146
14638TIP3    H165405   4.537   2.074  16.774 -1.5759 -3.4103 -1.0826
14638TIP3    H265406   4.415   2.109  16.858  0.1289 -0.0995  0.1994
14639TIP3   OH265407   6.152   0.818  12.871  0.2623  0.4136  0.7743
14639TIP3    H165408   6.241   0.787  12.884  0.9899  2.1171  0.1944
14639TIP3    H265409   6.104   0.741  12.841  1.3066 -0.7412  1.9468
14640TIP3   OH265410   1.527   2.614  11.205 -0.4588  0.2036  0.8453
14640TIP3    H165411   1.485   2.548  11.261 -0.6564  0.0653  0.5391
14640TIP3    H265412   1.596   2.567  11.160 -1.3847 -0.0956 -0.2929
14641TIP3   OH265413   1.375   0.468  17.098  0.0087  0.3097  0.3560
14641TIP3    H165414   1.391   0.499  17.009  0.3405 -1.3183 -0.1678
14641TIP3    H265415   1.424   0.529  17.153 -0.6046  1.6430 -0.4983
14642TIP3   OH265416   4.692   6.728  14.682  0.2466 -0.2929 -0.4741
14642TIP3    H165417   4.666   6.788  14.612  0.1633  1.7971  1.2531
14642TIP3    H265418   4.633   6.653  14.673 -0.2013  0.2240 -2.2015
14643TIP3   OH265419   5.965   3.788   6.248  0.0005 -0.0560 -0.1054
14643TIP3    H165420   5.972   3.711   6.191  0.9387 -0.3651  0.4104
14643TIP3    H265421   5.895   3.840   6.209  1.2574  0.2222 -2.1262
14644TIP3   OH265422   0.908   3.996   5.022 -0.3204  0.1712  0.1285
14644TIP3    H165423   0.982   4.016   4.965 -0.5959  2.0442  0.3607
14644TIP3    H265424   0.834   3.985   4.962 -0.4410  1.2945  0.0562
14645TIP3   OH265425   5.354   0.769  15.479 -0.0473 -0.6958 -0.3568
14645TIP3    H165426   5.351   0.778  15.574 -1.2151  0.3344 -0.4694
14645TIP3    H265427   5.319   0.681  15.463 -1.7651 -0.1391  0.0959
14646TIP3   OH265428   3.136   4.379  11.144  0.4133  0.6657  0.0348
14646TIP3    H165429   3.137   4.294  11.102  0.5370  0.4926  0.3811
14646TIP3    H265430   3.044   4.398  11.159  0.2731  1.3584 -1.5606
14647TIP3   OH265431   6.456   3.640   5.145  0.1572  0.2534  0.1587
14647TIP3    H165432   6.514   3.616   5.217  0.8656 -1.4549 -0.9296
14647TIP3    H265433   6.371   3.603   5.170  0.6321 -1.1899 -0.3013
14648TIP3   OH265434   5.749   5.753  16.698  0.4104  0.7986 -0.4265
14648TIP3    H165435   5.789   5.828  16.741  3.0835 -0.4473 -0.5762
14648TIP3    H265436   5.760   5.770  16.605  3.2886 -0.7841 -0.4785
14649TIP3   OH265437   0.614   3.702  15.042  0.0813  0.2646  0.1650
14649TIP3    H165438   0.520   3.704  15.059 -0.2313 -1.3693 -1.0353
14649TIP3    H265439   0.644   3.620  15.082  0.4525 -0.5452 -1.6663
14650TIP3   OH265440   1.106   2.323   1.391 -0.4634 -0.7388  0.5044
14650TIP3    H165441   1.141   2.240   1.359  0.5318 -0.7292  1.5034
14650TIP3    H265442   1.135   2.387   1.326 -0.6737 -1.0781  0.0720
14651TIP3   OH265443   6.132   2.440   4.612 -0.3847 -0.0321  0.6457
14651TIP3    H165444   6.178   2.438   4.528  2.0325  1.7923  1.8091
14651TIP3    H265445   6.130   2.349   4.641  0.3222 -0.4559 -0.5763
14652TIP3   OH265446   6.003   4.253   0.766 -0.0197 -0.1672 -0.8623
14652TIP3    H165447   6.012   4.308   0.843  1.3269 -0.3072 -0.8911
14652TIP3    H265448   6.092   4.226   0.745 -0.3970 -0.4364 -2.2530
14653TIP3   OH265449   5.849   2.738  12.225 -0.1084 -0.2434 -0.1136
14653TIP3    H165450   5.767   2.760  12.269 -0.3789 -1.7851  0.2149
14653TIP3    H265451   5.841   2.778  12.138 -1.4958 -0.9185 -0.3259
14654TIP3   OH265452   2.117   5.449  15.365  0.7538  0.1400  0.0724
14654TIP3    H165453   2.121   5.436  15.271  1.0412  0.6284  0.0196
14654TIP3    H265454   2.094   5.541  15.376  1.2482  0.2156  0.4853
14655TIP3   OH265455   3.591   3.007   3.196 -0.7406 -0.1497  0.4128
14655TIP3    H165456   3.562   3.000   3.105 -2.0728  0.0731  0.8032
14655TIP3    H265457   3.525   2.960   3.246  0.4958 -1.1314  1.2045
14656TIP3   OH265458   4.246   2.594  13.779 -0.1241 -0.0054  0.0075
14656TIP3    H165459   4.252   2.688  13.765 -0.5613 -0.1981 -1.6938
14656TIP3    H265460   4.192   2.562  13.706 -1.0972 -1.4095  1.2791
14657TIP3   OH265461   5.221   3.712   0.092 -0.1216  0.5978 -0.2681
14657TIP3    H165462   5.227   3.771   0.168  1.5214 -0.8036  0.7605
14657TIP3    H265463   5.136   3.669   0.103 -1.8009  3.3650 -1.5682
14658TIP3   OH265464   0.640   4.005   4.563  0.0850 -0.0826 -0.5221
14658TIP3    H165465   0.696   4.074   4.529  0.9157 -1.3916 -1.9640
14658TIP3    H265466   0.626   3.947   4.489 -2.2810 -0.4170  0.0940
14659TIP3   OH265467   3.954   2.619  14.432  0.2127  0.6602  0.1143
14659TIP3    H165468   3.921   2.557  14.367 -1.3932  1.1904  0.3664
14659TIP3    H265469   3.884   2.624  14.497  0.5695  2.2601  0.4166
14660TIP3   OH265470   6.415   2.155   2.861  0.5290 -0.2679  0.1631
14660TIP3    H165471   6.425   2.250   2.868  2.5753 -0.4314  0.2223
14660TIP3    H265472   6.369   2.142   2.778  2.3103  0.7504 -1.0680
14661TIP3   OH265473   3.541   2.100  13.684  0.2084  0.4339  0.2742
14661TIP3    H165474   3.505   2.111  13.596 -0.2448 -0.2207  0.3693
14661TIP3    H265475   3.555   2.190  13.716 -0.3833  0.6868 -0.1603
14662TIP3   OH265476   2.415   3.231  10.884  0.4404 -1.0666 -0.1359
14662TIP3    H165477   2.384   3.278  10.807  1.9351  1.6717  0.8104
14662TIP3    H265478   2.501   3.197  10.858  0.9321 -0.1666  0.2771
14663TIP3   OH265479   6.845   2.317   1.345 -0.5808 -0.4948  0.3143
14663TIP3    H165480   6.874   2.229   1.368 -1.0871 -0.9831 -0.8151
14663TIP3    H265481   6.826   2.312   1.251  1.2791  1.3443 -0.2267
14664TIP3   OH265482   4.324   5.442   4.513  0.0616 -0.4195 -0.0755
14664TIP3    H165483   4.259   5.465   4.446  1.5598 -0.6936 -1.7088
14664TIP3    H265484   4.354   5.526   4.547 -2.3772 -0.2748  2.0810
14665TIP3   OH265485   6.820   5.006  14.724  0.0367 -0.2652  0.0024
14665TIP3    H165486   6.810   4.948  14.648 -0.9771  0.7028 -0.6408
14665TIP3    H265487   6.777   4.959  14.796  0.6618 -1.0169 -0.1044
14666TIP3   OH265488   3.349   1.131   4.335  0.0277  0.1642  0.1122
14666TIP3    H165489   3.341   1.176   4.250 -0.1062  1.4903  0.8067
14666TIP3    H265490   3.263   1.142   4.375  0.8012  1.7187  1.4505
14667TIP3   OH265491   2.549   1.069   0.209 -0.1302  0.2346  0.1095
14667TIP3    H165492   2.521   0.980   0.186  2.7786 -0.3152 -1.8614
14667TIP3    H265493   2.542   1.118   0.127 -1.9261  1.9871  1.2197
14668TIP3   OH265494   3.559   1.112  14.099  0.4530 -0.0400  0.3079
14668TIP3    H165495   3.480   1.071  14.063  1.2524 -1.6026  0.2309
14668TIP3    H265496   3.547   1.205  14.084 -0.6657 -0.3804 -1.1382
14669TIP3   OH265497   0.746   3.676  14.733  0.2986 -0.3300 -0.4588
14669TIP3    H165498   0.692   3.608  14.773 -0.6827  0.5646 -0.2045
14669TIP3    H265499   0.689   3.717  14.668  1.5214 -1.0344 -2.0375
14670TIP3   OH265500   1.708   5.754  16.078  0.1012  0.1083  0.6790
14670TIP3    H165501   1.666   5.803  16.148 -0.4165 -0.8712  1.0561
14670TIP3    H265502   1.747   5.822  16.022  0.3618  0.9042  1.7965
14671TIP3   OH265503   1.199   6.636   0.906 -0.3654  0.0611  0.3959
14671TIP3    H165504   1.104   6.653   0.902 -0.2704  0.4268 -0.4752
14671TIP3    H265505   1.211   6.556   0.856 -0.1989  0.0739  0.4169
14672TIP3   OH265506   5.485   3.419   5.946 -0.1181 -0.1187  0.6311
14672TIP3    H165507   5.422   3.447   6.013 -2.1068  0.6819 -1.4303
14672TIP3    H265508   5.456   3.331   5.921 -1.1226  0.6254 -1.0090
14673TIP3   OH265509   2.139   6.803  10.949  0.6132 -0.0771 -0.6238
14673TIP3    H165510   2.147   6.899  10.944  0.7931  0.0080  0.9413
14673TIP3    H265511   2.229   6.772  10.949  0.8921  0.1107  3.7838
14674TIP3   OH265512   5.403   6.489  15.302 -0.2924  0.3294  0.9003
14674TIP3    H165513   5.379   6.514  15.213  1.4757  0.2476  0.3741
14674TIP3    H265514   5.398   6.393  15.302  0.5805  0.2757  0.6076
14675TIP3   OH265515   2.492   4.574   4.470 -0.2710  0.5090 -0.1544
14675TIP3    H165516   2.577   4.615   4.478 -0.4475  1.2248 -1.6765
14675TIP3    H265517   2.484   4.519   4.548  0.9913  1.4817  0.6794
14676TIP3   OH265518   0.512   4.479  15.353  0.4528 -0.1995  0.1154
14676TIP3    H165519   0.576   4.507  15.418 -0.9131 -0.1635  1.5170
14676TIP3    H265520   0.508   4.384  15.363  1.9143 -0.4979 -1.5955
14677TIP3   OH265521   0.309   6.254  11.909  0.1819 -0.0091  0.5504
14677TIP3    H165522   0.381   6.241  11.847 -1.5162  0.1678 -1.6060
14677TIP3    H265523   0.293   6.168  11.946  0.9132 -0.2388  0.3466
14678TIP3   OH265524   5.790   1.059   0.935  0.3883  0.1694  0.5830
14678TIP3    H165525   5.725   1.001   0.897  2.5837 -2.2152  0.2315
14678TIP3    H265526   5.811   1.121   0.865 -0.8644  0.4669  0.4483
14679TIP3   OH265527   3.722   3.573  11.318 -0.4370  0.2310  0.1012
14679TIP3    H165528   3.641   3.585  11.270 -1.2576  2.4323  1.8366
14679TIP3    H265529   3.725   3.479  11.339 -1.1679 -0.3512 -2.1609
14680TIP3   OH265530   6.795   1.457  16.295 -0.0180  0.1404 -0.5894
14680TIP3    H165531   6.834   1.424  16.214 -0.8028 -0.3244 -0.7868
14680TIP3    H265532   6.804   1.385  16.357 -0.0999  0.2220 -0.4832
14681TIP3   OH265533   1.511   0.687  14.316  0.0890  0.4763 -0.2553
14681TIP3    H165534   1.603   0.695  14.342  0.1108 -0.8376  0.1385
14681TIP3    H265535   1.463   0.725  14.390  0.1569 -3.1803  1.8997
14682TIP3   OH265536   0.015   3.666  15.549 -0.0424 -0.2775 -0.4801
14682TIP3    H165537  -0.072   3.661  15.510  0.0003 -1.4374 -0.4554
14682TIP3    H265538   0.019   3.593  15.611  0.7258  0.1335 -0.0166
14683TIP3   OH265539   0.539   0.623  12.813  0.6299 -0.3921 -0.6930
14683TIP3    H165540   0.585   0.539  12.817  0.0013 -0.7805 -1.4720
14683TIP3    H265541   0.607   0.688  12.831  1.1610 -1.0477 -0.2671
14684TIP3   OH265542   5.996   3.575   4.959 -0.2734  0.6208  0.2309
14684TIP3    H165543   5.915   3.575   4.908 -0.5031  2.1590  0.5398
14684TIP3    H265544   5.971   3.539   5.044  0.2015 -2.3392 -0.7935
14685TIP3   OH265545   6.813   3.647  10.686  0.2158  0.1454 -0.2572
14685TIP3    H165546   6.849   3.686  10.607  0.5189  1.9936  0.7178
14685TIP3    H265547   6.728   3.691  10.698 -0.5920 -1.3143 -0.4246
14686TIP3   OH265548   3.010   5.921   3.548  0.0731  0.2354  0.3749
14686TIP3    H165549   3.012   5.840   3.497  4.4944 -0.6543  1.5671
14686TIP3    H265550   3.004   5.991   3.482  0.9179 -0.9538 -1.0129
14687TIP3   OH265551   4.200   0.992   4.118 -0.1675 -0.5445 -0.0955
14687TIP3    H165552   4.184   1.051   4.192  0.2234  0.4420 -0.7763
14687TIP3    H265553   4.295   0.992   4.108 -0.1686 -1.2670 -0.1291
14688TIP3   OH265554   2.131   1.525  12.033 -0.1598 -0.1292 -0.3774
14688TIP3    H165555   2.143   1.468  11.957  1.1407 -0.0684 -0.2348
14688TIP3    H265556   2.176   1.607  12.010 -0.8004  0.3350 -0.0212
14689TIP3   OH265557   0.739   4.805   5.556 -0.1584  0.2136 -0.3243
14689TIP3    H165558   0.678   4.878   5.559 -1.6057 -0.9447  2.6312
14689TIP3    H265559   0.688   4.733   5.517 -0.8804 -0.7934  2.2695
14690TIP3   OH265560   6.669   0.820   5.773  0.2966 -0.0175 -0.3252
14690TIP3    H165561   6.712   0.751   5.722 -0.7045  0.5888 -2.1171
14690TIP3    H265562   6.705   0.902   5.738 -0.6916  0.4306 -0.3329
14691TIP3   OH265563   3.448   4.167   3.545  0.0229 -0.3294 -0.5803
14691TIP3    H165564   3.402   4.117   3.478 -2.5049 -1.5622  1.8887
14691TIP3    H265565   3.470   4.103   3.613 -0.4828  1.3082  1.2338
14692TIP3   OH265566   2.790   2.388   0.275  0.5857 -0.0024 -0.1569
14692TIP3    H165567   2.756   2.350   0.193  0.0955  1.2794 -0.5803
14692TIP3    H265568   2.747   2.473   0.281 -1.2187 -0.9812  2.6596
14693TIP3   OH265569   6.390   5.907   0.150  0.0125 -0.7909  0.3205
14693TIP3    H165570   6.362   5.955   0.228  0.9976 -2.2744  1.6741
14693TIP3    H265571   6.451   5.965   0.106 -1.1724  0.3935  0.1857
14694TIP3   OH265572   1.131   3.580  16.829  0.1675 -0.5217 -0.3194
14694TIP3    H165573   1.037   3.565  16.819 -0.1337  0.4084  0.9959
14694TIP3    H265574   1.153   3.539  16.912  0.3678  1.5294  0.7006
14695TIP3   OH265575   5.906   5.326  12.569 -0.0628  0.1188  0.0622
14695TIP3    H165576   5.945   5.299  12.485 -0.5597  0.9025 -0.4321
14695TIP3    H265577   5.860   5.248  12.600 -1.1325  0.2308 -1.1459
14696TIP3   OH265578   0.385   5.615   5.069  0.0156 -0.4298 -0.7532
14696TIP3    H165579   0.331   5.562   5.128 -0.0581 -0.0060 -0.4367
14696TIP3    H265580   0.353   5.593   4.981 -0.1854 -0.7173 -0.6117
14697TIP3   OH265581   5.374   2.227   3.625  0.5429  0.2119 -0.0009
14697TIP3    H165582   5.335   2.286   3.561  0.2260 -0.9077 -0.8695
14697TIP3    H265583   5.306   2.214   3.691  0.3200  0.1630 -0.2418
14698TIP3   OH265584   0.903   1.491  15.878  0.0929  0.1770 -0.0683
14698TIP3    H165585   0.922   1.488  15.785 -1.2957 -3.1068 -0.3830
14698TIP3    H265586   0.981   1.454  15.920 -0.6074 -1.7637 -0.3368
14699TIP3   OH265587   1.628   0.082  15.720 -0.1463  0.1856 -0.0532
14699TIP3    H165588   1.664   0.069  15.808 -0.6263 -2.3957 -0.1583
14699TIP3    H265589   1.537   0.054  15.727 -0.9618  2.4064 -0.8270
14700TIP3   OH265590   3.816   0.001  11.734 -0.3044 -0.0664 -0.6992
14700TIP3    H165591   3.885   0.040  11.788 -0.0914 -2.1269  0.6004
14700TIP3    H265592   3.755   0.073  11.718  0.4238  0.9925  0.9844
14701TIP3   OH265593   3.815   2.614  15.698  0.5621 -0.0010  0.2671
14701TIP3    H165594   3.832   2.537  15.752 -1.6167  0.2619  1.4303
14701TIP3    H265595   3.863   2.684  15.740  2.7129 -0.6877 -0.9013
14702TIP3   OH265596   6.033   0.208  16.844 -0.1817  0.0582 -0.7135
14702TIP3    H165597   6.026   0.166  16.758 -1.5657  0.7373 -0.9455
14702TIP3    H265598   6.028   0.301  16.826 -1.2967  0.1918  0.1637
14703TIP3   OH265599   0.067   0.326   4.156 -0.6355  0.1380 -0.0950
14703TIP3    H165600   0.119   0.391   4.203 -1.3957  1.1520 -0.6274
14703TIP3    H265601  -0.024   0.351   4.173 -0.9464  0.5810 -2.1238
14704TIP3   OH265602   2.060   3.465   3.647  0.0596 -0.2273 -0.8959
14704TIP3    H165603   2.090   3.387   3.694  1.9589  0.4669 -0.8830
14704TIP3    H265604   2.122   3.533   3.671 -1.4851  1.3050 -1.0011
14705TIP3   OH265605   2.071   2.467   4.004 -0.1502  0.1654  0.1747
14705TIP3    H165606   2.126   2.467   3.926 -0.4015 -0.0401 -0.0030
14705TIP3    H265607   2.094   2.386   4.049 -0.0381  0.2618  0.2928
14706TIP3   OH265608   2.399   2.831  13.754 -0.1673 -0.4589 -0.5261
14706TIP3    H165609   2.354   2.818  13.837 -0.0931  1.5050 -0.1385
14706TIP3    H265610   2.340   2.886  13.702  1.1572  1.0423 -0.5078
14707TIP3   OH265611   2.071   0.516  13.358  0.5942 -0.1972  0.0391
14707TIP3    H165612   2.164   0.532  13.341  0.5595 -0.1443 -0.1054
14707TIP3    H265613   2.054   0.430  13.319  0.3494  0.2329 -0.8388
14708TIP3   OH265614   3.595   6.300  12.208  0.1557 -0.2974 -0.0739
14708TIP3    H165615   3.552   6.352  12.141  0.5503 -0.1339 -0.2066
14708TIP3    H265616   3.685   6.333  12.209  0.4017 -0.9581 -0.1356
14709TIP3   OH265617   1.340   5.641   5.653  0.1723  0.1187 -0.1000
14709TIP3    H165618   1.341   5.551   5.620 -0.1214  0.1323 -0.1553
14709TIP3    H265619   1.297   5.636   5.738 -0.5259  0.3001 -0.4228
14710TIP3   OH265620   1.749   3.849  14.701 -0.3941  0.5581 -0.2082
14710TIP3    H165621   1.842   3.868  14.690 -0.3359 -0.1382 -1.0585
14710TIP3    H265622   1.704   3.915  14.647 -0.2172 -1.1856 -2.6698
14711TIP3   OH265623   3.425   3.219   3.845  0.3418  0.1259  0.2202
14711TIP3    H165624   3.450   3.129   3.827 -2.2265 -0.3798 -1.2630
14711TIP3    H265625   3.407   3.221   3.939 -0.8884 -1.2784  0.0373
14712TIP3   OH265626   3.539   4.656   4.960  0.0468 -0.4658 -0.0326
14712TIP3    H165627   3.533   4.702   5.043 -0.0764 -0.6275  0.0473
14712TIP3    H265628   3.625   4.614   4.963 -0.1121 -0.7787  0.1719
14713TIP3   OH265629   1.565   1.584   4.139  0.0742 -0.4523 -0.4308
14713TIP3    H165630   1.529   1.524   4.074 -0.3470  1.6797 -2.2931
14713TIP3    H265631   1.596   1.659   4.088 -0.3146  1.3527  1.8296
14714TIP3   OH265632   1.092   2.228  11.258  0.0063  0.4287  0.7308
14714TIP3    H165633   1.184   2.250  11.277 -0.5757  3.4742  0.5569
14714TIP3    H265634   1.086   2.233  11.163 -0.1010 -0.9891  0.6527
14715TIP3   OH265635   6.033   4.386  13.476 -0.3444  0.2061  0.5081
14715TIP3    H165636   6.107   4.389  13.416  0.9234  0.3027  2.0196
14715TIP3    H265637   6.009   4.294  13.480  0.8430 -0.0945  1.3092
14716TIP3   OH265638   4.098   0.513   1.907  0.7610 -0.0704  0.5396
14716TIP3    H165639   4.034   0.553   1.848  0.9189 -0.7718 -0.1126
14716TIP3    H265640   4.145   0.450   1.853  1.5685 -0.0322  1.1776
14717TIP3   OH265641   4.343   1.273  15.571  0.8527 -0.2432 -0.0160
14717TIP3    H165642   4.317   1.195  15.523 -1.3796  0.7963 -0.6392
14717TIP3    H265643   4.314   1.346  15.517  1.7894  1.0266  1.1106
14718TIP3   OH265644   1.228   5.945  15.789 -0.6006  0.3067  0.0709
14718TIP3    H165645   1.142   5.914  15.817  0.4533 -2.4905  0.5615
14718TIP3    H265646   1.255   5.882  15.722  1.3966  0.6068  0.5377
14719TIP3   OH265647   0.115   1.155   4.873 -0.0772  0.0684 -0.2967
14719TIP3    H165648   0.173   1.085   4.902  1.0973  1.9357  2.2453
14719TIP3    H265649   0.027   1.123   4.893  0.4674 -0.4489  1.4167
14720TIP3   OH265650   3.529   6.584  14.758  0.5336  0.1220 -0.0154
14720TIP3    H165651   3.439   6.612  14.746  0.6618  1.0506  0.9699
14720TIP3    H265652   3.581   6.646  14.706  0.5297 -1.4394 -1.9678
14721TIP3   OH265653   4.560   4.596  12.338  0.5254  1.2275 -0.3230
14721TIP3    H165654   4.524   4.543  12.409  0.1342 -0.8093 -1.9534
14721TIP3    H265655   4.651   4.610  12.361  0.9593 -1.1791 -0.3510
14722TIP3   OH265656   2.690   6.544   4.254 -0.2420 -0.4718 -0.1030
14722TIP3    H165657   2.762   6.577   4.309 -0.6118 -0.0310  0.1304
14722TIP3    H265658   2.707   6.582   4.168 -0.3708 -0.0874  0.0350
14723TIP3   OH265659   3.842   3.226   5.488 -0.0044  0.2648 -0.6776
14723TIP3    H165660   3.792   3.237   5.569  1.5624  0.4984  0.2895
14723TIP3    H265661   3.793   3.159   5.439 -1.8070  1.2179 -0.2621
14724TIP3   OH265662   5.838   1.010  13.812 -0.8775  0.2304 -0.3509
14724TIP3    H165663   5.789   1.083  13.851 -1.0370  0.0891 -0.2873
14724TIP3    H265664   5.774   0.963  13.761 -0.2485  1.6476 -2.5902
14725TIP3   OH265665   1.680   4.368  13.928 -0.5189  0.3196 -0.1401
14725TIP3    H165666   1.685   4.350  14.022 -0.2491  0.4450 -0.1282
14725TIP3    H265667   1.769   4.353  13.896 -0.7706 -0.4217 -0.5066
14726TIP3   OH265668   0.851   6.679   3.409 -0.6164 -0.1194  0.2952
14726TIP3    H165669   0.874   6.636   3.492  0.5136  0.3581  0.2471
14726TIP3    H265670   0.928   6.668   3.354 -0.7107  1.0302 -0.1032
14727TIP3   OH265671   3.825   5.688   4.842  0.3639 -0.2686  0.0576
14727TIP3    H165672   3.865   5.685   4.929  1.2194  2.4725 -0.1600
14727TIP3    H265673   3.749   5.745   4.852 -2.3802 -3.5519 -0.0735
14728TIP3   OH265674   2.561   3.692  11.859 -0.3902 -0.0632 -0.3398
14728TIP3    H165675   2.639   3.687  11.805  0.0785  1.1465  0.1836
14728TIP3    H265676   2.546   3.602  11.888 -1.0586 -0.8850 -2.9704
14729TIP3   OH265677   1.600   6.556  12.658 -0.2382 -0.3172 -0.6782
14729TIP3    H165678   1.644   6.510  12.586 -0.4124 -0.7033 -0.5385
14729TIP3    H265679   1.573   6.487  12.718 -0.3808 -0.0201 -0.3975
14730TIP3   OH265680   6.063   4.267   5.152  0.9079 -0.4650  0.0934
14730TIP3    H165681   6.026   4.252   5.239  0.4012 -1.8109 -0.3254
14730TIP3    H265682   6.041   4.358   5.132 -0.8948 -0.7591  0.4938
14731TIP3   OH265683   3.389   6.134  12.322  0.3028  0.2160  0.5275
14731TIP3    H165684   3.339   6.112  12.244  1.1986 -0.8898  0.2477
14731TIP3    H265685   3.466   6.181  12.288  1.0548 -0.8917  0.6642
14732TIP3   OH265686   5.603   1.062  12.300  0.4650 -0.1530  0.2261
14732TIP3    H165687   5.630   1.041  12.211 -0.7777  3.7871 -1.2813
14732TIP3    H265688   5.544   0.991  12.325  1.0307 -1.4889 -1.9800
14733TIP3   OH265689   3.943   0.474   0.931  0.2499 -0.1952  0.2384
14733TIP3    H165690   3.887   0.525   0.989  0.2240 -1.4213  1.3405
14733TIP3    H265691   3.974   0.537   0.865  0.9010  1.4371  2.0123
14734TIP3   OH265692   5.910   2.670  15.299  0.5921  0.6358 -0.2599
14734TIP3    H165693   5.871   2.744  15.252  0.1787  0.4739 -0.1751
14734TIP3    H265694   5.897   2.595  15.241  0.5229  0.5278 -0.1061
14735TIP3   OH265695   1.473   6.302   3.212 -0.3032 -0.1504  0.1811
14735TIP3    H165696   1.547   6.353   3.246 -0.0975 -1.2003  1.3558
14735TIP3    H265697   1.505   6.212   3.209 -1.0489 -0.4067 -0.7650
14736TIP3   OH265698   1.714   1.321   6.295 -0.4648  0.3620 -0.5019
14736TIP3    H165699   1.619   1.314   6.304 -0.3836  0.8463  1.1367
14736TIP3    H265700   1.738   1.396   6.350  1.0560 -1.0342  0.8653
14737TIP3   OH265701   3.176   5.563   4.097  0.0523 -0.2934 -0.4704
14737TIP3    H165702   3.225   5.623   4.042  0.5903  0.3118  0.6418
14737TIP3    H265703   3.087   5.599   4.099  0.5620  0.9642  0.8578
14738TIP3   OH265704   5.549   3.834  11.844  0.1864 -0.5865  0.4591
14738TIP3    H165705   5.546   3.758  11.903  0.6343  0.8720  2.4873
14738TIP3    H265706   5.479   3.892  11.877  1.5500  1.0028  0.6819
14739TIP3   OH265707   0.270   6.151  15.237 -0.4733 -0.1756 -0.0207
14739TIP3    H165708   0.243   6.125  15.148 -0.2435 -1.1099  0.1724
14739TIP3    H265709   0.190   6.181  15.278 -0.9783 -1.5972  0.0839
14740TIP3   OH265710   2.529   5.079   3.287  0.1455  0.6078  1.0164
14740TIP3    H165711   2.465   5.129   3.337 -0.9233  0.7548 -0.4409
14740TIP3    H265712   2.524   4.991   3.325  0.6267  1.1003  2.2939
14741TIP3   OH265713   3.500   3.539  14.224 -0.0162 -0.4282 -0.7252
14741TIP3    H165714   3.489   3.613  14.165  0.3374  0.9158  0.8308
14741TIP3    H265715   3.554   3.573  14.296 -1.4769 -1.6162  1.0317
14742TIP3   OH265716   3.218   5.400   1.111  0.1764  0.6608 -0.1103
14742TIP3    H165717   3.123   5.389   1.122  0.1509  1.9391  1.2534
14742TIP3    H265718   3.251   5.311   1.100 -1.1896  0.2065 -0.7657
14743TIP3   OH265719   3.983   4.582   1.176  0.4399  0.1788 -0.0505
14743TIP3    H165720   4.036   4.546   1.247 -0.9392 -1.5044  0.1977
14743TIP3    H265721   4.032   4.561   1.096  0.6523 -0.4473  0.2392
14744TIP3   OH265722   0.023   1.415  16.641  0.0740 -0.2840 -0.3226
14744TIP3    H165723  -0.065   1.380  16.628  1.0901 -3.1346 -0.4156
14744TIP3    H265724   0.044   1.394  16.732  0.8100 -0.0752 -0.4415
14745TIP3   OH265725   4.837   1.490  13.341 -0.1107  0.2156  0.4105
14745TIP3    H165726   4.892   1.422  13.302  0.3363  0.2308  1.0043
14745TIP3    H265727   4.860   1.570  13.293 -0.4895  0.0013 -0.1491
14746TIP3   OH265728   2.959   1.391  14.754  0.0825 -0.0262  0.2849
14746TIP3    H165729   3.019   1.341  14.697 -0.0995  0.8112 -0.6710
14746TIP3    H265730   2.943   1.333  14.828  1.2727 -0.6781  0.0618
14747TIP3   OH265731   2.399   0.036   5.399  0.1864 -0.9028  0.1054
14747TIP3    H165732   2.414  -0.002   5.313 -1.4688  0.9870 -1.1108
14747TIP3    H265733   2.486   0.063   5.429  0.8992 -2.3687 -0.5375
14748TIP3   OH265734   6.314   2.747  12.749  0.3059  0.2706  0.2070
14748TIP3    H165735   6.223   2.732  12.775 -0.2780  1.1427 -1.2298
14748TIP3    H265736   6.310   2.771  12.657  2.1694 -1.2820 -0.3487
14749TIP3   OH265737   5.347   1.289   4.232  0.3861 -0.2274  0.0332
14749TIP3    H165738   5.300   1.284   4.148 -0.2819  2.4191  0.1532
14749TIP3    H265739   5.431   1.247   4.215 -0.0813 -0.5475 -1.7086
14750TIP3   OH265740   1.370   2.540  12.818  0.0593  1.0331  0.2733
14750TIP3    H165741   1.332   2.487  12.888 -0.6297  0.8305 -0.2452
14750TIP3    H265742   1.418   2.609  12.864  0.5025  0.2942  0.9545
14751TIP3   OH265743   5.478   5.239  13.983  0.0738 -0.2076 -0.5164
14751TIP3    H165744   5.412   5.240  14.052  0.3178 -0.1135 -0.2813
14751TIP3    H265745   5.514   5.150  13.985  1.0550  0.1805  0.4259
14752TIP3   OH265746   1.408   5.739   3.817  0.0783 -0.6076 -0.4102
14752TIP3    H165747   1.345   5.685   3.770 -2.5165  1.3036  0.6519
14752TIP3    H265748   1.472   5.765   3.750 -0.3148 -2.4621 -1.5613
14753TIP3   OH265749   6.184   5.160   2.930  0.3814  0.0322  0.3563
14753TIP3    H165750   6.139   5.113   2.860  0.2780  2.2486 -1.1898
14753TIP3    H265751   6.113   5.206   2.977  0.7399  1.2254 -0.2462
14754TIP3   OH265752   0.490   5.815   1.482 -0.2695  0.0589  0.2563
14754TIP3    H165753   0.430   5.790   1.412 -0.8986 -0.2848  0.9077
14754TIP3    H265754   0.434   5.827   1.558  0.2116  1.9236  0.3517
14755TIP3   OH265755   1.617   4.548   6.507  0.2447  0.0098  0.1534
14755TIP3    H165756   1.576   4.558   6.422 -0.3230  0.3236  0.4576
14755TIP3    H265757   1.550   4.508   6.562  0.3151  0.5825  0.6708
14756TIP3   OH265758   3.629   3.558  11.736 -0.1520 -0.3847 -0.2955
14756TIP3    H165759   3.671   3.547  11.821 -0.5571  1.1346  0.1307
14756TIP3    H265760   3.689   3.614  11.686 -1.0397  0.7521 -0.1277
14757TIP3   OH265761   4.178   1.959   4.119 -0.5371  0.8138 -0.2681
14757TIP3    H165762   4.239   1.964   4.046  0.4880 -1.0967  0.3711
14757TIP3    H265763   4.222   2.004   4.191 -0.6633  0.9577 -0.2802
14758TIP3   OH265764   2.574   5.343   2.256 -0.1167 -0.0596 -0.8458
14758TIP3    H165765   2.589   5.250   2.236 -0.9769 -0.1054 -1.3101
14758TIP3    H265766   2.658   5.373   2.292  0.2058 -0.9865 -0.7872
14759TIP3   OH265767   5.998   1.551  12.900 -0.3223 -0.0997  0.0640
14759TIP3    H165768   6.021   1.636  12.863 -0.8659  0.9700  2.0987
14759TIP3    H265769   6.082   1.504  12.905  0.2029  0.8540  0.2854
14760TIP3   OH265770   2.115   4.912   1.642 -0.1670  0.0018  0.0519
14760TIP3    H165771   2.199   4.913   1.688  0.1243 -1.4148 -0.3989
14760TIP3    H265772   2.060   4.972   1.691  1.3135  1.5473 -0.0514
14761TIP3   OH265773   1.952   6.673   5.495 -0.0484  0.1689 -0.3340
14761TIP3    H165774   2.005   6.746   5.525 -2.0002  1.7136 -0.4645
14761TIP3    H265775   1.985   6.655   5.407  1.3784 -0.0836  0.2211
14762TIP3   OH265776   1.442   0.348  16.031 -0.0235  0.3284  0.5452
14762TIP3    H165777   1.467   0.390  16.113 -0.7306  0.3362  0.7645
14762TIP3    H265778   1.501   0.385  15.966 -1.0172  2.1636  0.6082
14763TIP3   OH265779   0.953   5.493   0.344 -0.4943 -0.6722  0.1499
14763TIP3    H165780   0.908   5.500   0.260 -0.0906 -1.1083 -0.1048
14763TIP3    H265781   0.922   5.410   0.381  1.5336 -1.9860 -0.9054
14764TIP3   OH265782   0.512   5.599  13.023 -0.1734  0.1365  0.4175
14764TIP3    H165783   0.521   5.667  12.957  2.5194  0.6136  1.1260
14764TIP3    H265784   0.449   5.633  13.086 -1.2878  0.5143 -0.8655
14765TIP3   OH265785   4.685   5.345  16.529  0.0067  0.6704 -0.6338
14765TIP3    H165786   4.747   5.282  16.493  0.0773  0.5885 -0.3709
14765TIP3    H265787   4.621   5.359  16.459  0.6783  1.2474 -1.1480
14766TIP3   OH265788   5.875   3.917   1.548  0.0757 -0.2785 -0.2728
14766TIP3    H165789   5.969   3.908   1.565  0.3197 -0.2492 -1.5143
14766TIP3    H265790   5.836   3.921   1.635  1.3276  0.8633  0.2777
14767TIP3   OH265791   6.191   0.391  12.567 -0.2009  0.3207 -0.1835
14767TIP3    H165792   6.263   0.340  12.529 -0.3227  0.5811 -0.7742
14767TIP3    H265793   6.215   0.482  12.549 -0.9560  0.3876 -0.9034
14768TIP3   OH265794   0.388   5.354   1.302 -1.4206  0.1932 -1.2237
14768TIP3    H165795   0.404   5.414   1.375  2.0162 -0.9708 -0.8460
14768TIP3    H265796   0.395   5.267   1.340 -1.1281 -0.4393 -2.6509
14769TIP3   OH265797   4.929   2.062   1.871  0.6373 -0.3366  0.0265
14769TIP3    H165798   4.972   2.009   1.939  0.3411 -0.3919  0.1721
14769TIP3    H265799   4.845   2.019   1.857  0.7494 -0.3961 -0.4684
14770TIP3   OH265800   0.895   4.716  13.937 -0.2022  0.0362 -0.0115
14770TIP3    H165801   0.986   4.689  13.949 -0.1607 -1.0568 -2.2777
14770TIP3    H265802   0.900   4.801  13.893 -0.3010  0.0356 -0.0248
14771TIP3   OH265803   2.067   3.081  11.875  0.7173  0.3992  0.2886
14771TIP3    H165804   1.997   3.145  11.870 -0.0336 -0.3643  0.6696
14771TIP3    H265805   2.108   3.096  11.961 -0.7107 -0.8428  1.2488
14772TIP3   OH265806   6.543   4.892  17.088  0.0005 -0.4366 -0.2250
14772TIP3    H165807   6.611   4.831  17.119 -0.9146 -0.7358  1.2941
14772TIP3    H265808   6.567   4.976  17.128  1.4549  0.3883 -2.5883
14773TIP3   OH265809   6.363   1.780  15.279 -0.0956  0.0827  0.5982
14773TIP3    H165810   6.358   1.713  15.348 -0.6493 -0.8661 -0.3333
14773TIP3    H265811   6.439   1.755  15.227 -0.1696  0.3183  0.3758
14774TIP3   OH265812   5.871   3.767  13.630 -0.0550 -0.0050 -0.3700
14774TIP3    H165813   5.951   3.797  13.588 -0.5102  1.4575 -0.2255
14774TIP3    H265814   5.889   3.772  13.724  0.5522 -2.1580 -0.3049
14775TIP3   OH265815   0.905   3.327   3.412  0.5301 -0.1145 -0.0259
14775TIP3    H165816   0.969   3.322   3.341  0.8281  2.2174  0.0014
14775TIP3    H265817   0.873   3.417   3.409 -1.1666 -0.6221  1.3533
14776TIP3   OH265818   6.111   6.765   2.962 -0.3728  0.1144  0.1617
14776TIP3    H165819   6.075   6.844   3.004  1.0133  1.2028 -0.6131
14776TIP3    H265820   6.035   6.710   2.945 -1.2938  0.9610  1.3879
14777TIP3   OH265821   4.341   2.391   3.989  0.0392 -0.6988  0.1340
14777TIP3    H165822   4.430   2.372   4.017 -0.4202 -2.5933  0.4548
14777TIP3    H265823   4.290   2.394   4.070  0.0310  2.0079  0.1056
14778TIP3   OH265824   0.960   1.884   0.602  0.1926  0.0418 -0.0979
14778TIP3    H165825   0.891   1.948   0.618  0.6165  0.1164  1.6002
14778TIP3    H265826   0.998   1.910   0.518 -0.6367  1.1024 -0.1612
14779TIP3   OH265827   1.001   1.604   3.187  0.1825  0.1221 -0.7257
14779TIP3    H165828   1.018   1.573   3.276  0.1968 -0.4170 -0.9139
14779TIP3    H265829   1.085   1.640   3.158  0.2366  0.0923 -0.6066
14780TIP3   OH265830   2.976   2.031  11.320  0.0223  0.4238  0.2018
14780TIP3    H165831   2.958   2.092  11.248  0.3833  1.7023  1.1619
14780TIP3    H265832   2.914   1.959  11.306  0.3924  0.4058 -1.6405
14781TIP3   OH265833   1.954   2.777   3.767  0.7128 -0.1115  0.6833
14781TIP3    H165834   1.958   2.847   3.701  0.9956  1.2765  2.1203
14781TIP3    H265835   2.040   2.780   3.809 -0.0389  0.1806  2.2453
14782TIP3   OH265836   5.067   5.501  13.644 -0.4013  0.6590  0.0935
14782TIP3    H165837   5.143   5.558  13.656 -1.2064  1.7545  0.0701
14782TIP3    H265838   5.055   5.495  13.550  0.9311 -1.2797 -0.0176
14783TIP3   OH265839   3.577   2.221  16.912  0.2412  0.2189  0.1439
14783TIP3    H165840   3.493   2.263  16.929  0.5677  0.0873  2.2667
14783TIP3    H265841   3.639   2.293  16.903  0.1694  0.2786  0.1272
14784TIP3   OH265842   5.163   0.472   3.846  0.1628  0.7829  0.3190
14784TIP3    H165843   5.235   0.480   3.783  0.8221 -2.7974  0.4583
14784TIP3    H265844   5.200   0.500   3.929  0.2174  2.5247 -0.2506
14785TIP3   OH265845   1.834   6.497  12.502 -0.0293  0.2017 -0.7357
14785TIP3    H165846   1.822   6.499  12.407 -2.1822  0.3157 -0.5190
14785TIP3    H265847   1.929   6.498  12.515  0.3060 -0.0909 -2.8777
14786TIP3   OH265848   5.126   6.803  10.664 -0.7074 -0.1938 -0.1795
14786TIP3    H165849   5.121   6.718  10.619 -1.5298 -0.4486  0.3693
14786TIP3    H265850   5.044   6.847  10.641  0.1899  0.9514 -1.3879
14787TIP3   OH265851   3.405   1.247  11.441  0.0813 -0.1903  0.6188
14787TIP3    H165852   3.372   1.168  11.483  0.9313 -0.9771 -0.1689
14787TIP3    H265853   3.328   1.287  11.400  0.0920 -2.2167 -1.5654
14788TIP3   OH265854   0.870   0.856  14.552  0.0972  0.2572 -0.4987
14788TIP3    H165855   0.779   0.880  14.533  0.2690  0.8215 -0.6324
14788TIP3    H265856   0.877   0.765  14.523 -0.0152  0.6809 -1.9724
14789TIP3   OH265857   5.250   6.488  16.179 -0.0590 -0.0477  0.3238
14789TIP3    H165858   5.273   6.499  16.086  0.7327  1.2237  0.6539
14789TIP3    H265859   5.172   6.432  16.177  1.4443 -2.2921 -0.9694
14790TIP3   OH265860   1.712   4.814   5.325 -0.2619  0.2352 -0.3241
14790TIP3    H165861   1.736   4.754   5.256  0.3302 -0.0535  0.1260
14790TIP3    H265862   1.779   4.803   5.392 -0.5353  0.8800  0.0754
14791TIP3   OH265863   2.332   2.801  11.794  0.2959 -0.1112  0.2007
14791TIP3    H165864   2.382   2.763  11.722 -0.2267 -1.4769  0.5066
14791TIP3    H265865   2.256   2.840  11.752  0.2365 -0.4787 -0.0454
14792TIP3   OH265866   3.047   3.565   5.599  0.1677  0.0969  0.2752
14792TIP3    H165867   3.023   3.515   5.677 -2.6700  1.8554  0.6990
14792TIP3    H265868   3.096   3.640   5.633 -0.2692  0.3794  0.2969
14793TIP3   OH265869   6.630   4.927   4.286  0.4035  0.1804  0.0613
14793TIP3    H165870   6.604   4.989   4.354  1.1774 -0.5868  1.1037
14793TIP3    H265871   6.640   4.844   4.332  0.1010 -0.5670 -1.1678
14794TIP3   OH265872   2.884   5.333  11.340  0.5076 -0.0214 -0.3302
14794TIP3    H165873   2.913   5.259  11.394 -1.2219 -0.5231 -0.0220
14794TIP3    H265874   2.790   5.337  11.353  0.5755  2.5317  0.0002
14795TIP3   OH265875   6.850   0.284  15.185  0.5130 -0.4136  0.7510
14795TIP3    H165876   6.817   0.204  15.225 -0.5112 -0.6079 -0.4229
14795TIP3    H265877   6.773   0.340  15.178  0.8034 -0.1433 -0.3566
14796TIP3   OH265878   5.872   3.210   0.363 -0.5071  0.5304 -0.8390
14796TIP3    H165879   5.935   3.188   0.431 -0.1797  1.9212 -0.6649
14796TIP3    H265880   5.923   3.217   0.283 -0.8052 -0.5385 -1.1415
14797TIP3   OH265881   4.712   2.646   3.120  0.1839 -0.2031 -0.4808
14797TIP3    H165882   4.630   2.645   3.072  0.9731  1.1195 -1.9317
14797TIP3    H265883   4.708   2.724   3.175  0.7761  0.2855 -1.1250
14798TIP3   OH265884   5.457   1.903   4.637 -0.0455  0.0373 -0.0004
14798TIP3    H165885   5.544   1.885   4.671 -0.3642 -1.3443  0.1294
14798TIP3    H265886   5.408   1.936   4.712 -0.4233 -1.9209  0.6728
14799TIP3   OH265887   2.086   4.049   3.763 -1.0102  0.4163  0.1402
14799TIP3    H165888   2.073   4.075   3.855  1.5882 -1.3027  1.1033
14799TIP3    H265889   2.071   3.955   3.762  2.1195 -0.1898 -0.3968
14800TIP3   OH265890   5.316   6.453   2.148  0.1853 -0.0244  0.2085
14800TIP3    H165891   5.260   6.381   2.121  0.5520  0.6695 -2.7365
14800TIP3    H265892   5.361   6.421   2.226 -0.3034 -2.6537 -0.5012
14801TIP3   OH265893   1.992   4.533  12.065 -0.6798 -0.2188  0.2835
14801TIP3    H165894   1.926   4.542  11.996 -0.3747  3.3498  0.2676
14801TIP3    H265895   1.942   4.513  12.144 -1.6964  1.0967  0.0081
14802TIP3   OH265896   2.171   1.517  12.893  0.2220 -0.4742 -0.4172
14802TIP3    H165897   2.087   1.546  12.857 -0.2992 -0.9403  0.3967
14802TIP3    H265898   2.148   1.474  12.975  1.5318  2.6652  1.8230
14803TIP3   OH265899   5.834   1.115  14.926 -0.3137  0.6237  0.3739
14803TIP3    H165900   5.765   1.135  14.990  0.9995  0.9952  1.7062
14803TIP3    H265901   5.861   1.200  14.893  0.2333  0.5573  0.6424
14804TIP3   OH265902   5.567   4.167   0.540  0.0427  0.2222 -0.5322
14804TIP3    H165903   5.520   4.250   0.526 -0.7090  0.0863  1.0430
14804TIP3    H265904   5.644   4.191   0.591 -0.4074 -0.1068  0.3047
14805TIP3   OH265905   1.347   5.363   5.589  0.1027 -0.0697  0.1741
14805TIP3    H165906   1.389   5.317   5.516 -0.3409 -1.6577  0.8782
14805TIP3    H265907   1.253   5.352   5.573 -0.0072 -1.1598  1.3867
14806TIP3   OH265908   3.351   3.938  16.449 -0.2425 -0.5909  0.0630
14806TIP3    H165909   3.338   4.008  16.513  2.4505 -0.9843  1.1499
14806TIP3    H265910   3.422   3.969  16.394 -1.3962 -1.0107 -1.7516
14807TIP3   OH265911   2.227   6.641   3.790  0.3098  0.3457 -0.1260
14807TIP3    H165912   2.200   6.560   3.832 -0.6581  0.5550 -0.3330
14807TIP3    H265913   2.165   6.707   3.821  0.7775  0.9069 -0.3571
14808TIP3   OH265914   6.391   6.480  16.457  0.5536  0.0914 -0.6189
14808TIP3    H165915   6.412   6.555  16.512  1.1588 -0.4738 -0.0642
14808TIP3    H265916   6.322   6.434  16.504  0.2664  0.2325 -0.8994
14809TIP3   OH265917   6.152   4.848   4.380  0.3323  0.0130  0.4499
14809TIP3    H165918   6.164   4.941   4.361 -1.6910  0.0049 -1.2613
14809TIP3    H265919   6.225   4.805   4.337  0.1370  0.6716 -0.5739
14810TIP3   OH265920   2.435   6.609   1.487 -0.0971  0.1034 -0.2208
14810TIP3    H165921   2.501   6.540   1.484  0.0031 -0.2211  3.7542
14810TIP3    H265922   2.483   6.689   1.467  1.2565 -0.2944  1.2291
14811TIP3   OH265923   2.157   3.698  15.978  0.0769  0.0840  0.3336
14811TIP3    H165924   2.138   3.665  16.065 -1.0731 -1.0036 -0.2923
14811TIP3    H265925   2.179   3.619  15.927  2.4076  0.8613  0.0074
14812TIP3   OH265926   1.376   5.066   5.464 -0.1794 -0.6140 -0.0723
14812TIP3    H165927   1.371   4.978   5.501  1.4161 -1.1610 -1.0704
14812TIP3    H265928   1.467   5.076   5.437  0.0172  1.8854  1.2416
14813TIP3   OH265929   1.808   4.509   0.884  0.6325  0.0323  0.0161
14813TIP3    H165930   1.831   4.572   0.817  0.4510  0.7209  0.5906
14813TIP3    H265931   1.800   4.426   0.838 -0.2915  0.6371 -0.9454
14814TIP3   OH265932   0.560   0.439   2.838  0.2007  0.0324 -0.3008
14814TIP3    H165933   0.643   0.398   2.864 -1.1490 -2.2285  0.7555
14814TIP3    H265934   0.544   0.505   2.906  1.7966  1.5950 -1.3390
14815TIP3   OH265935   0.467   0.824   3.728  0.4322  0.3988  0.1527
14815TIP3    H165936   0.397   0.760   3.743  0.0488  0.7598 -0.0590
14815TIP3    H265937   0.490   0.813   3.636  0.9253  0.0177  0.3183
14816TIP3   OH265938   2.695   2.066   1.671  0.6055 -0.0804 -0.2015
14816TIP3    H165939   2.621   2.123   1.650  0.1467  0.5884  2.7495
14816TIP3    H265940   2.770   2.109   1.631 -0.2424  0.5840 -1.1473
14817TIP3   OH265941   2.102   4.019  14.476 -0.1815  0.5875 -0.1768
14817TIP3    H165942   2.188   4.034  14.438 -0.6950  0.3402 -1.4841
14817TIP3    H265943   2.056   3.965  14.412 -1.3069  0.7103  0.4922
14818TIP3   OH265944   2.815   2.380   2.132 -0.3674  0.0122 -0.1104
14818TIP3    H165945   2.842   2.470   2.148 -0.4839  0.1785 -0.8080
14818TIP3    H265946   2.764   2.356   2.210  1.3784 -0.1656  1.0365
14819TIP3   OH265947   1.251   2.862   3.070 -0.0171  0.4696 -0.4174
14819TIP3    H165948   1.189   2.814   3.014  0.6723 -0.2367 -0.5856
14819TIP3    H265949   1.336   2.821   3.053  0.4709  1.3051 -0.0426
14820TIP3   OH265950   5.256   0.154   4.413 -0.1154  0.5743  0.1684
14820TIP3    H165951   5.212   0.071   4.395 -1.1664  0.9987  0.7357
14820TIP3    H265952   5.313   0.135   4.487 -1.7324  0.7863  1.5208
14821TIP3   OH265953   3.418   1.282  12.661 -0.1103 -0.3660  0.0116
14821TIP3    H165954   3.370   1.294  12.580  0.1440 -0.8121 -0.2064
14821TIP3    H265955   3.404   1.364  12.709 -0.6050 -0.2650 -0.2955
14822TIP3   OH265956   6.174   5.386  12.672 -0.7523 -0.3825  0.1359
14822TIP3    H165957   6.087   5.347  12.667 -0.0004 -2.1186 -0.3950
14822TIP3    H265958   6.213   5.369  12.586  0.0065  0.6512  0.2452
14823TIP3   OH265959   1.787   3.462   2.031 -0.8184 -0.5028  0.2243
14823TIP3    H165960   1.830   3.542   2.062 -0.1826 -0.7064 -0.1104
14823TIP3    H265961   1.718   3.446   2.095 -0.7987  0.1809  0.4288
14824TIP3   OH265962   0.050   6.332  16.341  0.4163 -0.0164  0.0211
14824TIP3    H165963   0.075   6.400  16.278  1.2283  0.6002  0.9650
14824TIP3    H265964  -0.039   6.307  16.317  0.9538 -0.2907 -1.7786
14825TIP3   OH265965   6.594   0.938  15.387  0.4711  0.1946  0.2202
14825TIP3    H165966   6.585   0.989  15.306  2.3827  3.2154  1.7406
14825TIP3    H265967   6.504   0.924  15.416 -0.1973  0.3949 -1.6121
14826TIP3   OH265968   4.204   6.130  16.157  0.1400 -0.5365 -0.3630
14826TIP3    H165969   4.290   6.124  16.115 -0.2166 -0.1339 -1.1540
14826TIP3    H265970   4.223   6.163  16.245  0.5328  2.9599 -1.6057
14827TIP3   OH265971   0.138   4.532   2.019 -0.5516 -0.0052  0.0155
14827TIP3    H165972   0.123   4.537   2.113 -1.3924 -0.0476 -0.1095
14827TIP3    H265973   0.154   4.439   2.002 -1.0709 -0.0980  0.0233
14828TIP3   OH265974   4.830   2.571   1.623  0.5099 -0.1383  0.3626
14828TIP3    H165975   4.849   2.664   1.618 -1.0262  0.2819  1.4194
14828TIP3    H265976   4.735   2.567   1.634  0.5364 -1.8360  0.2308
14829TIP3   OH265977   0.141   1.202  13.907 -0.1116 -0.5318 -0.0299
14829TIP3    H165978   0.196   1.222  13.832 -0.9950 -3.3952 -1.5915
14829TIP3    H265979   0.058   1.246  13.888  0.4211  0.7700  0.5378
14830TIP3   OH265980   3.466   3.156   4.707  0.5540  0.4400  0.2307
14830TIP3    H165981   3.556   3.135   4.731  0.2519  0.6862  1.6418
14830TIP3    H265982   3.444   3.093   4.638  2.6765  2.1034 -2.1390
14831TIP3   OH265983   5.465   0.082  13.990  0.3692 -0.2856 -0.5750
14831TIP3    H165984   5.491  -0.010  13.991  0.0709 -0.3713 -0.5759
14831TIP3    H265985   5.401   0.088  13.919 -1.6556 -0.6531  1.1262
14832TIP3   OH265986   2.116   0.535  16.375 -0.4299 -0.6400 -0.2052
14832TIP3    H165987   2.113   0.483  16.294 -1.7874  0.3948 -0.8515
14832TIP3    H265988   2.143   0.622  16.347 -1.5587 -0.0956  0.3454
14833TIP3   OH265989   6.447   2.413   2.915 -0.0067  0.2005 -0.1967
14833TIP3    H165990   6.507   2.458   2.856 -0.3393  0.9270  0.0119
14833TIP3    H265991   6.409   2.482   2.969 -2.5351  0.0561 -1.6227
14834TIP3   OH265992   3.271   5.238  15.080  0.3389 -0.2509 -0.1464
14834TIP3    H165993   3.195   5.214  15.133  0.2628  0.5346  0.1128
14834TIP3    H265994   3.252   5.328  15.051  1.9307  0.6240  1.3577
14835TIP3   OH265995   1.933   3.925   5.327  0.2512  0.1548 -0.2209
14835TIP3    H165996   1.929   3.972   5.243  0.3371 -0.4811 -0.5913
14835TIP3    H265997   2.006   3.966   5.373  1.5615 -0.8268 -1.3203
14836TIP3   OH265998   5.046   2.116   3.645  0.2231  0.4026  0.1177
14836TIP3    H165999   5.049   2.198   3.694 -2.2012  0.1620  0.8018
14836TIP3    H266000   5.102   2.132   3.569  1.5486  1.8884  1.3155
14837TIP3   OH266001   5.410   1.137   2.674  0.0205 -0.0738  0.3147
14837TIP3    H166002   5.371   1.065   2.724 -0.0984 -0.2904 -0.0786
14837TIP3    H266003   5.346   1.208   2.679 -0.4349 -0.4248 -0.3197
14838TIP3   OH266004   0.701   6.276  11.916  0.0940 -0.2228  0.2455
14838TIP3    H166005   0.628   6.311  11.863  1.1128  0.3521 -0.8394
14838TIP3    H266006   0.766   6.346  11.914  0.9038 -0.9587  0.7193
14839TIP3   OH266007   1.486   4.218   4.739  1.2882 -0.3166 -0.3019
14839TIP3    H166008   1.491   4.250   4.829  1.8837 -0.3103 -0.3332
14839TIP3    H266009   1.432   4.282   4.693  2.6077  0.7680 -0.4088
14840TIP3   OH266010   0.689   5.745  13.891  0.0693 -0.1633  0.0108
14840TIP3    H166011   0.617   5.698  13.933 -0.9879  0.7186 -0.7526
14840TIP3    H266012   0.757   5.679  13.878 -1.5252 -1.6288 -1.4353
14841TIP3   OH266013   3.278   2.673   1.119 -0.4487  0.0247 -0.3958
14841TIP3    H166014   3.220   2.643   1.190 -1.3443  0.3374 -0.9778
14841TIP3    H266015   3.265   2.767   1.116 -1.0551 -0.0830 -1.5098
14842TIP3   OH266016   1.286   1.928   4.075 -0.0805 -0.1310  0.3888
14842TIP3    H166017   1.256   1.838   4.058  0.9755 -0.5481  0.6867
14842TIP3    H266018   1.263   1.944   4.166 -1.0851  0.2487  0.0900
14843TIP3   OH266019   3.364   3.520   2.497 -0.4248 -0.4440 -0.0296
14843TIP3    H166020   3.383   3.455   2.429  0.5514  0.5653 -0.7503
14843TIP3    H266021   3.379   3.604   2.455  1.4470  0.1980  1.7634
14844TIP3   OH266022   2.424   5.149  16.163 -0.3093  0.0869  0.1655
14844TIP3    H166023   2.484   5.170  16.234 -2.6066 -0.7777  2.5284
14844TIP3    H266024   2.448   5.060  16.137 -0.1328 -0.0138  0.6570
14845TIP3   OH266025   3.707   2.447  16.474  0.0645 -0.0553  0.4039
14845TIP3    H166026   3.775   2.405  16.422 -1.2131  0.5972 -1.9554
14845TIP3    H266027   3.669   2.376  16.526  0.9734 -0.8635 -0.0004
14846TIP3   OH266028   4.031   3.086  16.670 -0.1380 -0.0878  0.4628
14846TIP3    H166029   4.018   3.068  16.577  1.4037 -1.6442  0.5081
14846TIP3    H266030   3.980   3.019  16.715  1.1598 -0.9628  0.6854
14847TIP3   OH266031   4.088   0.554  16.921 -0.1237 -0.0041  0.3214
14847TIP3    H166032   4.072   0.647  16.938 -0.7468 -0.1072  0.3027
14847TIP3    H266033   4.023   0.530  16.855  0.6727 -0.2105 -0.4071
14848TIP3   OH266034   2.754   6.657  16.402 -0.3133  0.3009  0.1847
14848TIP3    H166035   2.751   6.565  16.375 -0.3630 -0.5407  2.7355
14848TIP3    H266036   2.805   6.701  16.334 -0.6812 -1.5139 -1.3387
14849TIP3   OH266037   4.750   1.243  12.369  0.2064  0.1293 -0.0838
14849TIP3    H166038   4.767   1.152  12.348 -0.4942  0.0530 -0.3682
14849TIP3    H266039   4.817   1.267  12.433 -0.3715 -0.9589  0.9800
14850TIP3   OH266040   3.221   4.317  16.765  0.0191 -0.4490 -0.5018
14850TIP3    H166041   3.238   4.403  16.804  0.3490 -1.3119  1.3571
14850TIP3    H266042   3.142   4.330  16.712 -0.0452  0.9583 -0.0912
14851TIP3   OH266043   3.452   5.114   3.122  0.5375 -0.0583  0.3576
14851TIP3    H166044   3.489   5.151   3.042 -1.5599 -0.1200 -0.6970
14851TIP3    H266045   3.509   5.147   3.192  0.7794  2.3334 -0.8556
14852TIP3   OH266046   4.218   4.231  12.494  1.2709 -0.4961  0.4491
14852TIP3    H166047   4.289   4.170  12.516  1.2121 -0.7795 -0.1471
14852TIP3    H266048   4.164   4.184  12.431  2.2765  0.8426 -1.5280
14853TIP3   OH266049   5.595   0.535   3.390  0.3382  0.3001  0.1009
14853TIP3    H166050   5.651   0.585   3.451 -0.2197  0.8295  0.1866
14853TIP3    H266051   5.597   0.446   3.424  1.8372  0.1125 -0.3973
14854TIP3   OH266052   1.054   2.542  11.749  0.1300  0.4596 -0.8787
14854TIP3    H166053   1.086   2.456  11.724 -0.2868 -0.0393  0.2459
14854TIP3    H266054   1.101   2.603  11.691  0.8163 -0.4705 -1.3242
14855TIP3   OH266055   5.336   0.709  13.015 -0.3040  0.2457  0.0358
14855TIP3    H166056   5.401   0.772  12.983  0.6505 -1.5086 -1.7236
14855TIP3    H266057   5.336   0.720  13.110  1.0187  1.7424 -0.1005
14856TIP3   OH266058   3.707   3.993  15.907  0.1318  0.0281  0.2987
14856TIP3    H166059   3.799   3.979  15.926  0.1703 -0.8558 -0.4290
14856TIP3    H266060   3.706   4.056  15.835  0.1707  0.1236  0.3833
14857TIP3   OH266061   3.401   2.174   2.130 -0.0749 -0.4923  0.0612
14857TIP3    H166062   3.340   2.148   2.061 -0.9542 -2.9962  1.6584
14857TIP3    H266063   3.351   2.232   2.187 -0.3530 -0.9383  0.2769
14858TIP3   OH266064   0.539   3.431   0.056 -0.2777 -0.8749  0.0214
14858TIP3    H166065   0.526   3.446  -0.038  1.2351 -1.1072 -0.2479
14858TIP3    H266066   0.551   3.337   0.063 -3.4782 -1.3398  0.8984
14859TIP3   OH266067   6.403   6.827   5.293 -0.3074 -0.0318 -0.2571
14859TIP3    H166068   6.330   6.774   5.262  0.0633 -0.1503 -0.9315
14859TIP3    H266069   6.362   6.907   5.326 -0.6614  0.3750 -1.6480
14860TIP3   OH266070   5.177   2.442  12.700  0.5083 -0.1591 -0.0014
14860TIP3    H166071   5.114   2.468  12.632 -0.7929 -1.3772  0.6772
14860TIP3    H266072   5.133   2.463  12.782  2.1856  1.5787  0.5161
14861TIP3   OH266073   0.769   4.413  12.848 -0.1155 -0.1331 -0.2272
14861TIP3    H166074   0.743   4.350  12.915 -0.3208  0.1281 -0.0627
14861TIP3    H266075   0.844   4.459  12.885 -0.9872  0.8656  0.3342
14862TIP3   OH266076   4.997   3.615  11.766  0.7328  0.5620  0.5206
14862TIP3    H166077   5.008   3.699  11.723  0.1182  0.0630 -0.6442
14862TIP3    H266078   5.059   3.618  11.839 -0.2182  2.5243  1.3065
14863TIP3   OH266079   6.297   5.460  15.027  0.6184  0.6842  0.4621
14863TIP3    H166080   6.322   5.379  14.983 -1.0624  0.5391 -0.3178
14863TIP3    H266081   6.359   5.469  15.099  1.5098 -0.7130 -0.0944
14864TIP3   OH266082   5.029   6.120  13.527  0.7153 -0.2004  0.4423
14864TIP3    H166083   4.982   6.166  13.597 -0.9277 -1.2042  0.0564
14864TIP3    H266084   5.060   6.190  13.470  0.6298  0.5494  1.2825
14865TIP3   OH266085   4.622   3.773   6.756  0.1799  0.3757 -0.3009
14865TIP3    H166086   4.557   3.840   6.777 -0.3311  0.4080 -1.8558
14865TIP3    H266087   4.607   3.754   6.664 -0.0555 -2.3057  0.2266
14866TIP3   OH266088   4.460   0.846  15.313  0.1471 -0.3231 -0.4427
14866TIP3    H166089   4.408   0.766  15.316 -1.0632  0.4846  1.6997
14866TIP3    H266090   4.512   0.838  15.232 -0.1508 -3.0949 -0.4315
14867TIP3   OH266091   1.492   1.916  16.103  0.2455  0.3738  0.2352
14867TIP3    H166092   1.501   1.870  16.019 -1.1200  0.6009 -0.0649
14867TIP3    H266093   1.472   2.007  16.078  0.2947  0.5494  0.8222
14868TIP3   OH266094   0.408   4.325  16.227  0.0896 -1.0410  0.4159
14868TIP3    H166095   0.347   4.252  16.225  1.0911 -1.9197 -2.1248
14868TIP3    H266096   0.352   4.402  16.240 -1.1041 -2.1072  1.9059
14869TIP3   OH266097   3.480   0.138   5.154  0.0481  0.7463  0.1492
14869TIP3    H166098   3.510   0.222   5.190 -1.5803  2.1473 -1.5589
14869TIP3    H266099   3.423   0.102   5.222 -0.8616  2.0543  0.1259
14870TIP3   OH266100   6.818   1.582   0.850  0.2677  0.7790 -0.2369
14870TIP3    H166101   6.892   1.569   0.792  2.7688 -0.9075  3.0189
14870TIP3    H266102   6.773   1.497   0.852 -1.6356  1.6551 -1.8229
14871TIP3   OH266103   3.891   2.653   5.871 -0.0297  0.3604  0.3322
14871TIP3    H166104   3.908   2.613   5.956  0.0147 -0.1462  0.0870
14871TIP3    H266105   3.831   2.725   5.890 -0.5157 -0.1400  0.7078
14872TIP3   OH266106   5.629   1.028   0.625  0.0283  0.0024 -0.4770
14872TIP3    H166107   5.700   1.073   0.579  0.8097 -0.8190 -0.1148
14872TIP3    H266108   5.568   1.001   0.556  0.2659  0.3870 -0.8350
14873TIP3   OH266109   4.045   1.007   1.985 -0.7524 -0.0693 -0.5297
14873TIP3    H166110   4.035   1.065   2.061  1.3872  0.1755 -0.3961
14873TIP3    H266111   3.997   0.927   2.010 -0.5285  0.2024  0.8633
14874TIP3   OH266112   5.140   4.962  15.028  0.6095  0.2184 -0.0854
14874TIP3    H166113   5.102   4.969  15.116 -1.1033 -0.1156 -0.7678
14874TIP3    H266114   5.065   4.969  14.969  1.5335 -1.1092 -1.4833
14875TIP3   OH266115   0.054   3.619  13.640  0.1141  0.8760 -0.4670
14875TIP3    H166116   0.039   3.626  13.734 -0.9823 -1.4151 -0.3953
14875TIP3    H266117  -0.031   3.643  13.601 -0.0544 -0.1109 -0.7374
14876TIP3   OH266118   5.993   6.847   6.000 -0.5226  0.4769  0.4391
14876TIP3    H166119   6.029   6.850   6.089 -0.0712 -0.3852  0.2924
14876TIP3    H266120   5.929   6.776   6.003  1.1454 -1.1501 -0.5036
14877TIP3   OH266121   6.019   6.113  11.440 -0.0547  0.1801  0.6673
14877TIP3    H166122   5.988   6.064  11.517 -0.6482  1.7306  1.4619
14877TIP3    H266123   6.098   6.067  11.413 -0.3961 -0.9987  1.5910
14878TIP3   OH266124   0.327   5.086   0.311  0.5130  0.0139 -0.0417
14878TIP3    H166125   0.401   5.031   0.336 -1.1133 -1.4369  1.8761
14878TIP3    H266126   0.252   5.027   0.311 -0.7699  1.5477 -1.3633
14879TIP3   OH266127   4.711   0.632  14.233  0.3692  0.2713  0.2413
14879TIP3    H166128   4.769   0.592  14.297  2.0081 -1.0813 -1.9414
14879TIP3    H266129   4.691   0.719  14.270 -1.2818 -1.4579  3.9210
14880TIP3   OH266130   6.675   1.206  12.382 -0.2030 -0.0510  0.0225
14880TIP3    H166131   6.698   1.114  12.391  1.8440  0.2265 -1.5502
14880TIP3    H266132   6.749   1.254  12.420 -0.1307  0.8992 -1.2195
14881TIP3   OH266133   2.672   0.629  15.242 -0.2904 -0.2818 -0.3631
14881TIP3    H166134   2.597   0.589  15.286 -1.7478  0.1272 -2.2986
14881TIP3    H266135   2.632   0.687  15.176  1.7367 -0.3545 -1.7392
14882TIP3   OH266136   3.167   2.382  14.693  0.2155 -0.2898  0.0676
14882TIP3    H166137   3.073   2.365  14.698  0.3672 -1.0554  0.3013
14882TIP3    H266138   3.182   2.405  14.601 -0.4189  1.2185  0.2969
14883TIP3   OH266139   2.059   5.177  14.410 -0.1538  0.4517 -0.0465
14883TIP3    H166140   2.084   5.179  14.318 -0.5410  1.0749 -0.1486
14883TIP3    H266141   2.089   5.092  14.442 -0.7612 -0.1165 -0.9603
14884TIP3   OH266142   6.611   4.516  14.990  0.0722  0.0331 -0.6225
14884TIP3    H166143   6.585   4.579  15.057  0.8471 -0.4470  0.1406
14884TIP3    H266144   6.685   4.469  15.028  1.3964  0.6384 -2.3223
14885TIP3   OH266145   3.717   2.098   4.781 -0.1770 -0.3970 -0.1847
14885TIP3    H166146   3.694   2.191   4.787  1.8153  0.5337 -3.8283
14885TIP3    H266147   3.644   2.058   4.733 -0.1482 -0.2647 -0.3408
14886TIP3   OH266148   1.629   6.492  12.919  0.1758  0.0032 -0.2345
14886TIP3    H166149   1.662   6.535  12.998  0.4846  2.1649 -1.4693
14886TIP3    H266150   1.705   6.486  12.861 -0.5205  0.4947 -1.2143
14887TIP3   OH266151   3.904   6.181  11.215 -0.3077  0.0610  0.2154
14887TIP3    H166152   3.823   6.193  11.166 -0.8364 -2.3993  0.3732
14887TIP3    H266153   3.913   6.262  11.266  0.1307  2.6464 -3.5190
14888TIP3   OH266154   2.849   5.058   5.944 -0.2329  0.0136  0.3722
14888TIP3    H166155   2.927   5.093   5.987 -2.4603  3.2503  2.2410
14888TIP3    H266156   2.814   4.995   6.006  0.9095 -1.6693 -0.5986
14889TIP3   OH266157   3.093   4.231  15.485 -0.0176 -0.2668  0.1568
14889TIP3    H166158   3.183   4.219  15.518 -0.2256 -0.8088  0.5421
14889TIP3    H266159   3.062   4.311  15.528  1.1677  1.4052 -1.9466
14890TIP3   OH266160   2.162   0.818  12.750 -0.1789 -0.1978 -0.2354
14890TIP3    H166161   2.095   0.750  12.748 -0.2021 -0.1850  0.0601
14890TIP3    H266162   2.160   0.857  12.663  1.3865 -2.0770 -1.1984
14891TIP3   OH266163   5.013   3.418   3.375 -0.0192  0.3428 -0.3006
14891TIP3    H166164   5.010   3.367   3.294 -0.3962  1.1585 -0.8108
14891TIP3    H266165   4.957   3.493   3.358 -2.3377 -0.7971  1.6475
14892TIP3   OH266166   4.534   6.265   3.639  0.1287 -0.4383 -0.2104
14892TIP3    H166167   4.527   6.329   3.569  0.6814  0.1332  0.2485
14892TIP3    H266168   4.444   6.251   3.668  0.0781  0.8417  0.3156
14893TIP3   OH266169   6.012   4.857   1.860  0.4832  0.0573  0.0130
14893TIP3    H166170   5.994   4.793   1.930  0.6264 -0.5311 -0.4826
14893TIP3    H266171   6.089   4.822   1.816 -0.6878 -0.5762 -1.6178
14894TIP3   OH266172   5.062   3.575  14.330  0.0162 -0.2665  0.1086
14894TIP3    H166173   5.098   3.569  14.241  2.3517 -2.9800  1.0798
14894TIP3    H266174   5.105   3.651  14.368  1.4751 -0.9185 -0.1599
14895TIP3   OH266175   1.368   4.550  16.765  0.3360 -1.0131 -0.0252
14895TIP3    H166176   1.297   4.611  16.786  1.1412  0.0534 -0.2851
14895TIP3    H266177   1.341   4.509  16.683  0.3011 -0.1232 -0.4798
14896TIP3   OH266178   0.852   1.217  10.306  0.1105 -0.0773  0.1974
14896TIP3    H166179   0.787   1.267  10.257  1.6724  3.3530  1.3190
14896TIP3    H266180   0.803   1.178  10.377 -1.0654  0.7157 -0.1404
14897TIP3   OH266181   2.372   5.040  14.381 -0.8800 -0.0407  0.3422
14897TIP3    H166182   2.347   4.949  14.362 -2.7398  0.0916  1.8955
14897TIP3    H266183   2.346   5.089  14.303  0.2827 -0.8336 -0.5707
14898TIP3   OH266184   6.141   2.097  14.353 -1.1221 -0.4224 -0.2628
14898TIP3    H166185   6.185   2.174  14.318 -0.3376  0.4878  2.5526
14898TIP3    H266186   6.204   2.026  14.340 -1.4811 -0.4831 -2.0068
14899TIP3   OH266187   3.941   1.608  12.473  0.2538  0.0674 -0.3580
14899TIP3    H166188   3.882   1.541  12.510 -0.2412  1.4809  1.5631
14899TIP3    H266189   3.897   1.637  12.393 -0.9231  0.0480  0.2635
14900TIP3   OH266190   4.307   1.097   0.512 -0.4856 -0.5944 -0.0531
14900TIP3    H166191   4.293   1.181   0.469  0.7801 -0.1705  0.3153
14900TIP3    H266192   4.368   1.050   0.455 -1.2343 -1.3004 -0.2905
14901TIP3   OH266193   3.726   3.037   4.716 -0.0748  0.6295 -0.2507
14901TIP3    H166194   3.763   3.067   4.633 -0.5673  0.2941 -0.5965
14901TIP3    H266195   3.706   2.944   4.701  0.4418  0.4011  0.4554
14902TIP3   OH266196   3.084   1.736  14.388 -0.2774  0.1534 -0.4421
14902TIP3    H166197   3.158   1.797  14.395  2.4381 -2.6004 -2.2691
14902TIP3    H266198   3.122   1.651  14.409 -2.7631 -1.5309 -2.2127
14903TIP3   OH266199   5.915   1.852   5.722 -0.2742  0.5109  0.0164
14903TIP3    H166200   5.830   1.867   5.764 -0.5520 -1.4131  0.2508
14903TIP3    H266201   5.921   1.919   5.654 -0.4517  2.8414  2.1573
14904TIP3   OH266202   6.659   2.565  11.903 -0.1177 -0.0026 -0.2729
14904TIP3    H166203   6.597   2.538  11.835  0.5370  0.4174 -1.0549
14904TIP3    H266204   6.623   2.645  11.939 -0.6630 -0.4310  0.1459
14905TIP3   OH266205   6.217   3.814   4.162  0.0597  0.0775  0.1718
14905TIP3    H166206   6.170   3.846   4.238 -0.9066  0.5754 -0.6153
14905TIP3    H266207   6.217   3.718   4.172 -0.1261  0.1385  0.7537
14906TIP3   OH266208   1.158   6.755   3.021  0.6582 -0.6996 -0.1409
14906TIP3    H166209   1.164   6.847   2.995 -1.1187 -0.3146  0.6361
14906TIP3    H266210   1.179   6.706   2.941  0.7511  0.3865 -0.8025
14907TIP3   OH266211   5.632   4.624   1.469  0.1357 -0.4567  0.2346
14907TIP3    H166212   5.683   4.543   1.481  0.9653  0.1348  0.8334
14907TIP3    H266213   5.552   4.608   1.519  0.1087 -1.0614  0.0146
14908TIP3   OH266214   3.722   3.858   0.229 -0.2481  0.4271  0.1804
14908TIP3    H166215   3.786   3.929   0.234  0.2662  0.0349 -0.6271
14908TIP3    H266216   3.775   3.779   0.217 -0.7638 -0.2161  1.9409
14909TIP3   OH266217   4.271   6.272   3.902 -0.0508  0.1753 -0.1454
14909TIP3    H166218   4.355   6.276   3.948  0.1953 -0.1963 -0.5609
14909TIP3    H266219   4.276   6.340   3.835 -0.3018  0.5258  0.1821
14910TIP3   OH266220   1.257   5.889   0.762  0.4153  0.1039  0.2050
14910TIP3    H166221   1.182   5.949   0.762 -0.9801 -1.5448 -0.1816
14910TIP3    H266222   1.232   5.820   0.824  1.4099 -0.7323 -0.2926
14911TIP3   OH266223   6.754   6.504   5.011 -0.2430 -0.0469  0.0320
14911TIP3    H166224   6.660   6.512   5.026 -0.1779  1.8916 -0.4464
14911TIP3    H266225   6.792   6.506   5.099 -0.5662  0.4218  0.1629
14912TIP3   OH266226   0.567   0.702  11.731 -0.4391  0.3811 -0.0636
14912TIP3    H166227   0.590   0.617  11.769 -1.2464 -0.2906 -1.0316
14912TIP3    H266228   0.646   0.730  11.685 -0.7266 -0.7359 -1.2850
14913TIP3   OH266229   1.434   5.498  13.670  0.0838 -0.2800 -0.0278
14913TIP3    H166230   1.378   5.512  13.746 -0.4512  0.1447 -0.4907
14913TIP3    H266231   1.441   5.403  13.662 -0.6124 -0.3350  0.0099
14914TIP3   OH266232   6.423   0.181  15.850 -0.1413  0.1385  0.0415
14914TIP3    H166233   6.487   0.212  15.914  0.5249  2.6150 -1.6638
14914TIP3    H266234   6.341   0.223  15.875 -0.8527 -1.8677  1.3563
14915TIP3   OH266235   6.700   0.309  11.614 -0.1096  0.4000 -0.3747
14915TIP3    H166236   6.680   0.226  11.572  2.9232 -0.4709 -0.3237
14915TIP3    H266237   6.747   0.285  11.694 -1.3819  2.1518  0.9926
14916TIP3   OH266238   5.844   1.948   1.694  0.4962 -0.1979  0.4168
14916TIP3    H166239   5.826   1.866   1.648  0.0273 -0.4153  0.9801
14916TIP3    H266240   5.831   2.016   1.628 -0.8794 -0.4570  0.4029
14917TIP3   OH266241   2.483   5.645   2.885  0.6220 -0.0277 -0.0464
14917TIP3    H166242   2.489   5.552   2.904  0.6047 -0.5034 -2.1631
14917TIP3    H266243   2.461   5.650   2.792  1.8375  2.0936 -0.3004
14918TIP3   OH266244   0.288   5.744   2.305  0.0673 -0.4426  0.4327
14918TIP3    H166245   0.205   5.782   2.334 -0.0451 -1.8726  2.1701
14918TIP3    H266246   0.265   5.657   2.273  0.5886  0.1135 -1.6441
14919TIP3   OH266247   1.950   5.000   5.848 -0.2554 -0.0130  0.1804
14919TIP3    H166248   1.989   4.981   5.932 -0.3406 -0.4469  0.1229
14919TIP3    H266249   1.860   4.968   5.855 -0.4259  0.4348  0.1083
14920TIP3   OH266250   5.455   2.843  12.788 -0.1960  0.1992 -0.3633
14920TIP3    H166251   5.444   2.819  12.696 -1.3774  1.2865 -0.5311
14920TIP3    H266252   5.367   2.834  12.826 -0.0233  1.1620  0.2993
14921TIP3   OH266253   1.564   1.615  12.871  0.1091  0.4307  0.2119
14921TIP3    H166254   1.472   1.606  12.897 -0.3515  2.5064 -0.5083
14921TIP3    H266255   1.589   1.528  12.840 -2.4094  0.3928 -2.0119
14922TIP3   OH266256   6.258   3.956  10.781  0.1116  0.2610 -0.9630
14922TIP3    H166257   6.218   3.874  10.809  0.9368  0.3649  0.6665
14922TIP3    H266258   6.192   4.023  10.800 -0.1605  0.0905 -1.3066
14923TIP3   OH266259   5.349   3.991   2.859 -0.4100 -0.2590 -0.2700
14923TIP3    H166260   5.429   4.034   2.889 -0.3014 -1.3043  1.0610
14923TIP3    H266261   5.371   3.954   2.774  1.0642 -1.8415  0.7324
14924TIP3   OH266262   3.204   5.458   5.931 -0.0581 -0.0717  0.0257
14924TIP3    H166263   3.126   5.430   5.980  0.2915  0.6971  1.0595
14924TIP3    H266264   3.186   5.431   5.841 -0.3267 -2.3748  0.6978
14925TIP3   OH266265   1.231   5.764  16.634  0.1793  0.0217  0.7514
14925TIP3    H166266   1.181   5.841  16.661 -0.4098  0.9455 -2.5693
14925TIP3    H266267   1.166   5.703  16.599  1.0284 -0.1872 -0.5155
14926TIP3   OH266268   0.966   2.960   2.104  0.3394  0.3024  0.4204
14926TIP3    H166269   0.874   2.975   2.081  0.7033  0.1811 -1.2757
14926TIP3    H266270   0.962   2.910   2.186 -1.1346 -0.4542 -0.0566
14927TIP3   OH266271   6.841   6.208  12.470 -0.5304 -0.1835 -0.0082
14927TIP3    H166272   6.874   6.260  12.396 -1.4447  1.4366  0.6750
14927TIP3    H266273   6.754   6.180  12.441 -0.4271 -0.5166  0.0076
14928TIP3   OH266274   1.226   1.304  11.808 -0.5631 -0.0115 -0.7948
14928TIP3    H166275   1.157   1.244  11.836 -1.0427  0.2454 -1.3827
14928TIP3    H266276   1.287   1.307  11.881 -1.2359 -0.1595 -0.2113
14929TIP3   OH266277   4.165   5.854  13.922  0.4380 -0.0626  0.2333
14929TIP3    H166278   4.141   5.814  13.839  1.4357 -0.6617  0.2177
14929TIP3    H266279   4.150   5.947  13.909  1.5295 -0.0309 -0.9597
14930TIP3   OH266280   2.461   0.585  13.586  0.0736  0.5993 -0.4798
14930TIP3    H166281   2.494   0.657  13.641 -0.9086  1.0299 -0.4223
14930TIP3    H266282   2.402   0.536  13.644  2.5005 -1.7093  0.2107
14931TIP3   OH266283   1.906   4.668  12.345  0.4860  0.6062  0.0180
14931TIP3    H166284   1.857   4.742  12.308  0.7442  0.1293 -1.3256
14931TIP3    H266285   1.866   4.591  12.306  1.4935  0.1497 -0.1453
14932TIP3   OH266286   0.433   5.799  10.921 -0.4725  0.2006 -0.2027
14932TIP3    H166287   0.427   5.883  10.967 -2.3573  0.7635 -1.3301
14932TIP3    H266288   0.344   5.765  10.922  0.3334 -2.0305  0.5711
14933TIP3   OH266289   5.833   5.637   6.516  0.0523  0.2894  0.2274
14933TIP3    H166290   5.905   5.613   6.574  0.0209  1.4147  0.7519
14933TIP3    H266291   5.876   5.685   6.444 -0.0817  0.2496  0.1207
14934TIP3   OH266292   6.001   3.950  14.766  0.4614  0.0842 -0.4367
14934TIP3    H166293   6.082   3.899  14.758 -1.6106 -3.6806  0.1396
14934TIP3    H266294   5.985   3.954  14.860  0.2128  1.2811 -0.5190
14935TIP3   OH266295   4.357   2.978   5.319 -0.5854 -0.5023  0.3626
14935TIP3    H166296   4.370   3.030   5.240 -0.0697 -1.3714 -0.1406
14935TIP3    H266297   4.435   2.995   5.372  0.2499 -1.7530 -0.3946
14936TIP3   OH266298   3.053   2.251   1.256 -0.3284  0.2049  0.5688
14936TIP3    H166299   3.065   2.157   1.270  2.1198  0.3822  0.1401
14936TIP3    H266300   3.081   2.266   1.166 -1.9853  1.1926  0.1600
14937TIP3   OH266301   0.760   1.779   3.867  0.7410 -0.2581  1.0603
14937TIP3    H166302   0.726   1.869   3.864  0.1386 -0.5071 -0.2585
14937TIP3    H266303   0.710   1.737   3.936 -1.9620 -0.6901 -0.9949
14938TIP3   OH266304   3.729   1.391   2.028  0.3563 -0.4699 -0.0547
14938TIP3    H166305   3.808   1.396   1.975  0.1680 -0.1867 -0.3098
14938TIP3    H266306   3.688   1.308   2.001  1.0099 -1.0642  0.7148
14939TIP3   OH266307   2.395   4.140   1.893 -0.2183  0.3314  0.0108
14939TIP3    H166308   2.410   4.186   1.810 -1.7615  0.1254 -0.4151
14939TIP3    H266309   2.367   4.208   1.954  0.4139  0.4019  0.2289
14940TIP3   OH266310   0.490   3.050   3.898  0.2872 -0.3097 -0.1290
14940TIP3    H166311   0.472   2.963   3.934 -0.4904  0.8209  2.4560
14940TIP3    H266312   0.409   3.076   3.856  0.2517 -0.4831 -0.1706
14941TIP3   OH266313   6.254   4.257   0.665 -0.0641  0.3309 -0.0103
14941TIP3    H166314   6.280   4.318   0.596  0.7291  1.2082  1.0445
14941TIP3    H266315   6.301   4.176   0.644 -0.1887  0.4372 -0.7434
14942TIP3   OH266316   3.711   5.560  12.432 -0.0815  0.9078  0.3286
14942TIP3    H166317   3.645   5.490  12.435  0.5741  0.2382 -0.4078
14942TIP3    H266318   3.767   5.537  12.357  0.9848  1.4645  0.9313
14943TIP3   OH266319   0.760   5.318  14.363 -0.0053 -0.2739 -0.3322
14943TIP3    H166320   0.711   5.398  14.383  1.9521  0.6122  1.2980
14943TIP3    H266321   0.751   5.264  14.441 -2.0371 -2.1535 -1.7372
14944TIP3   OH266322   6.651   3.023  13.679 -0.0864 -0.1503  0.2174
14944TIP3    H166323   6.590   2.952  13.699  0.8343 -1.0971 -0.2817
14944TIP3    H266324   6.672   3.011  13.586 -0.1700  0.9817  0.0321
14945TIP3   OH266325   4.388   2.189   0.870 -0.4958  0.3372  0.6112
14945TIP3    H166326   4.475   2.149   0.875  0.3955  2.1207  0.0086
14945TIP3    H266327   4.335   2.126   0.822  0.8046 -0.2152 -0.1395
14946TIP3   OH266328   6.721   3.922  13.771  0.2410 -0.0454  0.2628
14946TIP3    H166329   6.631   3.920  13.738  0.3655 -1.5768 -0.0624
14946TIP3    H266330   6.721   3.860  13.844  1.3157 -1.0370 -0.5491
14947TIP3   OH266331   6.276   0.864   5.955  0.3861  0.1356 -0.1474
14947TIP3    H166332   6.347   0.834   6.012 -0.9709  0.2823  1.6955
14947TIP3    H266333   6.288   0.959   5.951  0.4066  0.1412  0.0193
14948TIP3   OH266334   4.208   1.232   4.590  0.4567 -0.2120 -0.6494
14948TIP3    H166335   4.288   1.285   4.586  1.5609 -1.5686  1.5826
14948TIP3    H266336   4.165   1.261   4.671 -0.8933 -0.1180 -1.3762
14949TIP3   OH266337   4.237   1.435  14.229  0.5180 -0.6962  0.3607
14949TIP3    H166338   4.198   1.394  14.152 -0.3565 -0.4899  0.6895
14949TIP3    H266339   4.223   1.373  14.300  0.1543 -0.3115  0.6293
14950TIP3   OH266340   6.417   0.265   0.478  0.0507 -0.0219  0.3523
14950TIP3    H166341   6.428   0.328   0.407  0.2836 -1.1185 -0.6043
14950TIP3    H266342   6.322   0.262   0.494  0.0874  1.0184  0.8432
14951TIP3   OH266343   3.750   4.532   1.289  0.1759  0.2697  0.3563
14951TIP3    H166344   3.833   4.560   1.250 -0.0881  0.1416 -0.3168
14951TIP3    H266345   3.762   4.439   1.307  0.1811  0.2484  0.2480
14952TIP3   OH266346   3.025   4.857  11.454 -0.0924  0.6541 -1.1234
14952TIP3    H166347   3.024   4.808  11.372 -2.1889 -4.4417  1.5200
14952TIP3    H266348   3.116   4.851  11.484  0.4537  1.6573 -2.4540
14953TIP3   OH266349   2.393   1.302  16.198 -0.4546  0.1819 -0.2658
14953TIP3    H166350   2.322   1.238  16.198 -0.2696 -0.0558  0.9824
14953TIP3    H266351   2.465   1.258  16.153 -1.3575  0.7743 -2.3930
14954TIP3   OH266352   4.940   4.986   4.601  0.3899 -0.3177  0.1187
14954TIP3    H166353   4.886   5.046   4.652 -2.6139 -2.4729 -0.2334
14954TIP3    H266354   4.941   4.905   4.652 -0.8703 -1.8547 -2.1076
14955TIP3   OH266355   6.039   3.830  16.869 -0.1555  0.3720  0.1029
14955TIP3    H166356   6.001   3.850  16.954  0.0751 -1.5628  0.7037
14955TIP3    H266357   6.045   3.915  16.825 -1.2864  1.2647  1.5763
14956TIP3   OH266358   6.059   0.945   3.623  0.1691 -0.3091  1.0704
14956TIP3    H166359   5.987   0.985   3.672 -1.3876 -0.7553 -0.7526
14956TIP3    H266360   6.079   1.007   3.553  0.6291 -0.8076  0.7511
14957TIP3   OH266361   6.475   2.466   1.058 -0.3303  0.5422 -0.1610
14957TIP3    H166362   6.416   2.416   1.113 -0.4610  0.9135  0.0372
14957TIP3    H266363   6.477   2.418   0.975 -1.0957  0.6623 -0.2479
14958TIP3   OH266364   4.944   3.001   3.696 -0.1506 -0.4092  0.1181
14958TIP3    H166365   4.908   2.935   3.755 -1.5264  1.6523  1.7072
14958TIP3    H266366   4.892   2.992   3.616 -0.9862 -0.5999  0.6743
14959TIP3   OH266367   1.984   0.824   4.270 -0.2107 -0.0900 -0.5335
14959TIP3    H166368   2.001   0.864   4.185  0.6942 -0.4361 -0.5315
14959TIP3    H266369   1.923   0.753   4.251 -1.9125  1.3138 -0.5209
14960TIP3   OH266370   2.633   6.643  14.984  0.3406 -0.2362 -0.2914
14960TIP3    H166371   2.600   6.638  15.074  0.4155 -0.2369 -0.2639
14960TIP3    H266372   2.728   6.651  14.993  0.4365 -1.1510 -0.3826
14961TIP3   OH266373   5.865   1.175  16.084  0.0863  0.1175  0.5111
14961TIP3    H166374   5.772   1.179  16.105  0.5083  3.0521  2.4243
14961TIP3    H266375   5.877   1.243  16.018  0.7717 -0.9610 -0.5223
14962TIP3   OH266376   6.387   2.354   0.488 -0.6263  0.3547 -0.2243
14962TIP3    H166377   6.372   2.440   0.527  0.4316 -0.0482  1.1252
14962TIP3    H266378   6.429   2.373   0.404 -0.2400  1.1506  0.1374
14963TIP3   OH266379   0.927   0.157  16.837 -0.0129  0.6868 -0.1965
14963TIP3    H166380   0.870   0.190  16.768 -1.2779 -2.2635 -0.6977
14963TIP3    H266381   0.994   0.107  16.792  0.3048  0.3526  0.6170
14964TIP3   OH266382   0.934   3.044  13.187 -0.4838  0.2538 -0.0525
14964TIP3    H166383   0.883   3.041  13.106 -0.3077  1.0086 -0.1985
14964TIP3    H266384   0.976   3.130  13.185  1.4336 -0.6581 -0.3107
14965TIP3   OH266385   4.982   5.782   5.167 -0.6728  0.0905  0.4416
14965TIP3    H166386   4.943   5.802   5.081  1.8884 -0.7378 -1.0037
14965TIP3    H266387   5.023   5.864   5.194  0.8951 -0.3304 -0.5187
14966TIP3   OH266388   0.058   5.831  16.759 -0.2280 -0.1281  0.5174
14966TIP3    H166389  -0.034   5.809  16.774 -0.7148  2.4921  1.8772
14966TIP3    H266390   0.106   5.753  16.787 -1.9722 -1.2122  0.6355
14967TIP3   OH266391   0.131   5.429   0.291 -0.2868  0.1241 -0.6072
14967TIP3    H166392   0.226   5.442   0.297 -0.0934 -1.0494 -0.7799
14967TIP3    H266393   0.097   5.460   0.375  0.4318 -0.7732  0.0304
14968TIP3   OH266394   2.275   0.245   0.186  0.2532  0.5226 -0.4232
14968TIP3    H166395   2.222   0.292   0.251  1.0256  0.0638  0.5707
14968TIP3    H266396   2.220   0.240   0.109 -0.0289  2.7159 -0.4454
14969TIP3   OH266397   0.735   5.424  15.436  0.1649 -0.0112  0.2857
14969TIP3    H166398   0.758   5.406  15.345 -2.4463  1.6155 -0.7966
14969TIP3    H266399   0.766   5.513  15.451 -3.0536  1.3508 -0.4799
14970TIP3   OH266400   6.526   4.593   4.676 -0.1771  0.1450 -0.0640
14970TIP3    H166401   6.535   4.589   4.581  1.1960 -0.7983  0.0893
14970TIP3    H266402   6.469   4.669   4.691 -0.8109  0.0232 -1.6468
14971TIP3   OH266403   2.097   1.174   0.580  0.6656 -0.1921 -0.1803
14971TIP3    H166404   2.103   1.141   0.669 -0.6826 -0.1326 -0.0499
14971TIP3    H266405   2.117   1.267   0.587 -1.1293  0.1830  0.3546
14972TIP3   OH266406   0.413   4.328   3.673  0.0725 -0.0672 -0.2881
14972TIP3    H166407   0.337   4.387   3.669  0.1301 -0.0727 -2.0107
14972TIP3    H266408   0.488   4.387   3.675  0.1078 -0.0589 -1.4050
14973TIP3   OH266409   0.054   0.393   2.094  0.1462 -0.2115  0.2907
14973TIP3    H166410   0.110   0.412   2.019  1.1250  1.1621  1.3117
14973TIP3    H266411  -0.035   0.411   2.063  0.6253  1.3630 -0.2613
14974TIP3   OH266412   3.330   3.719   1.291  0.0751 -0.6567 -0.2773
14974TIP3    H166413   3.332   3.759   1.203 -1.2344 -0.4977 -0.2504
14974TIP3    H266414   3.334   3.625   1.275  0.5132 -0.6130 -0.4605
14975TIP3   OH266415   5.215   5.847   0.253 -0.4873 -0.3063  0.0193
14975TIP3    H166416   5.261   5.772   0.215 -0.8112 -0.1538 -0.6950
14975TIP3    H266417   5.122   5.824   0.244 -0.5831  0.0803  0.0096
14976TIP3   OH266418   0.269   4.965  14.094 -0.1612  0.1450  0.7349
14976TIP3    H166419   0.270   5.051  14.135  1.5313 -0.0420  1.1560
14976TIP3    H266420   0.197   4.969  14.031  1.4341  2.7663 -1.1153
14977TIP3   OH266421   3.035   0.318   4.612  0.1453  0.4580 -0.2137
14977TIP3    H166422   3.065   0.403   4.644 -0.3669 -0.2038  2.2716
14977TIP3    H266423   3.111   0.281   4.566  0.8147  1.6707 -0.1098
14978TIP3   OH266424   0.414   2.580   4.421 -0.3776 -0.1384 -0.0047
14978TIP3    H166425   0.335   2.545   4.382  0.1791 -1.9778  0.4344
14978TIP3    H266426   0.407   2.559   4.514 -0.1758  1.2789  0.3593
14979TIP3   OH266427   0.029   5.025   1.674 -0.3465 -0.0413  0.1382
14979TIP3    H166428  -0.009   4.993   1.592  0.9042  0.7439 -0.7985
14979TIP3    H266429   0.050   5.116   1.656  1.0452 -0.1793  0.9371
14980TIP3   OH266430   3.840   4.223  15.200  0.2433  0.6106 -0.0183
14980TIP3    H166431   3.931   4.194  15.202  0.7741  2.1428  2.5831
14980TIP3    H266432   3.845   4.317  15.189 -0.9727  0.7888  0.7643
14981TIP3   OH266433   2.537   3.913  12.506  0.4750 -0.1163 -0.0782
14981TIP3    H166434   2.473   3.883  12.571  0.3215 -1.4257 -0.7979
14981TIP3    H266435   2.618   3.868  12.530  0.5704 -0.1282 -0.4279
14982TIP3   OH266436   3.695   5.193  14.201 -0.7019 -0.2203 -0.5179
14982TIP3    H166437   3.691   5.279  14.243  3.5947  0.1627 -0.4635
14982TIP3    H266438   3.687   5.211  14.108 -0.4311  0.1932 -0.4645
14983TIP3   OH266439   6.617   6.507  13.962 -0.2675 -0.2854  0.8649
14983TIP3    H166440   6.584   6.540  14.046 -0.0513 -0.1543  0.8985
14983TIP3    H266441   6.561   6.549  13.897  0.0716  0.2389  0.9008
14984TIP3   OH266442   1.207   3.094   0.446  0.4229  0.1490  0.3400
14984TIP3    H166443   1.163   3.038   0.509  0.8023  0.3887  0.8288
14984TIP3    H266444   1.241   3.167   0.498  0.2003  0.6761 -0.2385
14985TIP3   OH266445   4.078   5.211   6.089 -0.0997  0.8502  0.2631
14985TIP3    H166446   4.085   5.136   6.148 -3.0133  0.9637  0.9058
14985TIP3    H266447   4.131   5.279   6.131 -1.2608  0.6067  2.2868
14986TIP3   OH266448   2.982   6.592   3.897 -0.4701 -0.4744  0.7077
14986TIP3    H166449   3.002   6.504   3.926 -0.1549  0.2849  2.9997
14986TIP3    H266450   2.907   6.619   3.951 -0.5394  0.6763  0.0797
14987TIP3   OH266451   6.755   0.707   0.271 -0.1800 -1.0428  0.0218
14987TIP3    H166452   6.727   0.640   0.333  1.4380 -0.6578  1.2447
14987TIP3    H266453   6.710   0.786   0.300 -0.1383 -1.0596  0.1311
14988TIP3   OH266454   2.522   3.630  15.069  0.1329 -0.1004  0.4301
14988TIP3    H166455   2.550   3.692  15.136 -0.1845 -0.2053  0.6671
14988TIP3    H266456   2.566   3.548  15.092  0.6050  0.0567  0.0784
14989TIP3   OH266457   3.251   4.159  13.641  0.0402 -0.2473  0.2264
14989TIP3    H166458   3.194   4.083  13.627 -0.6245  0.8602 -6.0355
14989TIP3    H266459   3.195   4.235  13.620  2.1808  1.4598  0.3239
14990TIP3   OH266460   4.794   4.167  16.742 -0.1406 -0.5250 -0.3102
14990TIP3    H166461   4.823   4.204  16.825 -1.0175 -0.6983  0.0881
14990TIP3    H266462   4.700   4.185  16.739 -0.0609 -0.1894 -1.4363
14991TIP3   OH266463   4.029   0.071   0.493 -0.2725 -0.7249 -0.3771
14991TIP3    H166464   4.120   0.044   0.479 -1.0444 -2.8114 -1.9687
14991TIP3    H266465   4.013   0.138   0.426  0.4606  0.7059  0.8390
14992TIP3   OH266466   5.879   1.666  12.347  0.1789 -0.0123 -0.3808
14992TIP3    H166467   5.842   1.731  12.406  0.6411  0.0838 -0.1876
14992TIP3    H266468   5.930   1.608  12.404 -0.8252 -0.9991 -0.4451
14993TIP3   OH266469   1.117   2.042  13.508 -0.0759  0.2576  0.8790
14993TIP3    H166470   1.175   1.975  13.545  1.0508  1.0937  0.6952
14993TIP3    H266471   1.077   1.999  13.432 -0.3938 -0.6208  1.5262
14994TIP3   OH266472   4.183   6.719   0.846 -0.1351 -0.0341  0.0038
14994TIP3    H166473   4.206   6.808   0.874  0.5762 -0.1412 -0.2304
14994TIP3    H266474   4.091   6.726   0.818  0.1364  0.8086 -0.7362
14995TIP3   OH266475   1.275   4.102   5.046  0.0850  0.2897 -0.0893
14995TIP3    H166476   1.369   4.083   5.052 -0.1875 -0.8320  1.2847
14995TIP3    H266477   1.235   4.041   5.108 -1.5417  0.8890 -0.5088
14996TIP3   OH266478   5.401   4.117   0.764  0.1418 -0.2226 -0.5113
14996TIP3    H166479   5.462   4.124   0.690  1.3578 -1.0267  0.3822
14996TIP3    H266480   5.323   4.075   0.727  0.3006  0.3843 -1.5702
14997TIP3   OH266481   2.899   0.011  12.468 -0.2276  0.1826 -0.8562
14997TIP3    H166482   2.946   0.094  12.475  0.1697 -0.1117  0.1509
14997TIP3    H266483   2.807   0.035  12.475 -0.1107  0.5468 -0.5278
14998TIP3   OH266484   2.998   2.344   4.821  0.0594  0.4050  0.0106
14998TIP3    H166485   2.987   2.282   4.748  1.9651  2.0361 -1.7835
14998TIP3    H266486   2.916   2.337   4.870 -1.3295 -0.7777 -2.2893
14999TIP3   OH266487   4.454   3.561  14.746  0.5010 -0.2782 -0.4274
14999TIP3    H166488   4.467   3.591  14.836 -2.0380  1.9034 -0.6886
14999TIP3    H266489   4.536   3.583  14.701  1.0042  0.5562  0.8627
15000TIP3   OH266490   0.430   0.314  14.091 -0.0098 -0.1880  0.2762
15000TIP3    H166491   0.418   0.261  14.012  0.5269 -0.4966  0.3956
15000TIP3    H266492   0.359   0.286  14.149 -0.3230 -0.0597 -0.0433
15001TIP3   OH266493   2.426   6.414  14.456  0.3240 -0.2341  0.0690
15001TIP3    H166494   2.514   6.448  14.475  0.3648 -0.1844 -0.2117
15001TIP3    H266495   2.375   6.437  14.533  0.5229 -0.1410  0.1753
15002TIP3   OH266496   4.538   4.042   0.783  0.0446 -0.7025  0.4403
15002TIP3    H166497   4.448   4.013   0.766 -0.1089 -0.6159  1.0955
15002TIP3    H266498   4.570   3.983   0.851  0.3025 -0.4009  0.5835
15003TIP3   OH266499   3.557   6.417  16.536  0.0941 -0.1615  0.0914
15003TIP3    H166500   3.550   6.511  16.516 -2.2234 -0.4251 -0.5802
15003TIP3    H266501   3.582   6.377  16.453 -1.2658 -0.3592 -0.2462
15004TIP3   OH266502   0.873   0.394  10.231  0.0389  0.3572 -0.5546
15004TIP3    H166503   0.795   0.409  10.286 -0.1116 -0.8825 -0.3907
15004TIP3    H266504   0.926   0.473  10.243  0.7079 -0.4008  2.5642
15005TIP3   OH266505   2.249   0.874  12.093  0.2118  0.0192  0.0069
15005TIP3    H166506   2.241   0.957  12.139 -1.3403  0.2344 -0.6078
15005TIP3    H266507   2.219   0.808  12.156  0.5357  0.0287  0.1711
15006TIP3   OH266508   4.996   6.519  15.571 -0.4483  1.0657  0.5282
15006TIP3    H166509   4.975   6.426  15.575 -0.4886  1.0597  0.1385
15006TIP3    H266510   5.089   6.522  15.550 -1.2371  1.1080 -3.8073
15007TIP3   OH266511   0.121   1.607   1.876  0.1483 -0.0562 -0.7687
15007TIP3    H166512   0.202   1.570   1.910  0.4086 -1.2319 -2.5198
15007TIP3    H266513   0.062   1.610   1.951  0.7101 -2.4765 -0.1485
15008TIP3   OH266514   2.988   4.834   0.906 -0.4275  1.1006 -0.5405
15008TIP3    H166515   3.071   4.806   0.868  0.4834  1.0037  1.3977
15008TIP3    H266516   3.009   4.915   0.953 -1.2604  0.7171  0.5327
15009TIP3   OH266517   2.666   1.024   0.542 -0.7108 -0.6463  0.2926
15009TIP3    H166518   2.674   0.931   0.520 -0.6746 -0.7309  0.6449
15009TIP3    H266519   2.635   1.065   0.462 -2.0083 -1.1750  0.4931
15010TIP3   OH266520   6.102   3.125  12.848 -0.5118 -0.0021  0.0924
15010TIP3    H166521   6.131   3.201  12.899 -2.4575  0.2298  0.9722
15010TIP3    H266522   6.105   3.052  12.909 -2.3750  0.1804  0.4811
15011TIP3   OH266523   2.695   0.877  13.180 -0.2119 -0.0849 -0.2536
15011TIP3    H166524   2.686   0.799  13.234 -1.7098 -0.4447 -0.9661
15011TIP3    H266525   2.704   0.844  13.091  1.3474  0.5236 -0.3486
15012TIP3   OH266526   5.027   3.344  15.548 -0.6181 -0.1525  0.8280
15012TIP3    H166527   5.070   3.428  15.565 -2.3627  1.3008 -1.3869
15012TIP3    H266528   5.095   3.278  15.567  1.2746  1.7964  1.2413
15013TIP3   OH266529   0.204   5.765  16.343  0.2557  0.6946  0.3034
15013TIP3    H166530   0.172   5.706  16.274  1.5532  2.2666 -1.7587
15013TIP3    H266531   0.298   5.771  16.328  0.6663  0.6956  2.5920
15014TIP3   OH266532   4.112   5.204   3.694  0.2110  0.3639 -0.1070
15014TIP3    H166533   4.158   5.124   3.669  1.4474  0.7098  0.9487
15014TIP3    H266534   4.074   5.236   3.612  0.9481 -0.5152 -0.8199
15015TIP3   OH266535   1.752   3.590  16.072  0.3887  0.5408 -0.2448
15015TIP3    H166536   1.785   3.589  15.982  1.5262  1.2900  0.1517
15015TIP3    H266537   1.708   3.505  16.081  2.0232 -0.4369 -0.8830
15016TIP3   OH266538   4.893   2.982  12.181 -0.0286  0.2330  0.0504
15016TIP3    H166539   4.938   3.009  12.261 -1.2937 -1.7558  1.5349
15016TIP3    H266540   4.826   3.048  12.167  1.7308  1.9286 -0.8358
15017TIP3   OH266541   1.968   4.681  14.934 -0.2591 -0.5979 -0.1827
15017TIP3    H166542   1.968   4.742  14.861 -0.3989 -1.2066 -0.6985
15017TIP3    H266543   1.979   4.595  14.894  1.1738 -0.8192  0.6246
15018TIP3   OH266544   2.180   4.514  10.937 -0.3515 -0.1193 -0.2753
15018TIP3    H166545   2.163   4.608  10.933 -1.5415 -0.1836  1.5919
15018TIP3    H266546   2.101   4.473  10.903 -0.0452 -0.4446 -0.6048
15019TIP3   OH266547   6.248   6.087  14.490 -0.2799 -0.3381  0.3976
15019TIP3    H166548   6.190   6.058  14.560  0.3786  0.8874  1.4826
15019TIP3    H266549   6.189   6.114  14.420 -0.9687 -0.6026  0.8671
15020TIP3   OH266550   4.847   6.611   3.248 -0.1261  0.6080 -0.1405
15020TIP3    H166551   4.761   6.570   3.254 -0.0744  0.6344  0.9820
15020TIP3    H266552   4.907   6.547   3.283 -0.1599  1.9236  2.5633
15021TIP3   OH266553   3.832   0.363   4.336  0.3911 -0.0689 -0.2864
15021TIP3    H166554   3.896   0.293   4.353  0.1365 -0.6518 -1.6194
15021TIP3    H266555   3.885   0.443   4.332  0.9041 -0.4057 -0.3682
15022TIP3   OH266556   2.840   5.695   3.723 -0.0798  0.0966 -0.5905
15022TIP3    H166557   2.808   5.785   3.721  0.0332  0.1215 -1.4390
15022TIP3    H266558   2.779   5.646   3.669 -1.9974 -0.9966  2.3352
15023TIP3   OH266559   6.362   6.395  14.289  0.0097 -0.4830  0.0830
15023TIP3    H166560   6.329   6.344  14.215 -0.4201 -0.5471  0.3167
15023TIP3    H266561   6.286   6.409  14.345  0.7368 -2.2783  1.6127
15024TIP3   OH266562   1.126   0.242   1.284 -0.2172  0.2853  0.5375
15024TIP3    H166563   1.180   0.181   1.334 -1.2587 -2.9649 -1.9895
15024TIP3    H266564   1.039   0.234   1.323 -0.4327 -0.1448 -0.0216
15025TIP3   OH266565   1.104   0.534  13.765 -0.3157 -0.2740  0.3375
15025TIP3    H166566   1.046   0.563  13.695 -0.6480 -2.7934 -0.5330
15025TIP3    H266567   1.192   0.542  13.728 -0.4252 -0.6767 -0.0158
15026TIP3   OH266568   4.652   0.672   1.617  0.0348 -0.5310 -0.0281
15026TIP3    H166569   4.672   0.750   1.565  1.9126 -0.2040  1.0953
15026TIP3    H266570   4.638   0.603   1.552 -0.5687  0.4875 -1.0134
15027TIP3   OH266571   0.050   6.820  15.115 -0.2701  0.4177 -0.3356
15027TIP3    H166572   0.018   6.831  15.204  1.4222 -0.1720  0.3788
15027TIP3    H266573   0.101   6.899  15.097  0.5291 -0.0757 -0.2642
15028TIP3   OH266574   4.432   4.211  10.730 -0.5352 -0.4379  0.3698
15028TIP3    H166575   4.487   4.161  10.790 -1.3632  0.4740  1.9582
15028TIP3    H266576   4.488   4.282  10.699 -0.4098 -0.2952  0.9158
15029TIP3   OH266577   2.898   1.509   2.581 -0.3577  0.4013  0.1098
15029TIP3    H166578   2.987   1.475   2.592 -0.4744  0.2813  0.7085
15029TIP3    H266579   2.910   1.596   2.543  0.1159  1.1744  1.9552
15030TIP3   OH266580   0.567   6.163  12.385 -0.1994  0.2056  0.1574
15030TIP3    H166581   0.571   6.150  12.290 -1.2328 -0.9926  0.2489
15030TIP3    H266582   0.508   6.094  12.416 -0.0279  0.6975  1.6529
15031TIP3   OH266583   3.384   3.403   6.475  0.0689 -0.4431  0.3123
15031TIP3    H166584   3.438   3.379   6.399 -0.2679 -0.9937  0.2453
15031TIP3    H266585   3.414   3.492   6.497  2.0152 -1.2489  1.1729
15032TIP3   OH266586   6.411   4.402  15.328  0.3873 -0.4356 -0.5516
15032TIP3    H166587   6.397   4.335  15.395 -1.6867  1.7392  1.4037
15032TIP3    H266588   6.483   4.455  15.362  0.9148 -0.6976 -1.2496
15033TIP3   OH266589   1.891   1.007   5.034  0.4374 -0.2158  0.0054
15033TIP3    H166590   1.891   1.056   5.116  0.7784 -1.4359  0.7518
15033TIP3    H266591   1.955   0.937   5.048  0.1411 -0.7298 -1.1281
15034TIP3   OH266592   4.412   4.551   3.547  0.2193  0.1092 -0.3503
15034TIP3    H166593   4.474   4.488   3.584  1.6026  1.8649  0.4832
15034TIP3    H266594   4.341   4.497   3.512  2.1486 -2.0183 -1.2789
15035TIP3   OH266595   3.648   1.045  11.709 -0.7204 -0.1979  0.0980
15035TIP3    H166596   3.587   1.009  11.773 -0.3846  1.0578  1.1866
15035TIP3    H266597   3.713   0.976  11.696 -1.5685 -0.9992  0.0310
15036TIP3   OH266598   6.424   3.807   0.151 -0.1769 -0.5124  0.0058
15036TIP3    H166599   6.473   3.728   0.173 -2.0342 -0.8400  3.6257
15036TIP3    H266600   6.333   3.777   0.143 -0.4164  0.6148 -3.1937
15037TIP3   OH266601   5.337   4.627   4.276  0.1282  0.5384 -0.1730
15037TIP3    H166602   5.325   4.634   4.371  1.2633  0.6225 -0.0112
15037TIP3    H266603   5.430   4.648   4.263  0.6829 -2.1118 -1.0227
15038TIP3   OH266604   3.715   4.189  15.465 -0.1786  0.3711 -0.2110
15038TIP3    H166605   3.797   4.195  15.514 -0.5063 -0.7469  0.5162
15038TIP3    H266606   3.742   4.191  15.373  0.7095 -0.3800  0.0151
15039TIP3   OH266607   2.725   1.327  16.831 -0.5235 -0.2380  0.2210
15039TIP3    H166608   2.792   1.263  16.805  1.2236  0.5528  2.4739
15039TIP3    H266609   2.717   1.386  16.756  1.4861 -0.2328 -0.0275
15040TIP3   OH266610   6.802   1.543   0.553 -0.1656  0.5002  0.3240
15040TIP3    H166611   6.848   1.553   0.470  0.2925  0.3992  0.5597
15040TIP3    H266612   6.847   1.471   0.597  0.2591  1.2090  1.0926
15041TIP3   OH266613   1.644   3.911  13.980  0.1853  0.3239 -0.0524
15041TIP3    H166614   1.633   4.000  14.013  0.2730 -1.1876  4.8963
15041TIP3    H266615   1.554   3.876  13.977  0.3444 -0.3002  1.3549
15042TIP3   OH266616   3.103   4.736   2.408  0.6455 -0.4927  0.5542
15042TIP3    H166617   3.061   4.725   2.323  1.7330 -0.0194 -0.0718
15042TIP3    H266618   3.100   4.650   2.448  1.0803 -0.9847 -0.4376
15043TIP3   OH266619   1.808   4.855   4.727 -0.3484 -0.1909  0.8564
15043TIP3    H166620   1.724   4.866   4.683  0.3313  1.1557 -0.1751
15043TIP3    H266621   1.796   4.896   4.813 -0.1793  1.9334 -0.0621
15044TIP3   OH266622   0.554   5.179   1.070 -0.3670  0.6052  0.3648
15044TIP3    H166623   0.630   5.122   1.062  0.0630  1.1397  0.5138
15044TIP3    H266624   0.543   5.192   1.164 -1.0922 -0.0420  0.3817
15045TIP3   OH266625   2.172   1.136  12.288 -0.0983 -0.0470  0.0539
15045TIP3    H166626   2.108   1.197  12.325  0.1635 -0.3180  0.9871
15045TIP3    H266627   2.208   1.090  12.364  2.2310  1.0972 -0.2677
15046TIP3   OH266628   6.824   0.895  12.073 -0.2579 -0.4699  0.3672
15046TIP3    H166629   6.918   0.879  12.058 -0.2286 -1.0139  1.1080
15046TIP3    H266630   6.816   0.991  12.070  0.4992 -0.3597  1.2324
15047TIP3   OH266631   2.479   2.287   0.357  0.9601  0.0949  0.4685
15047TIP3    H166632   2.405   2.319   0.408 -0.3662  2.3433 -2.6215
15047TIP3    H266633   2.555   2.300   0.415 -0.4030  2.7241  1.8494
15048TIP3   OH266634   5.238   0.506  14.869  0.3844 -0.0982 -0.4039
15048TIP3    H166635   5.169   0.564  14.838 -0.3819 -1.5220 -1.5149
15048TIP3    H266636   5.265   0.458  14.790  2.5083  0.2681  0.0477
15049TIP3   OH266637   5.777   5.200  12.783  0.5313  0.9651  0.1482
15049TIP3    H166638   5.799   5.132  12.845  0.6445  2.2808  1.6096
15049TIP3    H266639   5.684   5.217  12.797  0.2212  0.3554 -1.0097
15050TIP3   OH266640   4.469   6.658  15.670  0.6023 -0.2945 -0.2925
15050TIP3    H166641   4.445   6.567  15.655  2.4865 -0.9904  0.6514
15050TIP3    H266642   4.392   6.696  15.713  0.1613 -1.6939  0.2182
15051TIP3   OH266643   5.202   4.960   3.720 -0.1060  0.3782  0.0761
15051TIP3    H166644   5.197   5.030   3.655  4.1063  0.6535 -0.2162
15051TIP3    H266645   5.198   5.006   3.804 -1.3080  0.4808 -0.0220
15052TIP3   OH266646   3.208   2.346   4.282  0.4443  0.1258 -0.3845
15052TIP3    H166647   3.188   2.424   4.230  3.0869  1.3321  0.2464
15052TIP3    H266648   3.301   2.356   4.305  0.1429 -1.8471  2.0406
15053TIP3   OH266649   5.588   6.385  14.609  0.2350 -0.0944  0.1240
15053TIP3    H166650   5.593   6.305  14.662 -0.3210  0.9281  1.7996
15053TIP3    H266651   5.573   6.353  14.520 -2.3499 -1.8603  1.0592
15054TIP3   OH266652   5.178   2.428   3.444 -0.0850 -0.3140 -0.2481
15054TIP3    H166653   5.101   2.479   3.468  0.3118  0.0676  0.2203
15054TIP3    H266654   5.219   2.477   3.373 -0.0333 -0.2936 -0.2041
15055TIP3   OH266655   3.714   6.337   2.863  0.0138 -0.0809  0.2458
15055TIP3    H166656   3.691   6.430   2.860 -4.2878 -0.9701 -0.9262
15055TIP3    H266657   3.715   6.316   2.957  3.3882  1.4323  0.7105
15056TIP3   OH266658   1.704   6.064  15.416 -0.2101  0.1554 -0.3396
15056TIP3    H166659   1.655   6.127  15.470  1.4132  0.3765  0.9348
15056TIP3    H266660   1.658   5.981  15.428 -0.7187  0.5118  0.2155
15057TIP3   OH266661   2.993   4.039   1.598 -0.8485  0.0116  0.0158
15057TIP3    H166662   2.958   4.127   1.613  0.4219  0.6949 -0.8441
15057TIP3    H266663   2.917   3.981   1.608 -2.0877  1.3550 -1.1231
15058TIP3   OH266664   3.227   0.584   1.244 -0.3470  0.3748 -0.1589
15058TIP3    H166665   3.227   0.503   1.295  0.2510  0.2918 -0.2823
15058TIP3    H266666   3.309   0.581   1.195  0.1519  1.5066  0.5554
15059TIP3   OH266667   5.410   2.124  14.749  0.2660  0.2539  0.1834
15059TIP3    H166668   5.318   2.145  14.764  0.9013  3.1372  0.6752
15059TIP3    H266669   5.439   2.082  14.830 -0.2836  0.6609  0.5973
15060TIP3   OH266670   5.811   0.430  13.965 -0.4123  0.3821 -0.5819
15060TIP3    H166671   5.744   0.495  13.986 -1.7566 -1.3226  0.6255
15060TIP3    H266672   5.766   0.346  13.970  1.0169 -0.6330 -3.2128
15061TIP3   OH266673   4.954   3.638   0.542 -0.2721 -0.6836  0.0427
15061TIP3    H166674   5.012   3.573   0.503  0.6503  0.9147 -1.4140
15061TIP3    H266675   4.873   3.632   0.492 -0.5152 -1.3042  0.5039
15062TIP3   OH266676   0.869   5.148   5.403  0.1200  0.2026 -0.2679
15062TIP3    H166677   0.850   5.239   5.381 -1.0208 -0.4087 -2.0683
15062TIP3    H266678   0.846   5.100   5.324  3.2277 -1.3903 -0.3309
15063TIP3   OH266679   2.505   0.208   4.343  0.1171 -0.1172  0.3634
15063TIP3    H166680   2.502   0.112   4.352  2.7941 -0.2085  1.0890
15063TIP3    H266681   2.578   0.235   4.399 -1.1286  2.4822  0.8706
15064TIP3   OH266682   5.352   1.652  11.950  0.1119  0.0743 -0.3770
15064TIP3    H166683   5.430   1.651  12.006 -1.1749 -1.4340  1.4632
15064TIP3    H266684   5.312   1.737  11.967  1.1235  0.7263 -1.0913
15065TIP3   OH266685   0.544   3.924  16.334 -0.6763 -0.1040  0.6423
15065TIP3    H166686   0.480   3.892  16.270 -1.0520  0.7705  0.5680
15065TIP3    H266687   0.623   3.872  16.317 -0.9125 -0.1929 -0.2342
15066TIP3   OH266688   0.188   4.645  17.110 -0.2613 -0.2975  0.4230
15066TIP3    H166689   0.246   4.632  17.034  1.2259 -3.8219  1.9744
15066TIP3    H266690   0.248   4.660  17.183 -1.3816 -1.7626  1.6949
15067TIP3   OH266691   4.874   3.086   4.550  0.2618  0.5401  0.3029
15067TIP3    H166692   4.856   2.993   4.566 -2.8475  0.9494 -0.3023
15067TIP3    H266693   4.944   3.086   4.484 -1.3057 -1.4653 -1.4856
15068TIP3   OH266694   3.074   0.476  11.434 -0.2406 -0.5631  0.5305
15068TIP3    H166695   3.130   0.553  11.446  0.7251 -0.8415 -1.6912
15068TIP3    H266696   3.000   0.508  11.382 -0.1423 -0.9857  0.1205
15069TIP3   OH266697   4.806   4.011  16.306  0.1039  0.1849 -0.0779
15069TIP3    H166698   4.858   4.041  16.381 -0.0623 -1.3275  0.6916
15069TIP3    H266699   4.731   3.966  16.346 -2.3827  3.0898 -1.1231
15070TIP3   OH266700   2.345   4.035  14.753  0.2750 -0.4064  0.3178
15070TIP3    H166701   2.425   4.035  14.701 -0.2492 -0.4563 -0.4997
15070TIP3    H266702   2.277   4.007  14.692 -0.5399  0.6100  0.7381
15071TIP3   OH266703   3.519   0.238   4.661  0.4821  0.6469  0.6323
15071TIP3    H166704   3.449   0.186   4.699 -1.4134  0.9548 -2.1190
15071TIP3    H266705   3.576   0.259   4.734 -1.6937 -0.5594  2.8199
15072TIP3   OH266706   2.572   2.372   1.909 -0.5080  0.0543  0.0134
15072TIP3    H166707   2.667   2.381   1.899 -0.3395  0.6168  1.7928
15072TIP3    H266708   2.537   2.459   1.890 -0.4246  0.4319  1.4258
15073TIP3   OH266709   4.034   2.734   1.595  0.3640  0.1502 -1.1162
15073TIP3    H166710   3.961   2.678   1.570 -0.0361  0.0127  0.3042
15073TIP3    H266711   4.101   2.674   1.627 -0.7080  0.4497  2.0795
15074TIP3   OH266712   2.316   5.655  12.655  0.0395 -0.4479  0.1601
15074TIP3    H166713   2.321   5.737  12.605  1.7193 -1.4350 -1.4094
15074TIP3    H266714   2.350   5.677  12.742  0.0043  0.6186 -0.0853
15075TIP3   OH266715   4.501   1.763   2.829  0.0557 -0.0907 -0.7362
15075TIP3    H166716   4.479   1.789   2.739 -0.0032 -1.0641 -1.0135
15075TIP3    H266717   4.476   1.671   2.834 -0.0783 -0.0056  0.3299
15076TIP3   OH266718   3.220   3.710  11.992 -0.2552 -0.1572  0.1010
15076TIP3    H166719   3.197   3.767  11.919 -3.0892  1.6654  2.2329
15076TIP3    H266720   3.180   3.626  11.970  0.6638 -0.2575 -1.3131
15077TIP3   OH266721   0.248   2.237  16.725  0.8068 -0.2543  0.8146
15077TIP3    H166722   0.336   2.273  16.736  1.3362 -0.9011 -0.9894
15077TIP3    H266723   0.247   2.203  16.636 -1.2722 -0.3028  0.8140
15078TIP3   OH266724   5.925   5.077  13.833 -0.3468  0.4184  0.4561
15078TIP3    H166725   5.904   5.107  13.921  2.2199  1.8650  0.6752
15078TIP3    H266726   5.920   5.156  13.779  0.8836  0.1291 -0.1091
15079TIP3   OH266727   6.048   2.952   3.297 -0.4306  0.4065 -0.2680
15079TIP3    H166728   6.014   2.892   3.363  1.8679  0.7910  1.3745
15079TIP3    H266729   6.122   2.906   3.258 -0.3476  1.0961 -0.9673
15080TIP3   OH266730   4.573   1.525  11.667  0.3912 -0.4200  0.1340
15080TIP3    H166731   4.580   1.435  11.636  1.3690 -0.4350  0.3895
15080TIP3    H266732   4.649   1.570  11.631 -0.8477  0.6993 -1.2382
15081TIP3   OH266733   5.443   2.683  17.036  0.7042 -0.5929 -0.1055
15081TIP3    H166734   5.468   2.711  17.124  0.5608 -1.5365  0.2438
15081TIP3    H266735   5.383   2.751  17.005 -0.1580 -0.8425  0.9767
15082TIP3   OH266736   4.455   6.489   6.438 -0.4754  0.5593 -0.2421
15082TIP3    H166737   4.508   6.427   6.389 -1.1532  0.2055 -0.5257
15082TIP3    H266738   4.512   6.515   6.512 -0.4237 -0.8819  0.2501
15083TIP3   OH266739   1.856   0.859  15.481 -0.2067 -0.4434  0.5152
15083TIP3    H166740   1.764   0.844  15.499 -0.3714  0.1155  0.1729
15083TIP3    H266741   1.884   0.922  15.548  0.3957 -1.9660  1.7475
15084TIP3   OH266742   3.195   3.810  16.862 -0.1360  0.0906 -0.2091
15084TIP3    H166743   3.123   3.770  16.911  0.0036  0.2469  0.1254
15084TIP3    H266744   3.213   3.891  16.909 -0.8412  0.8779 -1.2395
15085TIP3   OH266745   4.009   4.206  12.957  0.9042 -0.4520 -0.0336
15085TIP3    H166746   3.938   4.195  13.021  0.2955 -1.1079 -0.8024
15085TIP3    H266747   4.082   4.158  12.995  1.4994  1.5739  1.5555
15086TIP3   OH266748   1.787   5.094  11.703  0.0930 -0.1786  0.7172
15086TIP3    H166749   1.768   5.125  11.614 -0.3429  2.3575  1.6207
15086TIP3    H266750   1.879   5.069  11.700  0.0111 -0.4038 -0.5193
15087TIP3   OH266751   0.370   0.395   6.249  0.2502  0.5566  0.9121
15087TIP3    H166752   0.426   0.472   6.259 -0.3292  1.0131  0.6841
15087TIP3    H266753   0.430   0.326   6.221  0.6116  1.2072  0.0159
15088TIP3   OH266754   2.852   5.788   1.735  0.3069 -0.6552 -0.0113
15088TIP3    H166755   2.911   5.719   1.764  2.7361  0.3545 -2.1768
15088TIP3    H266756   2.806   5.817   1.814  2.5941 -1.6005  1.7468
15089TIP3   OH266757   2.871   0.225  15.944 -0.3389 -0.3322  0.7095
15089TIP3    H166758   2.870   0.135  15.975 -2.0087  0.0307  1.8838
15089TIP3    H266759   2.895   0.276  16.022  3.2491  0.1530 -0.5111
15090TIP3   OH266760   2.287   2.674   2.653 -0.6630  0.1539 -0.8040
15090TIP3    H166761   2.253   2.604   2.708  0.6468 -1.0670 -1.4849
15090TIP3    H266762   2.241   2.664   2.570 -0.7413  0.3292 -0.7814
15091TIP3   OH266763   3.575   4.932  12.662  0.1328  0.6920  0.6757
15091TIP3    H166764   3.606   4.976  12.583 -1.2384  0.8160  0.1907
15091TIP3    H266765   3.627   4.971  12.733  0.4370  1.5484 -0.0025
15092TIP3   OH266766   1.299   3.462  15.687  0.8472 -0.2932  0.1774
15092TIP3    H166767   1.289   3.471  15.592 -0.1807  0.0853  0.3033
15092TIP3    H266768   1.209   3.459  15.720  1.0297  3.0768  1.4588
15093TIP3   OH266769   1.662   3.753   2.693 -0.3034 -0.0126  0.6065
15093TIP3    H166770   1.694   3.714   2.611 -0.1858 -0.9568  1.0919
15093TIP3    H266771   1.568   3.759   2.681 -0.2951 -0.2042  0.4234
15094TIP3   OH266772   6.622   3.363  14.077  0.4118 -0.5115 -0.3434
15094TIP3    H166773   6.702   3.413  14.090 -0.0422  0.2967 -0.5915
15094TIP3    H266774   6.618   3.349  13.982 -0.2691  0.3714 -0.4603
15095TIP3   OH266775   2.401   4.437  13.157  0.2307  0.0642  0.3093
15095TIP3    H166776   2.331   4.498  13.182 -0.9780 -1.0572 -0.2298
15095TIP3    H266777   2.459   4.488  13.100 -0.7727  0.7021 -0.1636
15096TIP3   OH266778   5.618   3.083   0.414 -0.4478  0.4582 -0.4136
15096TIP3    H166779   5.591   3.174   0.401  1.3739  0.8878 -1.7001
15096TIP3    H266780   5.704   3.077   0.372  0.5525 -1.2884  1.6543
15097TIP3   OH266781   0.151   3.828  14.762 -0.3438 -0.2239  0.8491
15097TIP3    H166782   0.228   3.771  14.765  0.1048  0.3670  0.9189
15097TIP3    H266783   0.186   3.915  14.780 -1.1523 -0.0535  1.6275
15098TIP3   OH266784   6.258   0.973  10.709  0.2595 -0.7284  0.0333
15098TIP3    H166785   6.243   1.041  10.643  0.5081 -0.7977 -0.0967
15098TIP3    H266786   6.247   0.891  10.661 -0.5901 -0.7909  0.3111
15099TIP3   OH266787   2.613   5.248  13.997 -0.1316 -0.1817 -0.7947
15099TIP3    H166788   2.635   5.193  13.922 -1.7577 -0.2610 -1.2704
15099TIP3    H266789   2.697   5.272  14.036  0.6899 -1.2345 -1.8477
15100TIP3   OH266790   5.996   2.440   5.065 -0.7174  0.2133 -0.5790
15100TIP3    H166791   6.069   2.381   5.045 -1.1588  0.0287 -1.7209
15100TIP3    H266792   6.032   2.502   5.128  0.5160  0.3125 -1.3501
15101TIP3   OH266793   1.960   3.974   0.296 -0.1144 -0.5625  0.0130
15101TIP3    H166794   1.885   3.961   0.238  0.2662  0.8339 -0.8416
15101TIP3    H266795   2.013   4.041   0.252  0.6006 -0.0515  1.5780
15102TIP3   OH266796   3.833   0.368  12.036 -0.0304  0.1202 -0.0176
15102TIP3    H166797   3.889   0.434  12.077  0.2338 -1.0950  1.7404
15102TIP3    H266798   3.872   0.284  12.064 -2.2281 -0.7671  0.5864
15103TIP3   OH266799   6.073   3.111   5.909  0.5286 -0.5220  0.3294
15103TIP3    H166800   6.085   3.142   5.999  0.4067 -1.6659  0.7558
15103TIP3    H266801   6.033   3.185   5.863  1.5464  0.4325  0.9531
15104TIP3   OH266802   0.152   5.664   3.952 -0.1142 -0.1368  0.4386
15104TIP3    H166803   0.076   5.665   3.894 -0.7198  1.3254  1.2037
15104TIP3    H266804   0.139   5.588   4.008 -0.3774 -0.6022 -0.2441
15105TIP3   OH266805   5.111   0.825  16.103 -0.1116 -0.3859  0.4545
15105TIP3    H166806   5.188   0.768  16.104  1.0760  1.1676  0.7832
15105TIP3    H266807   5.106   0.859  16.192  0.0230  1.0664 -0.0726
15106TIP3   OH266808   5.968   4.862   3.050  0.3549  0.4500 -0.0075
15106TIP3    H166809   6.024   4.817   3.113  0.1529  0.5025  0.2067
15106TIP3    H266810   5.916   4.793   3.009  2.5962 -0.0478 -2.3111
15107TIP3   OH266811   2.787   4.282   5.028  0.6693 -0.1736  0.0638
15107TIP3    H166812   2.771   4.338   5.104 -2.2399 -0.6448 -0.0660
15107TIP3    H266813   2.824   4.202   5.065 -0.0304 -0.1138  0.9291
15108TIP3   OH266814   3.857   4.294  14.143 -0.1346 -0.3740 -0.3143
15108TIP3    H166815   3.920   4.300  14.071 -0.7355 -0.6517 -0.8824
15108TIP3    H266816   3.820   4.382  14.151  1.0192  0.0343  0.6787
15109TIP3   OH266817   4.602   6.822  14.410  0.8290 -0.2905  0.0399
15109TIP3    H166818   4.696   6.842  14.414  0.7346  0.1240  0.3581
15109TIP3    H266819   4.562   6.905  14.384  0.5689 -0.5166 -0.2745
15110TIP3   OH266820   0.840   4.200  15.936  0.2619  0.4719 -0.2295
15110TIP3    H166821   0.763   4.247  15.968  0.2488  1.2094 -1.3072
15110TIP3    H266822   0.893   4.267  15.892  1.4036 -0.0693  0.2780
15111TIP3   OH266823   2.072   1.563  11.489 -0.1520 -0.0150 -0.1588
15111TIP3    H166824   2.047   1.513  11.412 -0.6852 -0.7122  0.4482
15111TIP3    H266825   1.989   1.583  11.533  0.1752 -0.1001  0.5179
15112TIP3   OH266826   2.254   0.039   3.601  0.0956  0.1793 -0.1424
15112TIP3    H166827   2.225  -0.035   3.655 -2.1558  0.6011 -0.6738
15112TIP3    H266828   2.202   0.032   3.521  1.6938  0.9042 -1.2822
15113TIP3   OH266829   4.279   1.325  11.642  0.0342  0.2212 -0.0083
15113TIP3    H166830   4.280   1.416  11.611  0.7749 -0.8449 -3.6097
15113TIP3    H266831   4.369   1.295  11.633 -0.5848 -1.4687 -1.0351
15114TIP3   OH266832   2.235   6.611   2.151  0.6498 -0.4805  0.1018
15114TIP3    H166833   2.272   6.523   2.152  0.4138 -0.5994 -0.9308
15114TIP3    H266834   2.304   6.666   2.113  0.2243 -0.4870 -0.6812
15115TIP3   OH266835   6.215   5.235  15.290 -0.1680  0.6395 -0.3969
15115TIP3    H166836   6.309   5.219  15.295 -0.0951  0.9972 -0.5755
15115TIP3    H266837   6.185   5.181  15.217 -0.7095 -2.1852  1.7344
15116TIP3   OH266838   3.881   4.124  11.392  0.1828 -0.1342  0.1651
15116TIP3    H166839   3.916   4.046  11.350 -0.1522  1.0777 -2.5941
15116TIP3    H266840   3.817   4.159  11.330 -1.3508  1.1400  2.3005
15117TIP3   OH266841   3.629   1.734  16.163 -0.2349  0.3359  0.0755
15117TIP3    H166842   3.678   1.712  16.084  0.5950 -2.7948  1.3002
15117TIP3    H266843   3.686   1.794  16.210 -0.7369  2.2415 -1.6006
15118TIP3   OH266844   2.475   3.983  13.692  0.5190 -0.6878 -0.2848
15118TIP3    H166845   2.447   3.995  13.601  2.5552 -2.4835 -1.2192
15118TIP3    H266846   2.564   3.949  13.686  0.2663 -2.0536  2.3518
15119TIP3   OH266847   0.997   0.118  11.864  0.5757  0.3084  0.4292
15119TIP3    H166848   1.020   0.039  11.913 -0.8254 -0.1002  0.4753
15119TIP3    H266849   0.962   0.086  11.781 -0.1191  0.8662  0.4966
15120TIP3   OH266850   0.865   4.760  15.451  0.6477  0.0737  0.2426
15120TIP3    H166851   0.960   4.760  15.440  0.4632  2.7193 -2.8821
15120TIP3    H266852   0.845   4.849  15.478 -1.0184 -0.2024 -0.0205
15121TIP3   OH266853   0.414   3.417  12.209  0.1505  0.8217 -0.0761
15121TIP3    H166854   0.491   3.436  12.156 -1.0757  1.7517 -1.5886
15121TIP3    H266855   0.361   3.360  12.154 -0.9960  1.5397  0.2627
15122TIP3   OH266856   0.301   4.040   2.771  0.4481  0.1839 -0.4737
15122TIP3    H166857   0.393   4.022   2.752 -0.1230 -2.0569 -1.3821
15122TIP3    H266858   0.270   3.962   2.818 -0.9566  0.9534 -0.0640
15123TIP3   OH266859   1.238   1.776   3.118 -0.0113  0.2516  0.2866
15123TIP3    H166860   1.240   1.808   3.208 -0.9184 -2.4698  1.3898
15123TIP3    H266861   1.312   1.716   3.112  0.0617  0.4269 -0.8075
15124TIP3   OH266862   0.408   1.419  11.194  0.5461  0.9281  0.2878
15124TIP3    H166863   0.330   1.395  11.144  2.0088  0.9789 -2.1956
15124TIP3    H266864   0.408   1.359  11.268 -1.5149  0.5421  0.0557
15125TIP3   OH266865   3.273   2.186  16.223 -0.0900 -0.4799 -0.0204
15125TIP3    H166866   3.303   2.198  16.132 -1.5185 -0.0007 -0.4633
15125TIP3    H266867   3.186   2.147  16.214 -0.6589  0.4772  1.1011
15126TIP3   OH266868   4.144   6.393   2.626 -0.0949 -0.2762 -0.0975
15126TIP3    H166869   4.069   6.342   2.657  2.6119 -3.6473  1.5884
15126TIP3    H266870   4.114   6.484   2.630 -3.8838 -1.3678  0.9075
15127TIP3   OH266871   0.938   3.505   1.574  0.8690 -0.1865 -0.3354
15127TIP3    H166872   0.898   3.591   1.586  0.1097 -0.4802 -0.7215
15127TIP3    H266873   1.017   3.507   1.629  1.5376  1.1865 -1.2877
15128TIP3   OH266874   3.883   6.629   0.889 -0.4849  0.2753  0.5605
15128TIP3    H166875   3.816   6.628   0.957 -0.9345  0.1164  0.1197
15128TIP3    H266876   3.861   6.705   0.835 -0.9068 -0.3559 -0.1714
15129TIP3   OH266877   4.657   3.183   1.029  0.3751 -0.2278  0.3264
15129TIP3    H166878   4.694   3.263   0.990  0.3328 -0.0917  0.5671
15129TIP3    H266879   4.733   3.133   1.058  0.3639  0.1491  1.0137
15130TIP3   OH266880   6.376   0.775  11.443 -0.6087 -0.6068 -0.1832
15130TIP3    H166881   6.336   0.704  11.394 -1.7674 -0.5770  0.6637
15130TIP3    H266882   6.405   0.734  11.525  1.6378 -0.7389 -0.9960
15131TIP3   OH266883   3.424   4.419   4.959 -0.3135  0.4394  0.3139
15131TIP3    H166884   3.391   4.406   4.870  1.1807 -0.7446 -0.1156
15131TIP3    H266885   3.451   4.511   4.961  0.0197  0.3773 -0.6226
15132TIP3   OH266886   4.241   0.879  14.182 -0.5200  0.2561 -0.6026
15132TIP3    H166887   4.155   0.862  14.141 -0.7865 -0.9799  0.4040
15132TIP3    H266888   4.287   0.933  14.118 -2.1010  1.0801 -1.1099
15133TIP3   OH266889   6.338   3.596  17.055  0.0472 -0.1931  0.0383
15133TIP3    H166890   6.265   3.640  17.098  1.4329  1.2472  1.0411
15133TIP3    H266891   6.359   3.522  17.112 -0.4924 -0.4899 -0.1470
15134TIP3   OH266892   4.001   0.423   5.786 -0.6315  0.0906 -0.0283
15134TIP3    H166893   3.949   0.486   5.737  0.6422  0.2019 -1.3033
15134TIP3    H266894   4.028   0.358   5.721  0.4338 -0.2038  0.6862
15135TIP3   OH266895   2.205   3.453   2.740  0.2830 -0.6002  0.5126
15135TIP3    H166896   2.199   3.508   2.661  2.8318 -2.0167 -0.7963
15135TIP3    H266897   2.119   3.459   2.780 -0.4601  1.8774 -1.2249
15136TIP3   OH266898   4.486   6.248   4.800 -0.2077  0.2260 -0.5944
15136TIP3    H166899   4.399   6.276   4.773 -1.5911 -0.9615  2.2159
15136TIP3    H266900   4.523   6.325   4.844  0.3979  0.8778 -2.1946
15137TIP3   OH266901   1.374   6.830  15.742 -0.4466 -0.1664  0.1216
15137TIP3    H166902   1.333   6.872  15.818 -1.6730 -1.6904  0.3678
15137TIP3    H266903   1.301   6.793  15.693  0.4761 -0.8048 -0.8143
15138TIP3   OH266904   1.467   5.817  13.750  0.0172  0.3137 -0.2796
15138TIP3    H166905   1.485   5.725  13.770 -0.8274  0.6539  2.5646
15138TIP3    H266906   1.410   5.815  13.673  0.7497 -1.4733 -0.8121
15139TIP3   OH266907   3.322   3.204   3.085 -0.3833  0.5238 -0.0719
15139TIP3    H166908   3.325   3.258   3.164  1.2207 -0.3890  0.5432
15139TIP3    H266909   3.259   3.135   3.105 -0.5278  0.7114  0.1228
15140TIP3   OH266910   0.535   3.474  15.649  0.0124 -0.4642 -0.4097
15140TIP3    H166911   0.576   3.430  15.575 -1.2314 -1.6175 -0.4500
15140TIP3    H266912   0.607   3.515  15.696  1.1603 -2.1183 -0.6800
15141TIP3   OH266913   0.799   2.820   1.341 -0.1843  0.0819 -0.1618
15141TIP3    H166914   0.870   2.826   1.278 -1.1810 -1.3462 -1.4879
15141TIP3    H266915   0.838   2.848   1.424  0.7504  3.6112 -1.6205
15142TIP3   OH266916   4.938   5.302   2.176  0.4865 -0.1953  0.2973
15142TIP3    H166917   5.031   5.321   2.178  0.4495 -0.0637  1.2181
15142TIP3    H266918   4.932   5.218   2.130  0.9777  0.1622 -0.4469
15143TIP3   OH266919   5.985   1.543   5.073 -0.0765 -0.1367  0.1576
15143TIP3    H166920   6.013   1.617   5.127 -0.9538  0.3726 -0.0629
15143TIP3    H266921   6.037   1.469   5.105  0.2412  0.4025  0.9202
15144TIP3   OH266922   2.849   3.095  13.315 -0.0171  0.1860 -0.3878
15144TIP3    H166923   2.758   3.126  13.318  0.0503  0.3293  0.4133
15144TIP3    H266924   2.863   3.055  13.401 -0.7621 -4.0100 -2.0226
15145TIP3   OH266925   3.818   1.693  12.237 -0.4590 -0.0330 -0.5787
15145TIP3    H166926   3.778   1.621  12.188 -0.2897 -0.7296  0.2881
15145TIP3    H266927   3.866   1.743  12.170  0.2570 -1.2985 -1.0591
15146TIP3   OH266928   6.809   5.505  15.038  0.4657 -0.0758 -0.0270
15146TIP3    H166929   6.854   5.480  15.118  1.1633  2.1058  0.3370
15146TIP3    H266930   6.852   5.454  14.969  1.8182  0.1240  0.6354
15147TIP3   OH266931   3.717   5.828   3.250  0.2576 -0.1007 -0.3003
15147TIP3    H166932   3.651   5.759   3.247  0.0107  0.0941  0.6271
15147TIP3    H266933   3.682   5.893   3.311  1.3336 -0.0312  0.2658
15148TIP3   OH266934   1.487   6.034  14.548  0.6242 -0.2340 -0.0245
15148TIP3    H166935   1.498   6.066  14.458  1.4001  0.0832  0.1800
15148TIP3    H266936   1.568   6.058  14.592 -0.0379  0.2293  0.9577
15149TIP3   OH266937   2.191   5.404   2.483  0.1367  0.6370  0.3251
15149TIP3    H166938   2.162   5.313   2.474  0.2220  0.6216  0.2099
15149TIP3    H266939   2.169   5.427   2.574 -0.7730  0.8166  0.0654
15150TIP3   OH266940   4.472   6.437  13.808  0.2329 -0.0045  0.4065
15150TIP3    H166941   4.532   6.436  13.883  0.9258 -2.7297 -0.1023
15150TIP3    H266942   4.501   6.365  13.753 -0.9483  1.2318 -1.9930
15151TIP3   OH266943   5.039   6.530  12.932 -0.0413 -0.0310 -0.0872
15151TIP3    H166944   5.038   6.473  12.855  0.8660  0.1878 -0.2731
15151TIP3    H266945   4.954   6.575  12.929  0.5718  1.1241 -1.8373
15152TIP3   OH266946   1.913   5.274   5.364 -0.5835  0.0355  0.0943
15152TIP3    H166947   1.862   5.354   5.349 -0.7121  0.1076  0.8983
15152TIP3    H266948   1.855   5.218   5.415 -1.0229 -1.1474 -1.5913
15153TIP3   OH266949   6.036   4.684   2.129  0.3929  0.1817  0.2214
15153TIP3    H166950   5.960   4.729   2.165 -0.0483 -0.0114 -0.4460
15153TIP3    H266951   6.109   4.743   2.145 -0.1546  1.0832 -0.5099
15154TIP3   OH266952   2.342   5.652  16.863 -0.1464  0.5874 -0.6876
15154TIP3    H166953   2.312   5.717  16.926  0.8465  1.1415 -0.7792
15154TIP3    H266954   2.261   5.617  16.825 -0.7649  0.3183  0.7950
15155TIP3   OH266955   3.741   6.633  12.913  0.1745  0.3697 -0.4083
15155TIP3    H166956   3.810   6.639  12.979  0.8691  0.4017 -1.1250
15155TIP3    H266957   3.734   6.721  12.877 -1.0380  0.6424  0.4349
15156TIP3   OH266958   5.480   1.633  11.717 -0.2363  0.2169  1.0833
15156TIP3    H166959   5.448   1.696  11.653 -0.4891 -2.1255 -1.3127
15156TIP3    H266960   5.412   1.629  11.784  0.4453  3.3974  2.1322
15157TIP3   OH266961   2.461   0.794   3.457  0.4380  0.6015  0.2754
15157TIP3    H166962   2.437   0.860   3.522  2.8189  0.1019  1.7962
15157TIP3    H266963   2.467   0.842   3.374 -1.0537  1.5854  0.7148
15158TIP3   OH266964   0.163   2.607  12.403 -0.6619  0.4975  0.1816
15158TIP3    H166965   0.111   2.596  12.482 -0.7321  0.6126  0.1518
15158TIP3    H266966   0.246   2.644  12.434  0.0023 -1.1255  0.4081
15159TIP3   OH266967   4.044   1.347  16.095  0.5353 -0.2258  0.2424
15159TIP3    H166968   4.091   1.266  16.076  0.1291 -0.8767  1.8017
15159TIP3    H266969   4.108   1.400  16.143  0.6847  0.2422 -0.4597
15160TIP3   OH266970   5.812   2.805  13.182  0.3377 -0.6149 -0.3178
15160TIP3    H166971   5.827   2.711  13.192 -0.2692 -0.7370 -0.5194
15160TIP3    H266972   5.776   2.832  13.267  1.3098 -0.3916  0.0385
15161TIP3   OH266973   2.896   1.920  16.063 -0.3883 -0.0240  0.2288
15161TIP3    H166974   2.950   1.845  16.086  0.8685  0.9149  0.4852
15161TIP3    H266975   2.817   1.911  16.117 -0.3431 -1.2308  0.1187
15162TIP3   OH266976   1.141   4.054  12.146 -0.2266 -0.5083  0.1363
15162TIP3    H166977   1.179   3.972  12.179  0.2882 -0.6631 -0.7881
15162TIP3    H266978   1.067   4.026  12.092  0.1058 -0.4051 -0.3919
15163TIP3   OH266979   3.826   3.628  11.583  0.0307  0.4905 -0.0183
15163TIP3    H166980   3.787   3.590  11.505 -1.8644  1.9582  0.1338
15163TIP3    H266981   3.832   3.722  11.564  1.0927  0.6471  0.9851
15164TIP3   OH266982   1.272   4.745  11.958 -0.1294 -0.4631 -0.6850
15164TIP3    H166983   1.324   4.775  11.884  0.1568  0.3849 -0.1593
15164TIP3    H266984   1.288   4.650  11.962 -0.5323 -0.5988 -1.9834
15165TIP3   OH266985   2.452   1.976  11.379  0.1854  0.5711 -0.0962
15165TIP3    H166986   2.511   1.944  11.311  0.3755 -0.3238  0.4802
15165TIP3    H266987   2.382   2.021  11.331 -0.6070 -1.5340 -1.0050
15166TIP3   OH266988   3.637   6.801   0.750 -0.4960  0.1394 -0.0779
15166TIP3    H166989   3.585   6.723   0.770  1.1462 -0.2491  3.3609
15166TIP3    H266990   3.587   6.873   0.787 -0.1958  0.1819  0.2549
15167TIP3   OH266991   4.474   3.521   5.210 -0.3060  0.4676 -0.4759
15167TIP3    H166992   4.532   3.585   5.251  1.1592 -1.7608  1.1725
15167TIP3    H266993   4.452   3.459   5.280 -2.4851 -0.3147 -1.7250
15168TIP3   OH266994   4.644   3.168  12.484  0.0481 -0.0034 -0.2286
15168TIP3    H166995   4.734   3.189  12.511  0.1073 -0.1975 -0.2752
15168TIP3    H266996   4.591   3.186  12.562  0.1851 -0.3162 -0.0610
15169TIP3   OH266997   2.141   4.112  15.464  0.2021 -0.3172 -0.1817
15169TIP3    H166998   2.203   4.056  15.511  0.9683  1.4110  1.0172
15169TIP3    H266999   2.165   4.103  15.372  1.8565 -0.1803  0.2034
15170TIP3   OH267000   4.345   1.843  15.226  0.0242 -0.1723 -0.0663
15170TIP3    H167001   4.400   1.920  15.243  0.6287 -0.3655 -1.0652
15170TIP3    H267002   4.269   1.878  15.180 -0.8379  0.1224  1.4793
15171TIP3   OH267003   2.082   6.465   4.127  0.1106 -0.2295  0.6171
15171TIP3    H167004   2.004   6.410   4.119 -0.5739  0.8981 -1.1502
15171TIP3    H267005   2.146   6.426   4.068 -0.3725  0.7817 -0.6316
15172TIP3   OH267006   2.756   6.308  14.950 -0.2870 -0.9115 -0.1546
15172TIP3    H167007   2.804   6.226  14.961  2.2823  0.4970 -0.1164
15172TIP3    H267008   2.722   6.328  15.037  2.7791  0.1306  0.9236
15173TIP3   OH267009   4.064   0.647   0.735 -0.5989 -0.2149  0.1386
15173TIP3    H167010   4.073   0.732   0.692  1.5087 -0.8345 -0.7629
15173TIP3    H267011   4.076   0.583   0.665  2.2155 -1.2436  1.4151
15174TIP3   OH267012   2.040   2.325   1.908 -0.4713 -0.2897 -0.4556
15174TIP3    H167013   1.951   2.293   1.920 -0.9186  1.5882  1.8336
15174TIP3    H267014   2.093   2.271   1.966 -0.7350  0.8864  0.9426
15175TIP3   OH267015   5.006   1.062  13.113  0.1773 -0.1317  0.3555
15175TIP3    H167016   5.033   0.990  13.168  1.4777 -0.6047 -0.8389
15175TIP3    H267017   4.992   1.023  13.027 -1.9812  0.5451  0.3421
15176TIP3   OH267018   4.323   4.081  15.410  0.0276 -0.2105 -0.0552
15176TIP3    H167019   4.296   3.994  15.380  0.3261 -0.5997  0.7740
15176TIP3    H267020   4.376   4.064  15.487  1.7272  0.5950 -0.9912
15177TIP3   OH267021   5.357   6.522  13.429  0.0195 -0.3799  0.6009
15177TIP3    H167022   5.264   6.505  13.412 -0.0428  0.4813  0.0389
15177TIP3    H267023   5.393   6.436  13.451 -0.7572 -0.8431  0.1045
15178TIP3   OH267024   2.302   5.097   3.953  0.8196  0.0516 -0.5270
15178TIP3    H167025   2.340   5.093   4.041 -0.5021 -0.3966  0.0513
15178TIP3    H267026   2.220   5.144   3.964  0.1141 -0.9524 -1.3183
15179TIP3   OH267027   5.604   2.379   4.231  0.2485 -0.0960  0.4225
15179TIP3    H167028   5.662   2.451   4.205  0.2741  0.4331  1.8647
15179TIP3    H267029   5.581   2.398   4.322 -3.5212  0.6245 -0.5028
15180TIP3   OH267030   0.434   1.944  16.335 -0.1471  0.3110 -0.6319
15180TIP3    H167031   0.421   1.995  16.415  1.6039  0.0011 -0.1004
15180TIP3    H267032   0.358   1.886  16.332 -0.0436  0.0218  1.0667
15181TIP3   OH267033   3.237   1.208   0.918  1.0552 -0.3684 -0.4383
15181TIP3    H167034   3.283   1.192   0.835  1.1347  0.1423 -0.5000
15181TIP3    H267035   3.145   1.194   0.897  1.1312 -0.8333 -0.4607
15182TIP3   OH267036   0.813   5.698  15.420  0.2024 -0.4324 -0.0460
15182TIP3    H167037   0.736   5.705  15.363 -1.4393  0.1855  2.1221
15182TIP3    H267038   0.880   5.658  15.365 -1.1334  0.5505 -2.5247
15183TIP3   OH267039   5.681   0.027   0.096  0.5655 -0.5096 -0.1335
15183TIP3    H167040   5.775   0.044   0.098  0.2925  1.1988  0.0228
15183TIP3    H267041   5.651   0.067   0.015 -0.5091  2.2889  1.4761
15184TIP3   OH267042   4.179   5.533  16.026  0.7384 -0.4152  0.3519
15184TIP3    H167043   4.237   5.589  15.973 -0.0221 -0.7617 -0.8881
15184TIP3    H267044   4.238   5.491  16.089  1.7413 -0.2761 -0.4533
15185TIP3   OH267045   2.613   2.571   3.654  0.2198 -0.2151  0.1994
15185TIP3    H167046   2.705   2.595   3.658  0.7316 -2.1072  1.6500
15185TIP3    H267047   2.575   2.607   3.734  0.5504 -2.2887  1.3706
15186TIP3   OH267048   6.175   6.497  16.230  0.3672 -0.5410 -0.3778
15186TIP3    H167049   6.245   6.492  16.294 -1.7897  1.5008  2.3862
15186TIP3    H267050   6.105   6.442  16.267 -0.5979 -0.0843 -1.4549
15187TIP3   OH267051   2.725   0.323   2.493 -0.0013 -0.0119  0.6144
15187TIP3    H167052   2.818   0.339   2.477 -0.2636  0.7527 -0.2520
15187TIP3    H267053   2.712   0.230   2.474  0.5788 -0.1201  0.7442
15188TIP3   OH267054   4.142   0.341  14.031  0.2183 -0.1845 -0.0136
15188TIP3    H167055   4.065   0.398  14.037  0.9491  0.8508 -0.2408
15188TIP3    H267056   4.135   0.300  13.945  1.6049  2.4572 -1.4989
15189TIP3   OH267057   5.216   5.410   0.988 -0.2140  0.4423 -0.2182
15189TIP3    H167058   5.129   5.416   1.027 -1.0559  0.6273 -2.0270
15189TIP3    H267059   5.233   5.498   0.955  0.8511  0.5120  0.4722
15190TIP3   OH267060   0.875   3.632  13.447 -0.1133 -0.3960  0.2263
15190TIP3    H167061   0.798   3.688  13.458  0.2224  0.1676 -0.2711
15190TIP3    H267062   0.946   3.692  13.428  0.1586 -1.0177 -0.7985
15191TIP3   OH267063   2.535   6.072   2.925 -0.2246  0.2678 -0.2829
15191TIP3    H167064   2.601   6.004   2.912  0.5234  1.0628 -0.7287
15191TIP3    H267065   2.569   6.149   2.879 -2.0034  0.3713 -1.5401
15192TIP3   OH267066   3.854   5.314  14.878  0.1549 -0.0681 -0.4818
15192TIP3    H167067   3.910   5.311  14.801  0.9868  0.9588  0.0666
15192TIP3    H267068   3.830   5.406  14.887 -1.4825 -0.4510 -0.5854
15193TIP3   OH267069   2.146   6.138  11.536 -0.0203  0.5172 -0.2021
15193TIP3    H167070   2.212   6.110  11.600  0.0062 -2.9436 -1.5069
15193TIP3    H267071   2.197   6.163  11.459 -0.1070 -0.9088 -0.7613
15194TIP3   OH267072   4.161   3.837   5.353 -0.6474  0.9867  0.2530
15194TIP3    H167073   4.235   3.859   5.297 -2.3478  3.0707 -1.3619
15194TIP3    H267074   4.147   3.743   5.337  1.2153  0.6914  0.1379
15195TIP3   OH267075   6.518   3.385  15.341 -0.2402  0.2939  0.0289
15195TIP3    H167076   6.468   3.448  15.394 -2.4328  0.4368 -2.0629
15195TIP3    H267077   6.506   3.302  15.386 -0.8224  0.6593  0.5736
15196TIP3   OH267078   2.394   4.379  14.163  0.4553  0.3614  0.3530
15196TIP3    H167079   2.441   4.336  14.092  3.1642  0.5733  1.8497
15196TIP3    H267080   2.316   4.417  14.122  1.4364 -0.2551 -2.2802
15197TIP3   OH267081   6.732   6.614  12.180 -0.2968 -0.5484 -0.5156
15197TIP3    H167082   6.791   6.671  12.230 -1.1851 -2.5075  3.1803
15197TIP3    H267083   6.650   6.664  12.175 -0.8147 -1.0335  1.9380
15198TIP3   OH267084   3.497   4.115   5.616 -0.1265  0.4744  0.2156
15198TIP3    H167085   3.465   4.039   5.567  0.0563  1.1669 -1.0137
15198TIP3    H267086   3.574   4.082   5.662  0.2616  0.0182 -0.7249
15199TIP3   OH267087   0.176   0.641   5.317 -0.0364  0.0883 -0.5274
15199TIP3    H167088   0.262   0.618   5.282  0.4072 -0.0533  0.6174
15199TIP3    H267089   0.119   0.568   5.291  0.9790 -1.5780  1.6211
15200TIP3   OH267090   2.448   4.111   3.023  0.1833  0.5381  0.2243
15200TIP3    H167091   2.542   4.128   3.014  0.5877 -1.5585 -0.2090
15200TIP3    H267092   2.419   4.091   2.934 -0.6857  1.1487  0.3555
15201TIP3   OH267093   1.342   3.855  13.995  0.1617 -0.2413  0.0167
15201TIP3    H167094   1.281   3.912  14.042  0.1667  0.2452 -0.5543
15201TIP3    H267095   1.333   3.881  13.904  0.4894 -0.8631 -0.1971
15202TIP3   OH267096   3.602   4.157   1.815  0.0878 -0.0429 -0.1371
15202TIP3    H167097   3.601   4.097   1.740  0.4441 -1.2836  0.8182
15202TIP3    H267098   3.511   4.186   1.825  0.1213  0.5375 -1.3376
15203TIP3   OH267099   6.048   4.705  16.081  0.2933  0.2076 -0.1051
15203TIP3    H167100   6.137   4.725  16.052  0.1426 -0.0427 -0.7670
15203TIP3    H267101   5.995   4.778  16.049  0.6934  1.9852  2.9338
15204TIP3   OH267102   5.377   0.860  11.658 -0.1941  0.0512  0.2570
15204TIP3    H167103   5.426   0.807  11.594 -0.3316  0.6620 -0.3608
15204TIP3    H267104   5.431   0.857  11.737  0.1553 -0.4215  0.0074
15205TIP3   OH267105   6.571   3.187   4.930  0.2689 -0.3132  0.1907
15205TIP3    H167106   6.583   3.095   4.950  2.5490 -0.2821 -0.7857
15205TIP3    H267107   6.533   3.188   4.842  0.7166 -0.3127 -0.0021
15206TIP3   OH267108   3.352   3.066   4.409 -0.1526 -0.3227 -0.0575
15206TIP3    H167109   3.293   3.087   4.336 -0.3722 -2.9362 -0.7232
15206TIP3    H267110   3.426   3.126   4.398 -1.1740  0.7927 -1.1463
15207TIP3   OH267111   6.595   5.700   2.713  0.3902 -0.0524 -0.0920
15207TIP3    H167112   6.504   5.731   2.711  1.3748  3.2830  0.6981
15207TIP3    H267113   6.625   5.717   2.802  1.9594 -0.5910 -0.4807
15208TIP3   OH267114   6.048   1.729  11.539  0.1328 -0.1356  0.3972
15208TIP3    H167115   5.956   1.726  11.565 -0.4490 -0.0307 -1.4759
15208TIP3    H267116   6.084   1.646  11.569 -0.3480  0.1309  1.8128
15209TIP3   OH267117   0.429   0.374   4.034  0.2231 -0.7056 -0.3336
15209TIP3    H167118   0.468   0.336   3.955  3.1433  1.2974 -0.0469
15209TIP3    H267119   0.375   0.446   4.002  0.7074 -0.4431 -0.5800
15210TIP3   OH267120   3.106   1.145  11.521  0.3515 -0.1413 -0.0972
15210TIP3    H167121   3.159   1.066  11.524 -0.8321 -0.9752 -0.0887
15210TIP3    H267122   3.091   1.160  11.428  1.1234  0.4773 -0.1319
15211TIP3   OH267123   5.772   0.255  12.271 -0.2875 -0.2309 -0.1041
15211TIP3    H167124   5.712   0.287  12.204 -0.1924  1.8488  0.7181
15211TIP3    H267125   5.736   0.171  12.298 -1.3436 -0.2460 -1.4426
15212TIP3   OH267126   5.217   6.707   5.174 -0.1499 -0.1064  0.2197
15212TIP3    H167127   5.138   6.682   5.126 -0.4107  1.9772 -0.5813
15212TIP3    H267128   5.261   6.769   5.115  1.2741 -0.0390  1.3111
15213TIP3   OH267129   1.918   1.905   0.004  0.0448 -0.1873 -0.3349
15213TIP3    H167130   1.946   1.978   0.060 -0.7404 -0.1171 -0.0127
15213TIP3    H267131   1.993   1.846   0.002  1.2048  1.2254 -1.6633
15214TIP3   OH267132   6.588   5.267  11.234  0.4870 -0.3989 -0.2360
15214TIP3    H167133   6.611   5.354  11.200 -0.4784  0.3126  0.8687
15214TIP3    H267134   6.505   5.280  11.280 -0.6149 -2.2649 -1.5241
15215TIP3   OH267135   0.997   0.067  11.379 -0.2271 -0.1433  0.5166
15215TIP3    H167136   1.069   0.048  11.438  0.8890 -0.5279 -0.9025
15215TIP3    H267137   0.970  -0.019  11.345 -0.4195  0.1187 -0.0119
15216TIP3   OH267138   3.252   1.141   3.532  0.3106 -0.7224  0.8287
15216TIP3    H167139   3.297   1.226   3.537  2.5958 -1.8679  1.0079
15216TIP3    H267140   3.302   1.084   3.590 -0.4430 -2.5071 -0.2065
15217TIP3   OH267141   0.685   0.088  10.974  0.0880 -0.3007 -0.0711
15217TIP3    H167142   0.617   0.154  10.982  0.3610 -0.1114  0.8877
15217TIP3    H267143   0.644   0.016  10.925 -1.2003 -0.6851  1.4638
15218TIP3   OH267144   1.461   6.111  11.875  0.0389  0.3286 -0.1345
15218TIP3    H167145   1.546   6.070  11.891 -0.9043 -2.1258 -0.9992
15218TIP3    H267146   1.480   6.205  11.871  3.0493 -0.2321 -2.3480
15219TIP3   OH267147   6.101   6.441   1.974  0.3978 -0.6430  0.2047
15219TIP3    H167148   6.181   6.405   1.937 -1.1057 -1.2919 -2.6733
15219TIP3    H267149   6.034   6.374   1.957 -1.3493  1.1345 -0.2515
15220TIP3   OH267150   2.726   4.398   5.997 -0.1645 -0.3500  0.5048
15220TIP3    H167151   2.750   4.373   5.908  0.1486  1.4173  0.0442
15220TIP3    H267152   2.640   4.440   5.987 -0.3648 -0.6063  1.1187
15221TIP3   OH267153   4.714   1.498  15.838 -0.4185  0.6148  0.1257
15221TIP3    H167154   4.661   1.445  15.778  2.1086 -1.2630 -0.6518
15221TIP3    H267155   4.730   1.440  15.913  1.7740  0.4761 -0.3868
15222TIP3   OH267156   2.126   0.180   2.841  0.1105  0.4600 -0.2986
15222TIP3    H167157   2.200   0.195   2.899  1.6787 -1.8970 -1.4933
15222TIP3    H267158   2.077   0.110   2.883  0.2123  0.0297 -0.8792
15223TIP3   OH267159   0.079   3.467  16.042  0.7657 -0.1635  0.4380
15223TIP3    H167160   0.031   3.516  15.975 -1.7452 -0.5103  1.8832
15223TIP3    H267161   0.093   3.530  16.112  0.4286 -0.6601  0.9548
15224TIP3   OH267162   5.089   3.001  17.065  0.1335 -0.8346 -0.4946
15224TIP3    H167163   5.076   3.096  17.063 -1.3666 -1.0255 -2.2187
15224TIP3    H267164   5.156   2.985  16.998  0.1624 -1.0266 -0.4189
15225TIP3   OH267165   5.033   4.919  14.595 -0.0164  0.0733  0.2933
15225TIP3    H167166   4.939   4.903  14.584  0.0689 -1.2520  1.1962
15225TIP3    H267167   5.038   4.977  14.671 -0.0746 -1.5809  1.6455
15226TIP3   OH267168   6.322   4.067  13.344  0.0589 -0.3663  0.2349
15226TIP3    H167169   6.391   4.003  13.328  1.7931  1.8930 -2.1721
15226TIP3    H267170   6.367   4.141  13.385 -1.2290  0.5893 -0.0303
15227TIP3   OH267171   2.489   4.383  11.694  0.4288 -0.1145  0.2461
15227TIP3    H167172   2.497   4.291  11.721 -1.1202 -0.8189 -1.4082
15227TIP3    H267173   2.436   4.423  11.763 -1.2566 -1.2190 -0.3136
15228TIP3   OH267174   4.685   5.014   1.321  0.3394  0.1260  0.1102
15228TIP3    H167175   4.680   4.926   1.359  2.0502 -1.0622 -2.1540
15228TIP3    H267176   4.779   5.033   1.319  0.1000  1.3145 -0.9660
15229TIP3   OH267177   6.367   6.515  12.972 -0.0756 -0.1874  0.3657
15229TIP3    H167178   6.278   6.542  12.992 -0.0898  0.1828 -0.1760
15229TIP3    H267179   6.406   6.495  13.058 -0.0592  1.5824  0.8140
15230TIP3   OH267180   0.045   6.633  13.034 -0.4452  0.0561  0.2447
15230TIP3    H167181   0.123   6.649  12.981  0.1794 -2.0670  0.4708
15230TIP3    H267182   0.032   6.539  13.033 -0.9287 -0.0213  3.1356
15231TIP3   OH267183   4.466   6.439   3.452 -0.3613  0.4273  0.2430
15231TIP3    H167184   4.386   6.415   3.407  0.0063 -2.5407  0.9740
15231TIP3    H267185   4.535   6.426   3.387 -0.0908 -1.3590  0.8356
15232TIP3   OH267186   5.782   4.516  15.359  0.4027  0.2645  0.2421
15232TIP3    H167187   5.865   4.471  15.342  0.2936 -1.2781  3.1357
15232TIP3    H267188   5.715   4.450  15.342 -0.0897  0.7725  0.1767
15233TIP3   OH267189   3.908   5.611  12.624 -0.6899 -0.4505  0.1609
15233TIP3    H167190   3.824   5.631  12.582 -0.3880 -0.8422 -0.6494
15233TIP3    H267191   3.931   5.525  12.590 -0.1016 -0.4816  0.6243
15234TIP3   OH267192   2.284   1.372  14.593 -0.6571 -0.0891 -0.8114
15234TIP3    H167193   2.224   1.433  14.550  0.5535  1.8016  0.0100
15234TIP3    H267194   2.367   1.420  14.598 -0.0018 -1.2872  1.0540
15235TIP3   OH267195   6.715   0.748   2.580 -0.4037  0.3818  0.6327
15235TIP3    H167196   6.730   0.828   2.530  0.8233 -0.4270 -0.3623
15235TIP3    H267197   6.775   0.755   2.654 -0.7171  0.6408  0.8633
15236TIP3   OH267198   0.643   2.276   3.535  0.2026 -0.1989 -0.2901
15236TIP3    H167199   0.553   2.246   3.548  0.3894 -0.7337 -0.1822
15236TIP3    H267200   0.678   2.219   3.466  1.0298 -1.2639  0.9453
15237TIP3   OH267201   4.496   0.306  11.546 -1.0245  0.2324  0.1626
15237TIP3    H167202   4.488   0.358  11.466  0.9472 -1.1063 -0.9910
15237TIP3    H267203   4.442   0.352  11.610 -1.1467  2.4184 -1.4024
15238TIP3   OH267204   0.550   1.715  11.395 -0.1182 -0.2166  0.1782
15238TIP3    H167205   0.536   1.639  11.452 -0.6408  0.2232  0.6366
15238TIP3    H267206   0.632   1.753  11.426 -0.1316 -0.2820  0.2957
15239TIP3   OH267207   1.749   2.106  16.884 -0.4860  0.1551  0.5502
15239TIP3    H167208   1.800   2.045  16.830 -1.5391 -0.6417  0.4391
15239TIP3    H267209   1.742   2.063  16.969 -0.5250  0.5059  0.7252
15240TIP3   OH267210   3.269   4.823   2.786  0.0394  0.3628  0.0294
15240TIP3    H167211   3.183   4.841   2.748  0.1932 -0.0681 -0.5419
15240TIP3    H267212   3.266   4.863   2.873 -1.2012 -0.8039  0.5464
15241TIP3   OH267213   0.676   1.314   2.500 -0.0252  0.2314  1.0974
15241TIP3    H167214   0.767   1.323   2.472  0.8422 -0.4459  3.4494
15241TIP3    H267215   0.667   1.220   2.519 -0.9870  0.4161  1.5792
15242TIP3   OH267216   4.061   4.659  17.068  0.6143  0.2286  0.2116
15242TIP3    H167217   4.151   4.649  17.101  0.4647  0.0664  0.5766
15242TIP3    H267218   4.062   4.616  16.983  0.2353 -2.1222  1.3185
15243TIP3   OH267219   2.149   5.015  16.762  0.9060 -0.2640  0.8152
15243TIP3    H167220   2.115   5.052  16.844 -2.1369  0.6392 -0.7318
15243TIP3    H267221   2.080   4.958  16.731  1.7970 -0.2413 -1.3660
15244TIP3   OH267222   0.085   5.278  15.377 -0.1859  0.0640  0.2418
15244TIP3    H167223   0.004   5.325  15.395 -0.4180 -0.1373 -0.2704
15244TIP3    H267224   0.154   5.332  15.416 -0.3984  1.0740 -0.7545
15245TIP3   OH267225   2.873   6.142  14.114 -0.2117  0.6296 -0.0985
15245TIP3    H167226   2.952   6.148  14.060  1.2577  1.7252  1.9791
15245TIP3    H267227   2.802   6.170  14.057  0.6385 -1.5245 -2.4078
15246TIP3   OH267228   6.012   4.631   5.307  0.2106 -0.1262  0.0154
15246TIP3    H167229   6.086   4.652   5.364  1.7205  0.4313 -2.0258
15246TIP3    H267230   6.052   4.611   5.223 -2.0038  0.5659 -1.2801
15247TIP3   OH267231   3.468   0.297  16.272  0.3722 -0.2722  0.4118
15247TIP3    H167232   3.525   0.312  16.348  1.6522  1.5235 -0.8159
15247TIP3    H267233   3.406   0.370  16.275  1.8737  1.1954 -1.4409
15248TIP3   OH267234   2.051   2.309   2.671  0.3261  0.7159 -0.6300
15248TIP3    H167235   2.094   2.237   2.717  0.4020  0.3566 -1.2435
15248TIP3    H267236   2.106   2.324   2.594  0.2292  1.3364 -0.5882
15249TIP3   OH267237   5.676   3.356   4.732 -0.0999  0.1310  0.2744
15249TIP3    H167238   5.679   3.447   4.761 -1.5844 -0.7370  3.5762
15249TIP3    H267239   5.740   3.311   4.787 -2.8430 -1.5755  2.2964
15250TIP3   OH267240   4.066   3.551   5.363  0.1397  0.4825  0.5912
15250TIP3    H167241   3.971   3.538   5.358  0.0643  1.4764 -1.4981
15250TIP3    H267242   4.102   3.494   5.296  0.8025  1.7990 -0.2095
15251TIP3   OH267243   3.652   1.434   1.510  0.1162  0.5099 -0.6587
15251TIP3    H167244   3.654   1.512   1.454 -2.5842  0.2682 -1.2460
15251TIP3    H267245   3.698   1.367   1.461  2.0724  1.5491 -0.3483
15252TIP3   OH267246   3.620   1.786   6.863  0.2054  0.0035  0.3463
15252TIP3    H167247   3.626   1.709   6.920 -0.5523 -0.5151 -0.2563
15252TIP3    H267248   3.703   1.833   6.878  0.1306 -0.2419  1.6767
15253TIP3   OH267249   6.030   2.799  12.793 -0.2752  0.5864  0.6358
15253TIP3    H167250   5.936   2.789  12.778 -0.1991 -1.4490  1.2717
15253TIP3    H267251   6.037   2.825  12.885 -0.2414  1.8979  0.2805
15254TIP3   OH267252   5.376   5.496  13.134  0.1155 -0.6385 -0.2740
15254TIP3    H167253   5.396   5.587  13.109  0.4924 -0.8809 -0.8943
15254TIP3    H267254   5.327   5.504  13.215 -0.3482  0.1523 -0.6140
15255TIP3   OH267255   2.180   1.939  13.240 -0.4417  0.3517 -0.2694
15255TIP3    H167256   2.126   1.891  13.178  0.6497  0.4872 -1.3759
15255TIP3    H267257   2.121   2.002  13.281 -1.7240 -1.3873  0.6583
15256TIP3   OH267258   0.703   4.030   0.295 -0.2531  0.1428  0.1509
15256TIP3    H167259   0.648   3.955   0.275  0.6879 -0.5810  0.1647
15256TIP3    H267260   0.780   3.992   0.339 -0.5615  1.2879  1.7778
15257TIP3   OH267261   2.775   2.099  13.968 -0.5881  0.7435  0.4383
15257TIP3    H167262   2.704   2.162  13.975 -2.0890 -0.9001  0.5554
15257TIP3    H267263   2.802   2.083  14.059 -0.2185  1.1745  0.4097
15258TIP3   OH267264   2.131   1.659   2.151 -0.4498  0.0185  0.5974
15258TIP3    H167265   2.193   1.608   2.099  0.5098  1.4313  0.3009
15258TIP3    H267266   2.142   1.626   2.240  1.5486  0.9302  0.7498
15259TIP3   OH267267   0.593   3.425   0.968  0.1684 -0.6017 -0.1551
15259TIP3    H167268   0.661   3.391   0.909 -0.4723  0.9311 -1.8739
15259TIP3    H267269   0.531   3.353   0.977 -0.3193 -0.5408 -2.3734
15260TIP3   OH267270   2.461   5.809   0.761  0.6677 -0.1158 -0.6412
15260TIP3    H167271   2.549   5.773   0.772  0.7329 -0.1497 -1.2200
15260TIP3    H267272   2.404   5.733   0.756  1.0423 -0.3409 -4.0217
15261TIP3   OH267273   4.538   6.375  16.137  0.1453  0.3573  0.2618
15261TIP3    H167274   4.607   6.359  16.201 -0.0794  0.4434  0.5263
15261TIP3    H267275   4.459   6.392  16.189  0.2943  2.0008  0.0007
15262TIP3   OH267276   6.811   1.880   4.151 -0.1556  0.1584 -0.1813
15262TIP3    H167277   6.762   1.836   4.221  0.2983 -0.4011 -0.2021
15262TIP3    H267278   6.833   1.810   4.090  0.7916  0.3667 -0.0966
15263TIP3   OH267279   6.841   0.423   3.696 -0.2064  0.3182 -0.0803
15263TIP3    H167280   6.817   0.394   3.784  0.4790  1.7298  0.5959
15263TIP3    H267281   6.774   0.487   3.672 -1.2230 -1.0934 -1.2205
15264TIP3   OH267282   2.901   0.540   5.006  0.4760  0.0156  0.6105
15264TIP3    H167283   2.927   0.485   5.081 -0.7382  1.3558  2.0940
15264TIP3    H267284   2.927   0.628   5.031 -1.2156  0.7073  0.1082
15265TIP3   OH267285   3.000   4.648   2.155 -0.4270  0.4784 -0.2812
15265TIP3    H167286   3.076   4.604   2.115 -1.3374 -0.2771 -1.2373
15265TIP3    H267287   2.950   4.680   2.080 -0.6324  1.7247  0.3661
15266TIP3   OH267288   5.409   1.151  14.868 -0.0726  0.1770 -0.2048
15266TIP3    H167289   5.393   1.229  14.814 -2.7358 -1.8679 -2.7158
15266TIP3    H267290   5.334   1.146  14.927  0.1845 -0.3722  0.0879
15267TIP3   OH267291   2.228   3.369  12.467  0.5110  0.1623 -0.1295
15267TIP3    H167292   2.210   3.285  12.426  0.5979 -0.7091  1.5190
15267TIP3    H267293   2.322   3.384  12.452  0.2777  0.5149 -1.3389
15268TIP3   OH267294   6.776   4.737  17.096  0.3676 -0.2510 -0.6291
15268TIP3    H167295   6.777   4.730  17.192  2.3395  1.6156 -0.4365
15268TIP3    H267296   6.854   4.691  17.067  1.3668  1.5994 -1.0420
15269TIP3   OH267297   0.928   6.232  13.522 -0.1042 -0.7958  0.4815
15269TIP3    H167298   0.947   6.169  13.453 -0.3515  0.8262 -1.1448
15269TIP3    H267299   0.871   6.297  13.481  0.8459  0.9743  1.8040
15270TIP3   OH267300   2.265   6.238  13.045 -0.1855  0.1204  0.1213
15270TIP3    H167301   2.242   6.156  13.001  1.6063 -0.0708 -0.5839
15270TIP3    H267302   2.199   6.301  13.018 -3.0095 -1.5568  2.5133
15271TIP3   OH267303   1.934   1.638  12.315 -0.0028  0.3407  0.0624
15271TIP3    H167304   1.856   1.689  12.291 -1.0420 -1.0702  0.3128
15271TIP3    H267305   1.924   1.555  12.268  1.1577 -0.0250  0.4206
15272TIP3   OH267306   6.587   2.745  11.243 -0.1307 -0.7056  0.0394
15272TIP3    H167307   6.599   2.680  11.313  2.5357 -0.7610 -0.3570
15272TIP3    H267308   6.671   2.790  11.238 -1.4871  1.9377 -0.5999
15273TIP3   OH267309   2.248   6.593   4.323  0.5284  0.4904 -0.6744
15273TIP3    H167310   2.292   6.539   4.390  1.3197 -0.2608 -1.7657
15273TIP3    H267311   2.214   6.529   4.260 -1.3392  1.1154 -0.3554
15274TIP3   OH267312   6.615   4.958   4.959  0.5301 -0.0395 -0.5017
15274TIP3    H167313   6.636   5.030   5.019 -0.3983 -0.2081  0.0456
15274TIP3    H267314   6.584   4.887   5.016  1.6301 -0.9652 -1.0123
15275TIP3   OH267315   6.281   6.599   5.703 -0.4069 -0.1872 -0.1413
15275TIP3    H167316   6.300   6.530   5.767  4.9692 -0.5728 -1.6367
15275TIP3    H267317   6.280   6.679   5.754 -0.2739 -0.8237  0.8992
15276TIP3   OH267318   2.700   2.097  17.074 -0.3779 -0.0144  0.2702
15276TIP3    H167319   2.676   2.116  16.983  0.7470 -0.1605 -0.0778
15276TIP3    H267320   2.663   2.010  17.091 -1.8159  0.6086  0.4384
15277TIP3   OH267321   3.122   6.528  15.607  0.3998 -0.1489  0.3553
15277TIP3    H167322   3.120   6.460  15.674 -0.3856  1.0153  1.5504
15277TIP3    H267323   3.061   6.594  15.637 -0.1335  0.3315 -1.6309
15278TIP3   OH267324   0.455   4.042  14.275 -0.5380 -0.2067  0.0373
15278TIP3    H167325   0.448   4.119  14.219 -0.0732  0.1420  0.4527
15278TIP3    H267326   0.503   4.072  14.352  1.1517 -1.2987 -0.5310
15279TIP3   OH267327   2.890   6.732  12.898 -0.1853  0.9272  0.4120
15279TIP3    H167328   2.900   6.641  12.871 -0.7241  0.1626  2.6010
15279TIP3    H267329   2.979   6.763  12.916 -0.0555  0.6757  0.2048
15280TIP3   OH267330   0.062   2.289  14.978  0.2397 -0.1932 -0.6967
15280TIP3    H167331  -0.027   2.320  14.958  0.3690  0.2318 -0.6250
15280TIP3    H267332   0.056   2.194  14.971 -0.1398 -0.1501 -1.0446
15281TIP3   OH267333   4.476   0.122  12.525  0.4307 -0.2691  0.2221
15281TIP3    H167334   4.551   0.128  12.465  0.7985 -0.4531  0.6571
15281TIP3    H267335   4.513   0.088  12.606 -0.3478 -1.5824  0.0468
15282TIP3   OH267336   2.176   3.684   5.890 -0.6409  0.6983 -0.5057
15282TIP3    H167337   2.174   3.685   5.985 -1.5292  0.2092 -0.5132
15282TIP3    H267338   2.174   3.591   5.867 -0.6993  0.8188 -1.0039
15283TIP3   OH267339   6.751   6.241   4.838  0.2197  0.3823  0.6269
15283TIP3    H167340   6.837   6.205   4.863  0.9267  0.8985 -0.9550
15283TIP3    H267341   6.755   6.333   4.864 -0.8276 -0.1149  2.8014
15284TIP3   OH267342   0.481   3.929   1.251  0.0893  0.5244 -0.1328
15284TIP3    H167343   0.435   3.912   1.169  1.1447  1.2862 -0.9151
15284TIP3    H267344   0.571   3.902   1.234  0.2196  0.2247  0.9504
15285TIP3   OH267345   3.225   2.277  13.223 -0.1226  0.2913 -0.0699
15285TIP3    H167346   3.236   2.348  13.159 -0.2970  0.4436  0.0687
15285TIP3    H267347   3.148   2.229  13.193  0.7992 -0.6892 -0.9605
15286TIP3   OH267348   5.471   4.700   5.040 -0.1772 -0.2291 -0.0504
15286TIP3    H167349   5.497   4.666   5.126 -0.8305 -0.3974  0.0866
15286TIP3    H267350   5.414   4.632   5.004  0.3427 -0.3019 -0.7609
15287TIP3   OH267351   2.277   0.742   4.991  0.0017  0.0973  0.5790
15287TIP3    H167352   2.273   0.647   5.001 -1.6211  0.1757  0.8660
15287TIP3    H267353   2.352   0.757   4.932 -0.2355 -1.4038 -0.1455
15288TIP3   OH267354   2.782   4.447  16.695  0.4521  0.0467 -0.0548
15288TIP3    H167355   2.785   4.376  16.759 -0.2682 -0.5300 -0.6597
15288TIP3    H267356   2.842   4.513  16.731 -0.3672 -0.0126  1.5221
15289TIP3   OH267357   5.700   2.039   0.182 -0.0884  0.0190 -0.2035
15289TIP3    H167358   5.712   2.084   0.098  0.4532  1.2931  0.5341
15289TIP3    H267359   5.655   2.103   0.237  1.8904  0.2021  1.3026
15290TIP3   OH267360   4.196   6.765  13.629  0.0355 -0.3196 -0.0753
15290TIP3    H167361   4.282   6.730  13.652  0.1046 -0.2932 -0.2915
15290TIP3    H267362   4.198   6.770  13.533 -0.0845 -0.0049 -0.0589
15291TIP3   OH267363   3.167   6.281  14.416  0.3087 -0.2051 -0.3848
15291TIP3    H167364   3.083   6.259  14.376  0.2253  0.0791 -0.3636
15291TIP3    H267365   3.144   6.312  14.504  0.5604 -2.0339  0.3909
15292TIP3   OH267366   5.025   1.488  15.318 -0.4664 -0.3482  0.2735
15292TIP3    H167367   5.092   1.430  15.281 -0.5493 -1.3540  1.6269
15292TIP3    H267368   5.067   1.527  15.394 -0.2116  1.8919 -0.9191
15293TIP3   OH267369   0.559   6.386  15.839  1.0289 -0.0522  0.5208
15293TIP3    H167370   0.582   6.306  15.792 -2.0405 -1.5130  1.2575
15293TIP3    H267371   0.480   6.364  15.888  0.8033  3.0723  1.8318
15294TIP3   OH267372   5.431   3.430  13.828  0.0485  0.2765  0.2731
15294TIP3    H167373   5.503   3.475  13.871 -1.1496  1.3930  1.1949
15294TIP3    H267374   5.436   3.340  13.860  1.8295 -0.0394 -0.7633
15295TIP3   OH267375   1.389   4.102  13.503  0.4786 -0.1096  0.1757
15295TIP3    H167376   1.349   4.015  13.515 -0.3652  0.4755  2.0315
15295TIP3    H267377   1.474   4.084  13.465  1.9140 -2.1559  3.7732
15296TIP3   OH267378   1.414   6.421  13.568  0.1610  0.4385 -0.3458
15296TIP3    H167379   1.492   6.442  13.518  2.2870  0.1337  2.5682
15296TIP3    H267380   1.423   6.327  13.587 -1.0825  0.3331 -0.2208
15297TIP3   OH267381   1.103   2.832   1.455 -0.2324 -0.4461  0.2201
15297TIP3    H167382   1.120   2.754   1.402 -0.1289  0.5481 -1.3026
15297TIP3    H267383   1.087   2.901   1.390  0.7591  1.0357  1.4747
15298TIP3   OH267384   4.676   5.595   3.486  0.0331  0.7069  0.2569
15298TIP3    H167385   4.667   5.509   3.528  0.3087  0.6841  0.2705
15298TIP3    H267386   4.590   5.636   3.497  0.3560  1.0566  1.6266
15299TIP3   OH267387   3.057   6.219  15.704  0.5188  0.1700 -0.2662
15299TIP3    H167388   3.015   6.185  15.783  1.8836  2.0510  1.3831
15299TIP3    H267389   3.148   6.193  15.712  0.6982  0.4564 -1.2084
15300TIP3   OH267390   5.296   5.590   5.284  0.5391 -0.6288 -0.2236
15300TIP3    H167391   5.335   5.670   5.250  0.7036 -1.3358 -1.7833
15300TIP3    H267392   5.286   5.533   5.207 -0.6366 -1.6715  0.6541
15301TIP3   OH267393   0.176   5.328  14.922 -0.4830 -0.4314  0.4803
15301TIP3    H167394   0.157   5.234  14.925  0.4731 -0.6699 -0.3701
15301TIP3    H267395   0.256   5.337  14.974  1.1506 -0.5812 -1.8708
15302TIP3   OH267396   0.042   2.432   1.836 -0.4404 -0.0768 -0.5601
15302TIP3    H167397   0.089   2.502   1.792  0.6385  0.0725  0.7581
15302TIP3    H267398   0.094   2.353   1.821 -1.2166 -0.4619 -1.3463
15303TIP3   OH267399   4.609   6.511  16.503  0.1160  0.7376 -0.1227
15303TIP3    H167400   4.569   6.452  16.566  3.3023  0.2740  1.7021
15303TIP3    H267401   4.629   6.456  16.428  0.7348  0.0640  0.5195
15304TIP3   OH267402   6.283   3.269   4.390 -0.1955  0.5898 -0.0460
15304TIP3    H167403   6.258   3.225   4.309  1.9038 -1.2470  0.1993
15304TIP3    H267404   6.248   3.214   4.459 -0.9961  1.5273  0.3052
15305TIP3   OH267405   0.254   0.969   3.971 -0.6389  0.3151  0.6185
15305TIP3    H167406   0.179   0.913   3.954  0.8332 -1.1641 -1.4898
15305TIP3    H267407   0.323   0.910   4.000  0.3326  1.3463  0.4883
15306TIP3   OH267408   1.275   5.231  10.798  0.1262 -0.8146  0.6886
15306TIP3    H167409   1.292   5.304  10.858  0.1498 -1.1033  1.0331
15306TIP3    H267410   1.362   5.197  10.776  0.1500 -0.3836  0.0761
15307TIP3   OH267411   2.280   1.734  15.540 -0.5143  0.3166 -0.1979
15307TIP3    H167412   2.218   1.796  15.577 -1.0404  0.5081 -1.3566
15307TIP3    H267413   2.226   1.667  15.499 -0.0061  0.7924 -1.7453
15308TIP3   OH267414   0.781   0.582  17.077 -0.0025  0.5233  0.5082
15308TIP3    H167415   0.719   0.628  17.020  0.0674  0.9389  0.7609
15308TIP3    H267416   0.726   0.529  17.135 -0.0582 -0.1895 -0.1856
15309TIP3   OH267417   2.275   3.027  13.618  0.1067 -0.6235  0.2310
15309TIP3    H167418   2.256   3.094  13.684 -0.7433  0.9471 -1.5201
15309TIP3    H267419   2.222   3.052  13.543  4.5189  0.5709 -2.9007
15310TIP3   OH267420   5.897   5.236  15.612  0.3128 -0.5058  0.3558
15310TIP3    H167421   5.975   5.272  15.654 -0.9403  1.9121  0.7889
15310TIP3    H267422   5.847   5.199  15.684  1.3090 -2.7098 -0.0117
15311TIP3   OH267423   4.990   4.747  11.466 -0.1748 -0.5419  0.2547
15311TIP3    H167424   4.985   4.679  11.399  0.0870 -1.3516  1.0354
15311TIP3    H267425   5.082   4.750  11.490  0.1933  1.4841 -1.1307
15312TIP3   OH267426   4.874   6.157   5.212 -0.7769 -0.1511  0.7525
15312TIP3    H167427   4.814   6.152   5.286 -1.4147  0.3711  0.2740
15312TIP3    H267428   4.821   6.188   5.139 -0.2384 -1.0025 -0.0258
15313TIP3   OH267429   3.014   6.447  16.593  0.2377 -0.9993  0.3451
15313TIP3    H167430   2.932   6.456  16.641  1.3580 -0.9866  2.3841
15313TIP3    H267431   3.042   6.357  16.610  0.7323 -0.9570 -0.1972
15314TIP3   OH267432   3.255   3.821  13.213  0.4888 -0.3015  0.0287
15314TIP3    H167433   3.178   3.774  13.181  0.7176  0.8455 -2.4773
15314TIP3    H267434   3.320   3.752  13.229 -0.9076 -1.2710  2.0131
15315TIP3   OH267435   4.038   1.410   2.732 -0.7235 -0.1228 -0.4915
15315TIP3    H167436   4.002   1.468   2.800 -1.7220  0.5001 -1.5128
15315TIP3    H267437   3.969   1.406   2.665 -0.3345 -1.8439 -0.8395
15316TIP3   OH267438   6.429   4.669   3.674 -0.0586  0.7181 -0.2332
15316TIP3    H167439   6.433   4.575   3.691 -4.1823  0.1547 -1.2974
15316TIP3    H267440   6.502   4.685   3.615  0.4137 -1.9700 -0.5253
15317TIP3   OH267441   2.290   6.483   2.584  0.1376  0.5032  0.4400
15317TIP3    H167442   2.312   6.563   2.536 -0.4159 -0.7387 -2.0602
15317TIP3    H267443   2.372   6.454   2.623  0.8466  1.0673 -0.5991
15318TIP3   OH267444   6.639   2.440  13.049 -0.1752  0.3506  0.2966
15318TIP3    H167445   6.567   2.395  13.092 -0.2644  1.7300  1.6604
15318TIP3    H267446   6.598   2.496  12.983 -0.3309  0.8649  0.8269
15319TIP3   OH267447   2.719   1.082   2.074 -0.3823  0.0371 -0.7929
15319TIP3    H167448   2.689   1.117   2.158 -1.1582 -0.6462 -0.7649
15319TIP3    H267449   2.766   1.002   2.097 -0.1466  0.1221 -0.9751
15320TIP3   OH267450   6.519   4.158   5.014  0.1678  0.0338 -0.0531
15320TIP3    H167451   6.512   4.235   5.070  0.2654 -2.2452  3.3729
15320TIP3    H267452   6.429   4.135   4.993 -0.1208 -0.8113  1.8866
15321TIP3   OH267453   4.680   5.411  11.748 -0.4119  0.1720 -0.0611
15321TIP3    H167454   4.628   5.442  11.822 -1.3319  0.6392 -0.8801
15321TIP3    H267455   4.651   5.465  11.674  0.0814 -0.6643 -0.8876
15322TIP3   OH267456   5.144   2.962  15.060 -0.8456 -0.0572  0.1527
15322TIP3    H167457   5.225   2.940  15.013 -0.6839 -1.2782  0.9600
15322TIP3    H267458   5.083   2.892  15.036 -0.4751 -1.2367  2.4321
15323TIP3   OH267459   0.228   5.933  10.789 -0.2766  0.5443  0.0144
15323TIP3    H167460   0.189   5.972  10.867  0.1717 -0.8683  0.9903
15323TIP3    H267461   0.214   5.998  10.720 -0.3075  2.0136  1.3479
15324TIP3   OH267462   5.040   0.561  14.031 -0.2858 -0.1341  0.5321
15324TIP3    H167463   5.123   0.575  13.986  0.5764 -0.7607  1.8477
15324TIP3    H267464   5.031   0.638  14.088 -0.8356  0.1348  0.0974
15325TIP3   OH267465   5.231   1.822  13.747  0.5044 -0.0739  0.0262
15325TIP3    H167466   5.199   1.799  13.835  1.3787  1.4587  0.7898
15325TIP3    H267467   5.154   1.857  13.702  0.0318 -0.9224  0.1580
15326TIP3   OH267468   3.273   3.872   5.093 -0.2651  0.4544  0.4441
15326TIP3    H167469   3.341   3.831   5.146 -0.2606 -0.5977 -0.3520
15326TIP3    H267470   3.314   3.886   5.008 -1.2173 -0.7902 -0.2469
15327TIP3   OH267471   0.201   4.806  11.746  0.3569  0.3135  0.0997
15327TIP3    H167472   0.114   4.767  11.759  0.8345 -1.4807 -1.6673
15327TIP3    H267473   0.230   4.829  11.835 -1.3684 -0.2822  0.8596
15328TIP3   OH267474   5.462   5.848  16.113 -0.1607  0.2318 -0.0920
15328TIP3    H167475   5.503   5.846  16.200  1.9729  1.7031 -0.9689
15328TIP3    H267476   5.377   5.890  16.127 -0.3337 -0.5472  1.4176
15329TIP3   OH267477   0.071   4.558  14.617 -0.2870 -0.3812 -0.0212
15329TIP3    H167478   0.042   4.534  14.529  0.5788 -1.8746  0.0586
15329TIP3    H267479  -0.003   4.537  14.674 -0.9403  0.8266 -0.4079
15330TIP3   OH267480   6.461   0.160   4.738 -0.2904 -0.0514  0.0293
15330TIP3    H167481   6.514   0.096   4.787 -0.8969  1.2766  2.6141
15330TIP3    H267482   6.515   0.239   4.736 -1.2111  0.6028  0.6075
15331TIP3   OH267483   3.752   0.917  15.737  0.4297 -0.1690  0.0467
15331TIP3    H167484   3.673   0.971  15.732  0.1512 -0.6643 -1.3879
15331TIP3    H267485   3.798   0.935  15.655  0.3410 -2.0827 -0.4646
15332TIP3   OH267486   6.151   1.630  12.095 -0.6513  0.0034  0.1739
15332TIP3    H167487   6.085   1.689  12.057 -0.8994 -0.1502  0.3613
15332TIP3    H267488   6.103   1.580  12.160 -0.2380  0.2343  0.6687
15333TIP3   OH267489   3.113   5.869  15.683 -0.1690 -0.4208  0.3312
15333TIP3    H167490   3.088   5.895  15.771 -1.1401 -2.4597  0.7251
15333TIP3    H267491   3.144   5.779  15.692 -0.3096 -0.6946 -1.4070
15334TIP3   OH267492   3.034   1.868  16.373 -0.3513 -0.2889  0.8727
15334TIP3    H167493   3.071   1.826  16.451  0.6531 -0.3190  0.3955
15334TIP3    H267494   3.078   1.824  16.299  0.7901  1.6101  0.3592
15335TIP3   OH267495   0.677   2.770  10.642 -0.3304  0.0842 -0.5219
15335TIP3    H167496   0.647   2.731  10.724  3.8129 -1.3617  0.5575
15335TIP3    H267497   0.721   2.851  10.668 -0.6985  0.6625 -1.6283
15336TIP3   OH267498   3.779   3.866  14.481  0.3157  0.0402  0.5444
15336TIP3    H167499   3.777   3.941  14.540 -0.7815 -0.1532  0.7743
15336TIP3    H267500   3.829   3.896  14.405 -0.9158  1.3565  0.1984
15337TIP3   OH267501   0.581   3.175  16.768  0.3298  0.5970  0.2487
15337TIP3    H167502   0.594   3.241  16.699 -0.4605  1.5821  1.0033
15337TIP3    H267503   0.666   3.131  16.775  0.6405  0.9841 -0.8338
15338TIP3   OH267504   3.209   5.250   3.028  0.1065 -0.2656  0.6852
15338TIP3    H167505   3.301   5.250   3.054  0.6749  1.2367 -1.0794
15338TIP3    H267506   3.163   5.212   3.102  2.1241 -0.8967  1.6864
15339TIP3   OH267507   5.871   6.591  11.035 -0.4099 -0.2080 -0.3183
15339TIP3    H167508   5.959   6.628  11.026 -0.7367  1.1535  1.4578
15339TIP3    H267509   5.839   6.583  10.946  0.7712  1.1492 -0.9082
15340TIP3   OH267510   0.330   0.229   3.243 -0.1861  0.4245 -0.0426
15340TIP3    H167511   0.373   0.210   3.160  0.6604 -0.8673  0.6588
15340TIP3    H267512   0.353   0.155   3.300 -0.6823  1.3033  1.3631
15341TIP3   OH267513   0.512   4.676  16.603  0.4434 -0.3302 -0.1982
15341TIP3    H167514   0.523   4.646  16.693 -0.2597 -3.0594 -0.9286
15341TIP3    H267515   0.457   4.609  16.562 -1.0776  1.9571 -2.1146
15342TIP3   OH267516   6.567   3.933   5.886  0.1088 -0.0639  0.0007
15342TIP3    H167517   6.547   3.844   5.913 -0.8512  0.0663 -0.2487
15342TIP3    H267518   6.574   3.928   5.790 -1.2481  0.3520 -0.1448
15343TIP3   OH267519   5.002   3.339   0.721  0.2267  0.1097  0.0675
15343TIP3    H167520   4.953   3.364   0.643 -0.1224 -3.5174 -1.0591
15343TIP3    H267521   5.092   3.333   0.692  0.1831 -0.6853  0.0903
15344TIP3   OH267522   3.145   0.236  13.073  0.1914 -0.2408 -0.6933
15344TIP3    H167523   3.217   0.300  13.077 -2.4597  3.0526 -0.9993
15344TIP3    H267524   3.093   0.254  13.152 -2.5694  0.6260 -2.5627
15345TIP3   OH267525   4.414   2.170   4.306 -0.0136  0.5456  0.0468
15345TIP3    H167526   4.442   2.079   4.316 -0.3093  0.3864 -0.5527
15345TIP3    H267527   4.483   2.211   4.253 -1.0489  0.0570 -1.7689
15346TIP3   OH267528   5.997   3.916   2.933 -0.4400  0.0083  0.1579
15346TIP3    H167529   5.965   3.950   2.849  0.1574 -2.7477 -1.2990
15346TIP3    H267530   6.092   3.926   2.928 -0.4216  0.0474  0.5935
15347TIP3   OH267531   3.286   4.895   2.267 -0.5968  0.5498 -0.3568
15347TIP3    H167532   3.262   4.863   2.180  0.0590 -0.7905 -0.0657
15347TIP3    H267533   3.224   4.854   2.327  0.8389 -1.0413  0.1238
15348TIP3   OH267534   3.721   0.528   6.762  0.4525 -0.4003  0.0606
15348TIP3    H167535   3.699   0.454   6.707 -0.2722  0.5471 -0.9506
15348TIP3    H267536   3.790   0.575   6.714 -0.4991  0.6825 -0.2859
15349TIP3   OH267537   0.067   5.297  16.278  0.0619  0.0373  0.2697
15349TIP3    H167538   0.006   5.267  16.210  1.3556 -0.0793 -0.8785
15349TIP3    H267539   0.011   5.332  16.347 -1.2964  0.1907 -0.8747
15350TIP3   OH267540   2.091   2.726  10.889 -0.1863 -0.7829  0.8183
15350TIP3    H167541   2.094   2.790  10.817  1.2771 -1.2414  0.4390
15350TIP3    H267542   2.083   2.780  10.968  2.9727  0.0559  0.6764
15351TIP3   OH267543   6.214   1.912  13.394 -0.2350  0.6849 -0.5930
15351TIP3    H167544   6.211   1.839  13.455  1.4208  1.4558  0.4769
15351TIP3    H267545   6.131   1.907  13.346 -0.0009 -2.0958 -0.8484
15352TIP3   OH267546   0.373   4.678   0.195 -0.3288  0.3745 -0.3651
15352TIP3    H167547   0.429   4.721   0.130 -0.9237 -0.0630 -1.1800
15352TIP3    H267548   0.344   4.749   0.252  0.2133  0.7614 -0.5566
15353TIP3   OH267549   2.724   3.471   5.176 -0.3310 -0.1109 -0.1313
15353TIP3    H167550   2.773   3.421   5.241 -0.3027 -0.1449 -0.1787
15353TIP3    H267551   2.670   3.407   5.131 -0.3528 -0.0866 -0.1402
15354TIP3   OH267552   1.806   1.333   5.191  0.4342 -0.1544 -0.1850
15354TIP3    H167553   1.834   1.401   5.252 -0.7571  0.8752 -0.7657
15354TIP3    H267554   1.749   1.276   5.244  0.6393 -0.1542  0.0418
15355TIP3   OH267555   4.254   5.433  10.648 -0.2569  1.1349  0.2078
15355TIP3    H167556   4.169   5.391  10.660 -0.8327  1.6555 -1.6920
15355TIP3    H267557   4.250   5.511  10.704 -2.2375  2.7249 -1.9285
15356TIP3   OH267558   6.022   3.310  13.496  0.0077  0.7484 -0.1018
15356TIP3    H167559   5.977   3.227  13.508  0.1284  0.9463  2.2090
15356TIP3    H267560   5.954   3.377  13.510  0.2556  1.0521 -0.3155
15357TIP3   OH267561   3.693   1.916   0.957  0.3753 -0.3715 -0.6952
15357TIP3    H167562   3.775   1.870   0.938  0.6952 -0.2468  0.2868
15357TIP3    H267563   3.698   1.996   0.905 -0.0873 -1.3186 -2.2505
15358TIP3   OH267564   1.588   1.400   5.037  0.0849 -0.0268  0.2462
15358TIP3    H167565   1.510   1.382   5.089  0.0530 -0.7866 -0.0487
15358TIP3    H267566   1.660   1.360   5.086  0.2351  0.3659  0.3440
15359TIP3   OH267567   3.898   4.030   4.542 -0.2436 -0.1434 -0.5653
15359TIP3    H167568   3.839   4.074   4.603  1.6004 -0.3275  1.5041
15359TIP3    H267569   3.966   4.095   4.523  2.5390 -1.8410  2.5561
15360TIP3   OH267570   4.212   5.278  14.721  0.0557  0.2956 -0.4170
15360TIP3    H167571   4.291   5.319  14.687  0.5119  0.1587  0.4362
15360TIP3    H267572   4.228   5.184  14.712 -0.0565  0.2698 -0.3487
15361TIP3   OH267573   1.690   6.558   3.776  0.5689 -0.1667  0.3884
15361TIP3    H167574   1.738   6.625   3.824  0.9920 -0.6825  0.6969
15361TIP3    H267575   1.633   6.607   3.717  1.5101  0.4556 -0.0211
15362TIP3   OH267576   4.260   2.517   1.101  0.0428  0.1093  0.4196
15362TIP3    H167577   4.197   2.518   1.173  1.0013  1.8399  1.2857
15362TIP3    H267578   4.338   2.475   1.137 -0.1312 -0.8380 -0.2512
15363TIP3   OH267579   4.812   3.747   0.922 -0.7230 -0.5831 -0.1236
15363TIP3    H167580   4.734   3.799   0.902 -0.9534 -1.3376 -1.3106
15363TIP3    H267581   4.814   3.680   0.854 -0.7395 -2.4849  1.6628
15364TIP3   OH267582   4.043   1.827  13.346 -0.1457  0.5940  0.0037
15364TIP3    H167583   4.056   1.791  13.259  0.1795  1.4623 -0.3212
15364TIP3    H267584   4.066   1.756  13.406  2.3574  0.8136 -0.5976
15365TIP3   OH267585   4.282   0.267   5.879  0.2018  0.2020  0.5076
15365TIP3    H167586   4.235   0.339   5.922  0.6018  0.3314  0.7298
15365TIP3    H267587   4.231   0.251   5.799 -0.4329  0.0925  0.9232
15366TIP3   OH267588   4.007   5.824   0.691  0.5934  0.0924  0.2113
15366TIP3    H167589   4.091   5.833   0.736  1.1572 -2.6038 -0.1082
15366TIP3    H267590   3.942   5.818   0.761  0.6418  2.0864  0.4633
15367TIP3   OH267591   1.995   2.897   6.181 -0.4388  0.0033  0.2195
15367TIP3    H167592   2.061   2.935   6.123 -0.1487  0.2659  0.7067
15367TIP3    H267593   2.044   2.834   6.235 -0.8655 -0.8713 -0.3935
15368TIP3   OH267594   3.296   2.861  12.339  0.3691  0.1488  0.2736
15368TIP3    H167595   3.275   2.767  12.338  1.5993 -0.1705  1.4685
15368TIP3    H267596   3.390   2.865  12.324  0.2401  1.2407 -0.3284
15369TIP3   OH267597   6.139   6.846   0.276  0.3217 -0.2490  0.0651
15369TIP3    H167598   6.145   6.920   0.215 -3.2943 -0.9285 -1.3729
15369TIP3    H267599   6.114   6.772   0.221  0.9688 -1.8765  1.8821
15370TIP3   OH267600   6.049   0.153  16.358  0.3999 -0.3204  0.7501
15370TIP3    H167601   6.074   0.230  16.308  0.5893 -0.7138  0.2294
15370TIP3    H267602   6.042   0.083  16.293  2.4867 -1.2931  1.4839
15371TIP3   OH267603   5.750   5.366  13.932  0.2107  0.1665 -0.1306
15371TIP3    H167604   5.748   5.417  14.013  1.6713  1.0498 -0.5984
15371TIP3    H267605   5.663   5.328  13.924 -0.1638  0.6388  1.4861
15372TIP3   OH267606   6.170   1.074   0.360 -0.3589  0.3811 -0.1026
15372TIP3    H167607   6.097   1.023   0.393 -1.3314  1.3303 -0.7076
15372TIP3    H267608   6.228   1.009   0.319 -1.5504 -0.2653 -0.8419
15373TIP3   OH267609   2.912   5.788   5.207  0.1266 -0.9967 -0.5980
15373TIP3    H167610   2.932   5.877   5.180  0.6852 -0.9232  0.0414
15373TIP3    H267611   2.995   5.741   5.198  0.0548 -1.2333 -0.0448
15374TIP3   OH267612   6.261   5.375   0.754 -0.5302  0.0369 -0.0716
15374TIP3    H167613   6.184   5.378   0.812 -0.8245 -2.1249 -0.2897
15374TIP3    H267614   6.334   5.361   0.814 -0.8410 -2.2554 -0.1694
15375TIP3   OH267615   3.351   6.125  14.118 -0.6474  0.1339 -0.0531
15375TIP3    H167616   3.315   6.178  14.048 -1.0583  0.0757  0.1093
15375TIP3    H267617   3.428   6.173  14.148 -0.9408  0.5762  0.0071
15376TIP3   OH267618   6.528   6.497   5.204  0.0863  0.1388  0.0780
15376TIP3    H167619   6.510   6.446   5.283  0.4374  2.3417  1.6674
15376TIP3    H267620   6.442   6.507   5.163 -0.5971  1.2243  1.6656
15377TIP3   OH267621   2.648   5.803  12.554  0.0907  0.0112 -0.0057
15377TIP3    H167622   2.660   5.867  12.625 -0.8083  1.1123 -0.8119
15377TIP3    H267623   2.718   5.740  12.567  0.7192  0.8920  1.1134
15378TIP3   OH267624   0.042   4.669  15.826 -0.4424  0.0048  0.3139
15378TIP3    H167625  -0.013   4.681  15.903  1.4794 -1.1660  1.9696
15378TIP3    H267626   0.035   4.576  15.807 -0.9648  0.2987 -1.0378
15379TIP3   OH267627   4.743   5.584   1.716  0.5722 -0.3627 -0.0205
15379TIP3    H167628   4.720   5.537   1.636 -0.6701  1.1857 -0.6195
15379TIP3    H267629   4.752   5.516   1.782  2.3174 -1.7529 -1.5938
15380TIP3   OH267630   3.168   0.390  15.278 -0.2203  0.7061  0.1768
15380TIP3    H167631   3.134   0.341  15.353 -0.6088  0.2638 -0.2817
15380TIP3    H267632   3.104   0.460  15.264  0.7960  1.9501  1.4053
15381TIP3   OH267633   6.495   1.912  12.116  0.3515  0.1836 -0.2768
15381TIP3    H167634   6.545   1.831  12.124 -0.1939 -0.1342 -0.0897
15381TIP3    H267635   6.413   1.895  12.161  0.5594  1.1240  0.4878
15382TIP3   OH267636   5.139   6.307   3.161  0.0625 -0.3436 -0.1712
15382TIP3    H167637   5.097   6.274   3.082 -0.8593 -0.2093  0.2474
15382TIP3    H267638   5.161   6.398   3.141  1.7560 -0.8837 -0.9947
15383TIP3   OH267639   3.794   2.570   1.549  0.1009 -0.6210 -1.0216
15383TIP3    H167640   3.814   2.505   1.481 -0.2378 -1.1093 -0.6620
15383TIP3    H267641   3.699   2.579   1.547  0.1873  0.3228 -1.4720
15384TIP3   OH267642   0.568   0.600  16.641 -0.2155 -0.0550  0.8934
15384TIP3    H167643   0.626   0.620  16.568  0.0492  1.5205  1.4775
15384TIP3    H267644   0.590   0.511  16.666 -0.3517 -0.6449 -0.9533
15385TIP3   OH267645   0.889   3.928  14.835 -0.3010 -0.2433 -0.0611
15385TIP3    H167646   0.968   3.953  14.882 -0.5908  0.0595  0.2675
15385TIP3    H267647   0.822   3.917  14.903 -0.8365  0.6342 -0.4364
15386TIP3   OH267648   3.204   1.525  15.460 -0.3181  1.0062 -0.2104
15386TIP3    H167649   3.147   1.525  15.536 -1.0031  0.9773 -0.7170
15386TIP3    H267650   3.288   1.494  15.493 -0.6674  0.7887  0.4883
15387TIP3   OH267651   0.428   5.496   2.162 -0.0415 -0.1623 -0.2934
15387TIP3    H167652   0.485   5.468   2.091 -1.0712  0.1817 -1.2790
15387TIP3    H267653   0.469   5.461   2.241  2.2692  1.2200 -0.8099
15388TIP3   OH267654   5.020   1.952  15.473  0.1881 -0.5240 -0.2139
15388TIP3    H167655   5.036   1.943  15.567  0.3381  0.3844 -0.1412
15388TIP3    H267656   5.101   1.989  15.438  0.0678 -0.6880 -0.6742
15389TIP3   OH267657   0.204   4.438   3.528 -0.4293  0.0774  0.0434
15389TIP3    H167658   0.123   4.440   3.579  0.2682  0.1403  1.1852
15389TIP3    H267659   0.188   4.373   3.459 -2.0802  1.3966 -0.8847
15390TIP3   OH267660   3.422   1.393   2.920  0.3492 -0.0464 -0.1685
15390TIP3    H167661   3.444   1.368   2.830 -0.9277 -0.8038 -0.2991
15390TIP3    H267662   3.363   1.324   2.950  0.5151  0.3601  1.1527
15391TIP3   OH267663   4.970   5.884   5.516  0.3284  0.0739 -0.0402
15391TIP3    H167664   4.973   5.848   5.428  0.7164 -0.7060  0.2802
15391TIP3    H267665   5.060   5.877   5.548  0.5127  1.7612 -0.1236
15392TIP3   OH267666   0.448   2.989  16.352  0.0003  0.2307  0.2817
15392TIP3    H167667   0.368   2.991  16.300  0.6846  1.5557 -0.7689
15392TIP3    H267668   0.517   3.017  16.292  0.8895  1.3905  1.7562
15393TIP3   OH267669   1.881   5.382  13.037 -0.2092  0.9748 -0.3922
15393TIP3    H167670   1.946   5.319  13.069 -1.9340 -0.2717  0.8528
15393TIP3    H267671   1.895   5.460  13.092 -0.4493  0.3299  0.6101
15394TIP3   OH267672   6.812   1.499   4.733 -0.0384  0.0189  0.4958
15394TIP3    H167673   6.891   1.490   4.788  0.3938 -0.4273 -0.1837
15394TIP3    H267674   6.785   1.590   4.746  0.9117  0.3431  0.3139
15395TIP3   OH267675   5.183   3.634   1.067  0.7184  0.3395  0.0734
15395TIP3    H167676   5.121   3.633   1.140  0.6589  1.0669  0.0469
15395TIP3    H267677   5.242   3.707   1.087  0.8410  0.4019 -0.4839
15396TIP3   OH267678   3.922   4.237  11.624 -0.5934  0.1717  0.1887
15396TIP3    H167679   3.923   4.182  11.546 -0.4173  0.9691 -0.3918
15396TIP3    H267680   4.000   4.210  11.673 -0.9950 -0.7007  0.3627
15397TIP3   OH267681   6.564   3.583   5.786  0.1898 -0.1735  0.3881
15397TIP3    H167682   6.637   3.644   5.777  0.8124 -0.7197  1.5519
15397TIP3    H267683   6.507   3.623   5.851 -1.7053  1.3002 -2.0073
15398TIP3   OH267684   3.585   2.152   0.771 -0.0397 -0.0889  0.1871
15398TIP3    H167685   3.636   2.211   0.826 -0.2148 -0.7500  1.0878
15398TIP3    H267686   3.600   2.183   0.682  1.5607  0.0156  0.4626
15399TIP3   OH267687   4.230   3.474  14.596  0.0620 -0.1936 -0.0785
15399TIP3    H167688   4.318   3.494  14.629  0.1596 -1.9754  0.8513
15399TIP3    H267689   4.177   3.549  14.625  1.1969  0.8189 -0.4971
15400TIP3   OH267690   3.637   4.614   5.701  0.8745 -0.5843 -0.2831
15400TIP3    H167691   3.588   4.692   5.728  0.9498  0.0271 -1.8365
15400TIP3    H267692   3.697   4.645   5.633  3.3077 -1.3444  1.3713
15401TIP3   OH267693   6.183   3.634  11.505 -0.6306 -0.0053  0.3394
15401TIP3    H167694   6.261   3.604  11.458 -0.2528  0.3425  0.7399
15401TIP3    H267695   6.199   3.726  11.523 -1.3117  0.1703  0.0770
15402TIP3   OH267696   0.283   5.452  15.466 -0.4334  0.1549  0.9184
15402TIP3    H167697   0.270   5.480  15.557  0.6976  0.4627  0.9973
15402TIP3    H267698   0.375   5.469  15.449 -0.2438 -1.4403  0.2331
15403TIP3   OH267699   5.497   1.646   4.356  0.2957 -0.0695 -0.2653
15403TIP3    H167700   5.415   1.606   4.328 -0.5150  1.3748 -0.0546
15403TIP3    H267701   5.522   1.597   4.434 -0.0487 -0.8939 -0.6615
15404TIP3   OH267702   3.353   1.581  12.012 -0.4589 -0.6338 -0.1635
15404TIP3    H167703   3.427   1.621  11.966 -0.2244 -0.5391  0.2994
15404TIP3    H267704   3.356   1.618  12.100 -0.8762 -0.8635 -0.0516
15405TIP3   OH267705   0.292   4.787   4.564  0.0966 -0.2777  0.8525
15405TIP3    H167706   0.312   4.783   4.471 -1.2699  2.8700  0.2809
15405TIP3    H267707   0.244   4.706   4.582 -0.4734 -0.5131 -1.4339
15406TIP3   OH267708   1.732   2.560   5.474  0.6501  0.1718  0.5428
15406TIP3    H167709   1.783   2.533   5.397  0.0846  0.8836 -0.1051
15406TIP3    H267710   1.797   2.575   5.542  1.2487  0.3616 -0.0581
15407TIP3   OH267711   5.059   3.434   4.502 -0.2636 -0.6830 -0.4990
15407TIP3    H167712   4.976   3.478   4.521  0.0171 -0.7866  1.1433
15407TIP3    H267713   5.083   3.391   4.584  1.9930  0.2865 -0.5737
15408TIP3   OH267714   6.586   1.477  10.294 -0.4437 -0.8073 -0.1454
15408TIP3    H167715   6.644   1.506  10.364 -0.0733  0.3392 -0.8896
15408TIP3    H267716   6.547   1.558  10.261 -1.3099 -1.4222 -0.6525
15409TIP3   OH267717   5.456   6.375  12.074  0.0099 -0.1276  0.1001
15409TIP3    H167718   5.380   6.316  12.080  0.4294 -0.5607  3.0640
15409TIP3    H267719   5.429   6.444  12.014 -0.9989 -2.5995 -2.5089
15410TIP3   OH267720   5.763   5.520  14.162 -0.7435 -0.1170 -0.4761
15410TIP3    H167721   5.819   5.581  14.210 -2.7016  1.1462  0.3481
15410TIP3    H267722   5.676   5.530  14.202 -1.4306 -2.5526 -1.1712
15411TIP3   OH267723   2.549   4.830  14.461  0.2556 -0.1715  0.0111
15411TIP3    H167724   2.550   4.829  14.557 -0.1262 -2.3668  0.0398
15411TIP3    H267725   2.520   4.919  14.438  0.8114  0.5499  1.8919
15412TIP3   OH267726   3.878   5.337   4.514 -0.1350 -0.0399  0.1421
15412TIP3    H167727   3.790   5.311   4.486  0.0177 -1.6509  1.0074
15412TIP3    H267728   3.935   5.270   4.477  0.7930  1.1034 -0.5835
15413TIP3   OH267729   1.777   2.268  16.043  0.1044 -0.3739  0.1748
15413TIP3    H167730   1.728   2.223  15.975 -1.7884  2.5437 -0.5248
15413TIP3    H267731   1.712   2.294  16.108  1.3237  0.1874  1.2374
15414TIP3   OH267732   2.747   1.963   1.983 -0.1721 -0.2715 -0.7113
15414TIP3    H167733   2.763   1.979   1.890  1.6231 -0.0814 -0.4077
15414TIP3    H267734   2.656   1.933   1.987 -1.3850  2.8131 -2.1317
15415TIP3   OH267735   6.190   0.656   0.364  0.0508 -0.2480 -0.1826
15415TIP3    H167736   6.224   0.741   0.333 -0.4719 -0.5336 -1.6477
15415TIP3    H267737   6.123   0.633   0.299 -0.4436 -1.3624  0.7027
15416TIP3   OH267738   2.993   5.719  11.880 -0.9928 -0.7045 -0.5010
15416TIP3    H167739   2.939   5.640  11.891 -0.9097 -0.9302 -1.5438
15416TIP3    H267740   2.935   5.791  11.903 -0.9738 -1.0830  0.7893
15417TIP3   OH267741   1.224   4.659  12.464 -0.2109 -0.1474  0.1565
15417TIP3    H167742   1.194   4.633  12.376 -0.3642  2.3788 -0.6250
15417TIP3    H267743   1.319   4.648  12.461 -0.0865  0.9551 -0.7615
15418TIP3   OH267744   3.530   6.112  14.999 -0.3615 -0.0055 -0.1568
15418TIP3    H167745   3.498   6.146  14.916 -0.7252  1.4256  0.5200
15418TIP3    H267746   3.545   6.019  14.984 -2.8773 -0.3328 -1.1071
15419TIP3   OH267747   1.457   4.404   0.675  0.2444  0.6467  0.6684
15419TIP3    H167748   1.444   4.384   0.768 -0.0172  1.5766  0.8379
15419TIP3    H267749   1.369   4.416   0.640  0.3700  1.0800  0.4873
15420TIP3   OH267750   4.059   6.474   1.071 -0.7114  0.4515  0.2171
15420TIP3    H167751   4.010   6.534   1.015 -0.1371  2.0499  1.3448
15420TIP3    H267752   4.051   6.511   1.159  0.2396 -0.7553  0.8439
15421TIP3   OH267753   2.050   4.958  11.168  0.3011 -0.7266  0.7324
15421TIP3    H167754   1.988   4.940  11.239 -0.5486  0.3153  0.2978
15421TIP3    H267755   2.053   5.054  11.164 -2.9215 -0.5008 -3.2520
15422TIP3   OH267756   5.202   6.763  14.041  0.1123  0.3890  0.7876
15422TIP3    H167757   5.220   6.853  14.069 -0.9737  0.8324  0.1081
15422TIP3    H267758   5.119   6.769  13.993  0.4668 -0.8299 -0.0134
15423TIP3   OH267759   0.243   5.330   1.658 -0.4929  0.5282 -0.5360
15423TIP3    H167760   0.181   5.372   1.717  1.1802 -1.2217  2.7721
15423TIP3    H267761   0.315   5.392   1.648 -0.3077  0.4283  0.1705
15424TIP3   OH267762   2.610   5.917  12.238 -0.1852  0.4131 -0.3685
15424TIP3    H167763   2.601   5.907  12.333  0.6225  0.5265 -0.2793
15424TIP3    H267764   2.520   5.913  12.206 -0.3212 -3.8169 -0.0098
15425TIP3   OH267765   5.642   5.186   1.465 -0.0236  0.1748 -0.1274
15425TIP3    H167766   5.685   5.167   1.549 -0.2613  1.4357  0.3073
15425TIP3    H267767   5.565   5.237   1.489 -1.9434 -2.1834 -0.8778
15426TIP3   OH267768   3.917   3.222   4.845 -0.1025 -0.4238  0.0513
15426TIP3    H167769   3.968   3.295   4.811  0.6361 -0.3631  1.2315
15426TIP3    H267770   3.871   3.187   4.769  0.9042  0.1646 -0.8546
15427TIP3   OH267771   6.602   3.315   3.561  0.1558 -0.4205 -0.2578
15427TIP3    H167772   6.523   3.322   3.615  0.1117 -0.8260 -0.2684
15427TIP3    H267773   6.579   3.253   3.492 -1.1018  2.8605 -3.0803
15428TIP3   OH267774   0.073   0.625   2.262 -0.4518 -0.0870  0.2151
15428TIP3    H167775   0.127   0.701   2.241 -0.6781  0.4434  1.5076
15428TIP3    H267776   0.106   0.556   2.205  0.7204  0.5816  0.0604
15429TIP3   OH267777   2.929   4.894  14.204  1.2130  0.1662 -0.2989
15429TIP3    H167778   2.886   4.871  14.121 -0.4316 -1.1443  0.8173
15429TIP3    H267779   2.963   4.811  14.237  2.1474  0.7258  0.1783
15430TIP3   OH267780   6.400   3.741  11.747 -0.2000  0.2382 -0.6664
15430TIP3    H167781   6.329   3.797  11.715 -0.6890  1.3529  2.0321
15430TIP3    H267782   6.362   3.654  11.752 -0.9444  0.5639 -0.5257
15431TIP3   OH267783   3.558   6.153  16.716  0.2295  0.1654 -0.0916
15431TIP3    H167784   3.586   6.230  16.666  2.9440 -0.2450  0.6389
15431TIP3    H267785   3.521   6.094  16.650  0.8485  0.8934 -1.1284
15432TIP3   OH267786   4.334   0.431   0.446  0.0683 -0.0063 -0.5473
15432TIP3    H167787   4.391   0.506   0.429 -1.1466  1.3129  0.9270
15432TIP3    H267788   4.339   0.379   0.366 -0.0678  2.3345 -2.2036
15433TIP3   OH267789   2.858   3.889  14.513 -0.0097 -0.2245  0.0792
15433TIP3    H167790   2.902   3.954  14.458  2.0989 -0.1005  1.7908
15433TIP3    H267791   2.771   3.879  14.473  0.5062  1.7144 -1.7276
15434TIP3   OH267792   4.237   1.822   5.568 -0.0485  0.2714 -0.4498
15434TIP3    H167793   4.193   1.881   5.507  0.4232  0.2927 -0.7749
15434TIP3    H267794   4.233   1.867   5.652  3.1735  2.3928 -1.2443
15435TIP3   OH267795   1.746   1.533   3.543 -0.0392 -0.1541  0.1699
15435TIP3    H167796   1.655   1.544   3.569 -0.0655  0.4885 -0.1625
15435TIP3    H267797   1.783   1.472   3.607 -0.5830 -0.0565  0.5799
15436TIP3   OH267798   3.208   2.822   1.669 -0.3837 -0.1725  0.5882
15436TIP3    H167799   3.274   2.816   1.599  0.0614  3.5141  0.4983
15436TIP3    H267800   3.257   2.810   1.750  0.2603  1.3804  0.4629
15437TIP3   OH267801   2.146   1.645  13.925 -0.0361 -0.0474 -0.1778
15437TIP3    H167802   2.087   1.589  13.874  1.2326 -1.1819 -0.4604
15437TIP3    H267803   2.154   1.601  14.009  0.8663 -0.2238 -0.3489
15438TIP3   OH267804   6.497   5.854   1.396  0.1985  0.0156 -0.2699
15438TIP3    H167805   6.496   5.805   1.314  1.9661  0.2656 -0.4761
15438TIP3    H267806   6.437   5.927   1.381 -1.6339 -1.4112 -0.3322
15439TIP3   OH267807   4.271   2.119   3.676  0.2427  0.6726 -0.8193
15439TIP3    H167808   4.305   2.094   3.762 -0.6636 -0.3560 -0.7362
15439TIP3    H267809   4.340   2.096   3.615 -0.4501 -2.0099 -0.7266
15440TIP3   OH267810   5.414   1.245  14.455 -0.0861  0.1246  0.3825
15440TIP3    H167811   5.487   1.187  14.478 -1.0474 -0.3563  2.4206
15440TIP3    H267812   5.342   1.215  14.510 -1.4059  1.5450 -0.5105
15441TIP3   OH267813   2.049   2.456  10.922  0.2552  0.8886 -0.2860
15441TIP3    H167814   2.060   2.552  10.918 -0.3023  0.9792  0.2698
15441TIP3    H267815   2.060   2.427  10.832  1.3903  1.3709 -0.3229
15442TIP3   OH267816   6.277   3.655  14.482 -0.1273 -0.1146  0.5674
15442TIP3    H167817   6.359   3.614  14.455 -1.1588  0.0084 -3.3387
15442TIP3    H267818   6.216   3.582  14.492 -0.4945  0.0218 -0.5418
15443TIP3   OH267819   0.631   0.122   0.628  0.2117  0.5109 -0.0822
15443TIP3    H167820   0.716   0.089   0.598 -0.8720  0.3388 -3.3935
15443TIP3    H267821   0.626   0.211   0.593 -1.1672  0.3245 -0.4045
15444TIP3   OH267822   4.955   6.210   1.736 -0.3253 -0.3208 -0.5234
15444TIP3    H167823   5.029   6.264   1.763  0.3439 -1.4423 -0.0664
15444TIP3    H267824   4.886   6.274   1.715  0.2952  0.6964  0.4046
15445TIP3   OH267825   4.956   6.184  13.168  0.4690 -0.2769  0.2642
15445TIP3    H167826   5.014   6.253  13.201  1.1923 -1.6561  2.0630
15445TIP3    H267827   5.013   6.107  13.159 -0.4520 -0.8537 -1.0293
15446TIP3   OH267828   4.103   4.121  11.787 -0.4377  0.3486  0.3408
15446TIP3    H167829   4.070   4.082  11.868 -1.8335 -0.8220 -0.7152
15446TIP3    H267830   4.197   4.107  11.790 -0.6876 -1.4901  0.8833
15447TIP3   OH267831   5.522   0.184   3.169 -0.2910 -0.2354  0.0513
15447TIP3    H167832   5.498   0.267   3.209  0.2362 -0.5120  0.9638
15447TIP3    H267833   5.569   0.209   3.089 -0.3549  0.3335  0.1885
15448TIP3   OH267834   5.780   4.101  17.111 -0.2434  0.3177 -0.0109
15448TIP3    H167835   5.869   4.127  17.090 -0.3552  0.3782 -0.4263
15448TIP3    H267836   5.784   4.073  17.202  0.2731 -0.0135 -0.1303
15449TIP3   OH267837   4.953   5.097  11.218 -0.4556  0.6437 -0.3614
15449TIP3    H167838   5.027   5.040  11.199  1.8273  2.4645  2.1882
15449TIP3    H267839   4.966   5.172  11.160 -0.2510  0.9774  0.1077
15450TIP3   OH267840   5.653   4.168  13.364 -0.3663  0.2305 -0.4395
15450TIP3    H167841   5.616   4.240  13.415 -0.5382 -0.2682  0.1579
15450TIP3    H267842   5.595   4.159  13.289 -0.9941 -0.0036  0.0622
15451TIP3   OH267843   3.286   2.487   4.550 -0.1054  0.6279 -0.3396
15451TIP3    H167844   3.226   2.440   4.492 -1.8804  0.6217  1.3950
15451TIP3    H267845   3.361   2.508   4.494 -1.7796  0.8487 -2.7070
15452TIP3   OH267846   5.731   5.080  12.476  0.4084  0.4318  0.4145
15452TIP3    H167847   5.676   5.069  12.553  2.0689 -0.4129  1.5496
15452TIP3    H267848   5.730   4.994  12.434  1.9899 -0.0423  1.2758
15453TIP3   OH267849   1.736   6.500  14.429  0.0230 -0.8348 -0.7622
15453TIP3    H167850   1.807   6.491  14.493  0.8452  1.3654 -1.2762
15453TIP3    H267851   1.693   6.582  14.452  0.9906  0.5671 -3.5790
15454TIP3   OH267852   0.021   5.552   5.764 -0.0257 -0.0774  0.3378
15454TIP3    H167853   0.098   5.571   5.816  0.1211  2.3261 -0.6122
15454TIP3    H267854  -0.053   5.580   5.818  0.0000  0.4840  0.0973
15455TIP3   OH267855   6.081   0.719   6.058  0.6637  0.8857 -0.2485
15455TIP3    H167856   6.115   0.699   6.145  0.3613  2.1476  0.1731
15455TIP3    H267857   6.147   0.775   6.018 -0.8375  3.3942  0.5949
15456TIP3   OH267858   5.592   4.946  14.822  0.1793 -0.0347 -0.1827
15456TIP3    H167859   5.630   4.859  14.809  0.7080  0.1833 -0.1617
15456TIP3    H267860   5.609   4.992  14.740 -0.1767  0.0215 -0.2257
15457TIP3   OH267861   0.353   5.205   2.135  0.0617  0.2526 -0.0025
15457TIP3    H167862   0.345   5.300   2.134 -0.0102  0.2507  0.4527
15457TIP3    H267863   0.264   5.172   2.142 -0.0484  0.1146 -1.6111
15458TIP3   OH267864   2.013   1.123  12.618  0.4197 -0.2017 -0.0594
15458TIP3    H167865   1.991   1.203  12.570  0.7998 -0.7521 -1.1965
15458TIP3    H267866   1.970   1.053  12.569  2.5127 -1.0191 -0.8595
15459TIP3   OH267867   2.891   1.650   1.963 -0.1300 -0.0943 -0.2986
15459TIP3    H167868   2.912   1.712   2.033  0.4520 -1.0018  0.3541
15459TIP3    H267869   2.976   1.628   1.924 -0.1638 -1.4345  0.3260
15460TIP3   OH267870   3.149   2.143   4.479 -0.1916 -0.3888 -0.1139
15460TIP3    H167871   3.058   2.161   4.454 -0.0835  0.9733  0.3726
15460TIP3    H267872   3.198   2.217   4.443  0.5735 -0.5794  0.5248
15461TIP3   OH267873   1.318   0.122   0.637  0.5899  0.3640  0.7098
15461TIP3    H167874   1.315   0.118   0.542  1.8501 -0.5675  0.6875
15461TIP3    H267875   1.227   0.110   0.664 -0.1506  2.8455 -0.3981
15462TIP3   OH267876   3.653   1.480   3.064  0.0461  0.0113  0.2110
15462TIP3    H167877   3.587   1.449   3.002  1.1547  0.6422 -1.3393
15462TIP3    H267878   3.737   1.466   3.019  1.1048 -1.5535  2.4278
15463TIP3   OH267879   2.214   1.070  16.788 -0.5499  0.1027  0.4701
15463TIP3    H167880   2.296   1.022  16.779  1.0255  2.5339  0.7926
15463TIP3    H267881   2.154   1.028  16.727  0.1759 -3.1659  1.8341
15464TIP3   OH267882   0.608   6.713  15.318 -0.3045 -0.2823  0.3868
15464TIP3    H167883   0.690   6.762  15.312 -0.3833 -0.1855  0.0593
15464TIP3    H267884   0.541   6.775  15.289 -0.5428 -0.2435  1.0052
15465TIP3   OH267885   5.770   6.475   4.801  0.3286  0.2489  0.2485
15465TIP3    H167886   5.813   6.557   4.825  0.8743  0.2439 -0.6564
15465TIP3    H267887   5.842   6.417   4.775 -0.0738 -0.4138  0.5828
15466TIP3   OH267888   4.539   1.178   4.285 -0.1867  0.2768 -0.7130
15466TIP3    H167889   4.573   1.265   4.306  0.4959  0.7732 -3.4440
15466TIP3    H267890   4.601   1.118   4.327 -1.0644  0.9910  1.8108
15467TIP3   OH267891   0.617   6.429  15.323  0.4186  0.1564  0.4355
15467TIP3    H167892   0.705   6.431  15.285  0.1989  0.6966 -0.0517
15467TIP3    H267893   0.580   6.515  15.302  0.3816  0.5768  2.0881
15468TIP3   OH267894   1.139   4.218   5.489 -0.1020 -0.8058 -0.3835
15468TIP3    H167895   1.150   4.229   5.395  0.7744 -0.2554 -0.2280
15468TIP3    H267896   1.064   4.273   5.511  0.0080 -0.5324 -0.6831
15469TIP3   OH267897   3.424   2.288   1.214  0.2702  0.1825 -0.4729
15469TIP3    H167898   3.348   2.242   1.178 -0.3203  2.1911 -1.9916
15469TIP3    H267899   3.400   2.306   1.305 -0.4213 -0.4988 -0.5047
15470TIP3   OH267900   0.368   3.822   1.022  0.2229  0.0416 -0.7381
15470TIP3    H167901   0.434   3.818   0.953 -0.3911  0.4539 -1.3674
15470TIP3    H267902   0.338   3.732   1.031  0.2556 -0.0053 -1.0635
15471TIP3   OH267903   2.356   5.831  14.162 -0.1239 -0.5067 -0.5352
15471TIP3    H167904   2.384   5.741  14.148  0.2447 -0.2420 -1.5973
15471TIP3    H267905   2.431   5.884  14.133  0.1928  0.1343  1.3272
15472TIP3   OH267906   3.173   3.193   4.633 -0.2837 -0.2784 -0.4817
15472TIP3    H167907   3.254   3.166   4.589  0.1127 -0.5058  0.3658
15472TIP3    H267908   3.190   3.177   4.726 -1.4540 -0.7303 -0.3277
15473TIP3   OH267909   3.461   0.988   6.471 -0.7192 -0.2696 -0.5885
15473TIP3    H167910   3.388   1.050   6.472 -2.0115 -1.6645 -2.0704
15473TIP3    H267911   3.440   0.926   6.541 -0.0742  0.2716  0.0850
15474TIP3   OH267912   1.577   5.599  11.138 -0.0256 -0.0081 -0.1330
15474TIP3    H167913   1.626   5.572  11.061 -0.0536  0.2483 -0.2430
15474TIP3    H267914   1.643   5.607  11.207  0.0529  0.1007 -0.2192
15475TIP3   OH267915   3.396   3.378   4.498  0.0500 -0.4476 -0.2664
15475TIP3    H167916   3.350   3.382   4.582  0.1471 -2.5920 -0.0442
15475TIP3    H267917   3.341   3.429   4.438 -1.4446 -1.0929  0.4975
15476TIP3   OH267918   1.451   4.198   0.867 -0.6435  0.2415 -0.0922
15476TIP3    H167919   1.398   4.126   0.900 -0.2509 -0.3788 -0.7707
15476TIP3    H267920   1.498   4.230   0.943  0.8174 -1.6463 -0.1154
15477TIP3   OH267921   2.374   4.125   2.742  0.1958 -0.3034 -0.0517
15477TIP3    H167922   2.287   4.122   2.701  0.7394 -0.1190 -1.2546
15477TIP3    H267923   2.420   4.195   2.695  1.1699 -0.7593  0.2155
15478TIP3   OH267924   4.521   1.571  14.404 -0.6131 -0.1076  0.0366
15478TIP3    H167925   4.543   1.482  14.377 -0.9189 -0.4862  1.0101
15478TIP3    H267926   4.512   1.619  14.322  2.1543 -0.3194 -0.4964
15479TIP3   OH267927   5.420   3.794  10.843 -0.2722  0.0923 -0.4373
15479TIP3    H167928   5.339   3.782  10.793  0.0372  0.3175 -1.0075
15479TIP3    H267929   5.416   3.885  10.873  0.5842  0.6893 -1.9971
15480TIP3   OH267930   4.081   2.387  12.293 -0.6941 -0.4687 -0.0404
15480TIP3    H167931   4.098   2.314  12.352 -1.8040 -0.7269 -0.0252
15480TIP3    H267932   4.163   2.437  12.293  0.6996 -2.5660 -1.3277
15481TIP3   OH267933   0.038   0.467  16.458  0.4171  0.5417 -0.0591
15481TIP3    H167934   0.026   0.397  16.394  1.1973  0.3741 -0.0208
15481TIP3    H267935   0.104   0.434  16.518 -0.8332  0.3920  1.2771
15482TIP3   OH267936   4.666   4.830   2.787  0.0133  0.0702  0.1056
15482TIP3    H167937   4.600   4.893   2.760  1.5838  1.5471 -0.4163
15482TIP3    H267938   4.709   4.802   2.706 -0.2968 -1.2715  0.3820
15483TIP3   OH267939   0.813   3.469   3.937 -0.8447  0.1982 -0.5074
15483TIP3    H167940   0.868   3.428   4.004  0.4788 -0.3575 -1.8855
15483TIP3    H267941   0.795   3.399   3.875 -1.3598  0.9150 -1.1786
15484TIP3   OH267942   4.206   5.028   6.268  0.3684 -0.1499 -0.2868
15484TIP3    H167943   4.124   4.983   6.288  1.0338 -1.8697 -1.2370
15484TIP3    H267944   4.252   5.032   6.352  0.0932 -0.8492 -0.0957
15485TIP3   OH267945   3.486   0.923  10.812  0.1533  0.1289  0.1782
15485TIP3    H167946   3.450   0.840  10.783 -0.5478  0.7712 -0.8516
15485TIP3    H267947   3.547   0.900  10.882  1.3935 -1.4378 -1.3255
15486TIP3   OH267948   0.583   1.386   6.083 -0.0846  0.8033  0.2649
15486TIP3    H167949   0.627   1.451   6.138  0.9332  0.0243  0.4130
15486TIP3    H267950   0.491   1.413   6.083 -0.1705  0.7335  2.5018
15487TIP3   OH267951   3.412   2.739   2.898  0.2848 -0.0283  0.4066
15487TIP3    H167952   3.444   2.827   2.916  1.4391 -0.0775 -1.2251
15487TIP3    H267953   3.323   2.738   2.934  0.0158  1.9836 -0.0914
15488TIP3   OH267954   2.028   2.993  15.627  0.0650  0.1042 -0.0941
15488TIP3    H167955   2.017   2.969  15.535  0.5727  2.6416 -0.9169
15488TIP3    H267956   1.963   3.062  15.641  0.3291  0.0890  1.3011
15489TIP3   OH267957   6.236   0.008  13.022  0.4394  0.3498 -0.2627
15489TIP3    H167958   6.164   0.035  13.078 -2.0137 -2.1996 -1.9296
15489TIP3    H267959   6.214   0.042  12.936  2.7909  1.9405 -0.3374
15490TIP3   OH267960   2.600   1.441  17.043  0.4906  0.1543  0.2395
15490TIP3    H167961   2.639   1.422  16.958 -0.2283  0.6696 -0.2170
15490TIP3    H267962   2.564   1.357  17.073 -1.5354  0.4456 -1.1669
15491TIP3   OH267963   0.601   1.096  14.541 -0.7429  0.2569 -1.0304
15491TIP3    H167964   0.648   1.167  14.496 -0.9807 -0.2533 -2.1162
15491TIP3    H267965   0.649   1.083  14.622  1.0184 -0.2423 -2.0890
15492TIP3   OH267966   3.955   5.059  16.676 -0.3469 -0.7503  0.1888
15492TIP3    H167967   3.864   5.040  16.652 -0.4272 -2.0063  1.3426
15492TIP3    H267968   3.968   5.012  16.758  0.9038  0.6439  0.8317
15493TIP3   OH267969   4.430   6.420   1.355 -0.5490 -0.0839 -0.2790
15493TIP3    H167970   4.501   6.399   1.294  1.7261  0.7285  1.8996
15493TIP3    H267971   4.421   6.342   1.409 -2.2974 -0.6600 -1.3054
15494TIP3   OH267972   5.252   6.609   1.685  1.0630  0.5522  0.1251
15494TIP3    H167973   5.330   6.602   1.629 -0.0093  1.8494 -1.6336
15494TIP3    H267974   5.260   6.694   1.728  0.1534  1.1857 -0.8931
15495TIP3   OH267975   5.959   5.270   5.101  0.2693  0.2692  0.0818
15495TIP3    H167976   5.946   5.314   5.017  0.9151  1.1474  0.4343
15495TIP3    H267977   6.047   5.294   5.128  0.5887 -1.1400  0.3571
15496TIP3   OH267978   6.844   2.760   4.753 -0.2085  0.3076  0.3439
15496TIP3    H167979   6.799   2.841   4.728  1.3358  0.9972 -0.3091
15496TIP3    H267980   6.857   2.769   4.848 -0.0392  0.8490  0.2788
15497TIP3   OH267981   5.218   2.569   2.745  0.5800 -0.6694 -0.4892
15497TIP3    H167982   5.260   2.641   2.791 -0.6291 -0.6922  0.7049
15497TIP3    H267983   5.269   2.492   2.768  1.0337 -0.4169 -0.6331
15498TIP3   OH267984   1.247   3.432  14.991 -0.2375  0.5123  0.3815
15498TIP3    H167985   1.327   3.447  15.042  0.1663 -1.3232  0.3509
15498TIP3    H267986   1.234   3.513  14.942  0.8066  1.3601  1.4642
15499TIP3   OH267987   3.984   4.219  13.364 -0.0630  0.0795  0.6635
15499TIP3    H167988   4.071   4.180  13.374 -0.8445 -2.4011 -1.3623
15499TIP3    H267989   4.002   4.313  13.356  2.6263 -0.4529 -1.1816
15500TIP3   OH267990   0.636   6.525   2.790 -0.0829 -0.1193  0.0095
15500TIP3    H167991   0.649   6.558   2.701  1.8068  0.4365  0.4638
15500TIP3    H267992   0.674   6.437   2.789 -2.8450 -1.4455 -0.5040
15501TIP3   OH267993   4.112   0.168  12.397 -0.0141 -0.1894 -0.5600
15501TIP3    H167994   4.044   0.203  12.456 -0.0644  2.5452 -2.0822
15501TIP3    H267995   4.064   0.113  12.335 -0.5663  0.1844 -0.4715
15502TIP3   OH267996   0.760   6.315   0.036  0.0097  0.0012  0.0309
15502TIP3    H167997   0.842   6.329   0.083  1.9621  0.6390 -3.2182
15502TIP3    H267998   0.694   6.357   0.091  2.3095  2.1539  1.4281
15503TIP3   OH267999   0.518   5.622  13.594  0.9475  0.1326 -0.3294
15503TIP3    H168000   0.597   5.644  13.545  0.4392  0.4197 -1.0386
15503TIP3    H268001   0.546   5.556  13.657  1.6633 -0.0580 -0.8411
15504TIP3   OH268002   2.005   4.275  15.708 -0.4506  0.7916 -0.2769
15504TIP3    H168003   2.082   4.294  15.762 -1.4036  1.2885  0.9843
15504TIP3    H268004   2.034   4.208  15.646  0.8499  0.6052  0.4929
15505TIP3   OH268005   0.536   2.028   2.437 -0.7459 -0.4108 -0.2973
15505TIP3    H168006   0.506   2.064   2.353  1.6621  0.5250 -0.8252
15505TIP3    H268007   0.501   2.089   2.503  0.2031  0.8455 -0.9162
15506TIP3   OH268008   1.950   3.719   1.299  0.5397 -0.7031  0.0322
15506TIP3    H168009   2.042   3.745   1.291  0.6065 -0.7900  0.4986
15506TIP3    H268010   1.943   3.680   1.386  0.3664 -1.9738 -0.5328
15507TIP3   OH268011   3.750   1.899  14.959  0.2066  0.4500  0.4135
15507TIP3    H168012   3.665   1.876  14.997  0.5782  0.3244  1.1817
15507TIP3    H268013   3.814   1.857  15.016  0.8264  1.4936  0.5088
15508TIP3   OH268014   3.732   6.500   0.651 -0.3240 -0.0843  0.6604
15508TIP3    H168015   3.772   6.587   0.656 -1.0094  0.3259 -0.6191
15508TIP3    H268016   3.655   6.506   0.708  0.1768 -0.1772  1.3594
15509TIP3   OH268017   2.633   5.621  12.803  0.3304 -0.0219  0.3770
15509TIP3    H168018   2.647   5.716  12.808 -2.5378  0.4359  1.6147
15509TIP3    H268019   2.542   5.609  12.831 -0.0138 -2.9841 -1.5911
15510TIP3   OH268020   5.735   4.355   0.956 -0.0570 -0.5683  0.2740
15510TIP3    H168021   5.758   4.439   0.996  0.4128 -0.5739  0.0282
15510TIP3    H268022   5.640   4.354   0.956 -0.0667 -0.4422  1.1232
15511TIP3   OH268023   4.548   3.568   4.538  0.1811  0.4347  0.1206
15511TIP3    H168024   4.476   3.585   4.477 -0.5880 -1.3078  0.4591
15511TIP3    H268025   4.624   3.555   4.481 -0.6050 -1.5644 -0.5684
15512TIP3   OH268026   6.263   1.979  16.801  0.0696 -0.0135  0.1168
15512TIP3    H168027   6.234   2.066  16.773 -2.4880 -0.3643  1.4356
15512TIP3    H268028   6.357   1.989  16.814  0.3050  1.8366 -2.2137
15513TIP3   OH268029   1.757   3.546  12.586  0.2518 -0.1074  0.1986
15513TIP3    H168030   1.842   3.536  12.543  0.4519  0.0003  0.5692
15513TIP3    H268031   1.710   3.465  12.564  0.3562 -0.0596 -0.2102
15514TIP3   OH268032   4.738   6.373  11.241 -0.1284  0.0163  0.3763
15514TIP3    H168033   4.642   6.367  11.241 -0.0437 -2.0512  0.4388
15514TIP3    H268034   4.759   6.417  11.159 -1.1286  1.2593  0.7446
15515TIP3   OH268035   1.628   3.943  16.949  0.6169  0.3576 -0.3233
15515TIP3    H168036   1.554   3.947  17.010  0.3948  1.8361 -0.6550
15515TIP3    H268037   1.665   3.856  16.962 -0.6649 -0.0940  0.4608
15516TIP3   OH268038   5.012   0.800   2.088 -0.2454  0.1488 -0.4440
15516TIP3    H168039   5.028   0.834   2.176 -2.4087  0.4791 -0.1341
15516TIP3    H268040   5.028   0.706   2.096  0.3976  0.2900  0.0672
15517TIP3   OH268041   2.948   2.060   5.915 -0.0504 -0.7252 -0.4642
15517TIP3    H168042   2.999   1.983   5.942  0.2656 -1.0188 -1.8002
15517TIP3    H268043   3.012   2.117   5.872 -0.6351 -0.5952 -1.1875
15518TIP3   OH268044   1.592   3.273   1.414 -0.5678 -0.4149 -0.0858
15518TIP3    H168045   1.669   3.322   1.387 -0.9420  0.3867  0.2664
15518TIP3    H268046   1.586   3.289   1.509 -0.3878 -1.5865  0.1417
15519TIP3   OH268047   2.404   3.034   4.016 -0.0730  0.3343 -0.1750
15519TIP3    H168048   2.330   3.082   4.054 -0.5343 -0.4350 -0.0786
15519TIP3    H268049   2.373   3.008   3.929 -0.5700 -1.4451  0.4976
15520TIP3   OH268050   2.385   5.054  11.214 -0.2382  0.6735 -0.3934
15520TIP3    H168051   2.363   5.036  11.123 -0.3133  0.3067 -0.3054
15520TIP3    H268052   2.456   4.993  11.234  0.0115  0.9889 -0.3056
15521TIP3   OH268053   1.507   5.798  10.829 -0.6010  0.7780  0.1326
15521TIP3    H168054   1.417   5.832  10.820 -0.3550  1.3409 -0.2987
15521TIP3    H268055   1.545   5.851  10.899 -1.2553 -0.9105  1.8745
15522TIP3   OH268056   3.556   2.374  13.741 -0.1991  0.0299 -0.2439
15522TIP3    H168057   3.532   2.436  13.810  0.7765  0.9231 -0.6747
15522TIP3    H268058   3.544   2.423  13.659 -0.0394 -0.5647 -0.6317
15523TIP3   OH268059   4.584   0.560   4.154  0.4245  0.1144  0.3299
15523TIP3    H168060   4.605   0.640   4.203  1.1985  0.6497 -0.8357
15523TIP3    H268061   4.525   0.590   4.084  1.3714 -0.1624 -0.6097
15524TIP3   OH268062   4.189   0.252   2.181  0.1302 -0.0353 -0.1443
15524TIP3    H168063   4.254   0.182   2.196 -0.3070 -0.8737 -1.8543
15524TIP3    H268064   4.241   0.325   2.148  0.5469  0.3504  1.2981
15525TIP3   OH268065   0.250   3.576  14.527  0.2614  0.4468  0.3368
15525TIP3    H168066   0.154   3.569  14.522  0.3863 -0.8622 -3.0592
15525TIP3    H268067   0.266   3.663  14.562 -2.0516 -0.4087  4.1748
15526TIP3   OH268068   4.293   4.386   1.951  0.0552 -0.0652  0.2594
15526TIP3    H168069   4.262   4.476   1.943 -0.8195 -0.5059 -2.4691
15526TIP3    H268070   4.235   4.346   2.015  1.2346  1.5470  2.4825
15527TIP3   OH268071   0.117   2.839   3.634  0.2716 -0.0193  0.0071
15527TIP3    H168072   0.069   2.777   3.689 -2.1419  1.9676  0.3176
15527TIP3    H268073   0.095   2.925   3.670  1.2044  1.1804 -2.1045
15528TIP3   OH268074   5.968   1.908   2.909 -0.0586 -0.1016  0.5504
15528TIP3    H168075   5.915   1.837   2.944 -2.2276  1.5878  0.9383
15528TIP3    H268076   6.056   1.893   2.945 -1.1261 -0.9658  2.9985
15529TIP3   OH268077   2.278   6.506  14.731 -0.1271 -0.3706  0.1878
15529TIP3    H168078   2.244   6.575  14.788 -1.2982 -1.5349  0.9714
15529TIP3    H268079   2.358   6.475  14.774  1.0053  1.1686 -0.7208
15530TIP3   OH268080   1.214   6.335   2.023 -0.7873  0.1339 -0.2408
15530TIP3    H168081   1.264   6.295   2.095 -2.0588  0.0886  0.6553
15530TIP3    H268082   1.249   6.424   2.017  0.4866 -0.3808 -0.7148
15531TIP3   OH268083   3.055   0.563  16.817  0.4410 -0.1542  0.8151
15531TIP3    H168084   3.063   0.580  16.723  1.8502  1.6993  1.2075
15531TIP3    H268085   3.082   0.472  16.828 -0.9848 -0.8127 -0.6836
15532TIP3   OH268086   3.730   3.024  16.421  0.1188 -0.8220 -0.6171
15532TIP3    H168087   3.799   3.090  16.426 -0.5006 -0.2586  1.7993
15532TIP3    H268088   3.739   2.986  16.334 -0.2873  3.3001 -2.7002
15533TIP3   OH268089   0.933   4.329  16.537  0.1040  0.2657  0.3733
15533TIP3    H168090   0.864   4.369  16.591 -1.0559  1.1569 -1.6480
15533TIP3    H268091   0.950   4.245  16.579 -1.9274  0.2115  1.2234
15534TIP3   OH268092   5.632   6.320   6.087  0.0081  0.1445 -0.0940
15534TIP3    H168093   5.664   6.231   6.102  1.7294  0.6786 -0.4575
15534TIP3    H268094   5.557   6.308   6.029 -0.3536 -1.1202  0.5822
15535TIP3   OH268095   3.894   3.008   5.833 -0.5416 -0.0937  0.6637
15535TIP3    H168096   3.964   3.068   5.860 -0.1878 -0.5049  0.6510
15535TIP3    H268097   3.859   2.974   5.916 -1.1851  0.6241  0.7038
15536TIP3   OH268098   6.213   3.216  16.685 -0.3035  0.3992 -0.4220
15536TIP3    H168099   6.274   3.212  16.611  0.0655  0.8237 -0.1421
15536TIP3    H268100   6.254   3.276  16.747 -1.5791  1.6278 -0.7423
15537TIP3   OH268101   4.207   6.554   6.547  0.2731 -0.2574  0.4418
15537TIP3    H168102   4.241   6.610   6.617  1.0252 -0.3731  0.1855
15537TIP3    H268103   4.286   6.524   6.500 -0.1768 -0.7304 -0.0305
15538TIP3   OH268104   1.485   0.737  16.621 -0.3749 -0.7002  0.4666
15538TIP3    H168105   1.560   0.743  16.563 -1.5559 -1.2133 -1.1886
15538TIP3    H268106   1.479   0.824  16.661 -0.5727  0.2997 -1.5949
15539TIP3   OH268107   2.448   2.358  14.419 -0.6022  0.0582 -0.4994
15539TIP3    H168108   2.417   2.273  14.451 -2.3355  0.5360 -0.8051
15539TIP3    H268109   2.373   2.394  14.371  1.0122  0.5273 -2.8394
15540TIP3   OH268110   0.141   3.416   1.800  0.3520  0.0772  0.1060
15540TIP3    H168111   0.095   3.416   1.716 -0.8947  1.1541  0.7691
15540TIP3    H268112   0.232   3.398   1.777  0.0175  0.2802 -1.4696
15541TIP3   OH268113   6.504   5.395  13.903  0.0788  0.5609 -0.1006
15541TIP3    H168114   6.547   5.407  13.818  1.0312 -0.0330  0.2764
15541TIP3    H268115   6.468   5.482  13.924 -0.7851  0.5443 -1.4144
15542TIP3   OH268116   4.235   3.861   4.745  0.1925 -0.3570 -0.5694
15542TIP3    H168117   4.314   3.899   4.707  1.4097 -1.5988  0.6054
15542TIP3    H268118   4.201   3.929   4.803 -0.2168  0.5607 -1.8278
15543TIP3   OH268119   4.282   3.084  11.126 -0.6652  0.1551  0.1677
15543TIP3    H168120   4.212   3.085  11.061 -0.8194  0.7651  0.3306
15543TIP3    H268121   4.239   3.061  11.208 -0.8829  1.4961  0.4648
15544TIP3   OH268122   6.786   5.346  12.489  0.0171  0.2165 -0.4809
15544TIP3    H168123   6.804   5.258  12.522  1.4881 -0.2714 -2.3745
15544TIP3    H268124   6.859   5.399  12.522 -0.0448  0.3749 -0.5982
15545TIP3   OH268125   1.925   0.087  14.271  0.1666  0.7474 -0.1346
15545TIP3    H168126   1.918  -0.006  14.251  1.6013  0.3204  1.2245
15545TIP3    H268127   1.837   0.122  14.254 -0.5736 -0.9677  0.0277
15546TIP3   OH268128   0.911   6.559  11.572 -0.3378 -0.0103  0.2227
15546TIP3    H168129   0.985   6.535  11.628  0.9894  1.2600 -0.9294
15546TIP3    H268130   0.949   6.570  11.485 -1.8180  1.0811 -0.3220
15547TIP3   OH268131   0.303   6.279   2.909  0.6612 -0.1250  0.4589
15547TIP3    H168132   0.226   6.332   2.888  0.3407 -1.0291 -0.7828
15547TIP3    H268133   0.363   6.340   2.951 -0.2107  0.9110  0.2536
15548TIP3   OH268134   2.938   4.791   1.940 -0.2717  0.3256  0.2021
15548TIP3    H168135   2.938   4.887   1.935  0.1180  0.3015 -0.5100
15548TIP3    H268136   2.949   4.763   1.849 -1.3194 -0.4137  0.2959
15549TIP3   OH268137   0.794   4.883   2.018 -0.1451 -0.0241  0.4106
15549TIP3    H168138   0.783   4.978   2.007 -0.2660  0.1761  2.0325
15549TIP3    H268139   0.805   4.850   1.929  0.5145  1.5871 -0.1552
15550TIP3   OH268140   0.317   4.132  16.455  0.0354  0.0943  0.0681
15550TIP3    H168141   0.317   4.166  16.544 -2.1307 -0.6004  0.3859
15550TIP3    H268142   0.378   4.058  16.457 -2.0150 -1.6900  1.7828
15551TIP3   OH268143   4.347   1.791   6.177 -0.2400  0.1990 -0.6612
15551TIP3    H168144   4.344   1.887   6.168  1.0868  0.2112 -1.1672
15551TIP3    H268145   4.306   1.774   6.262  0.3738  1.3055 -0.1213
15552TIP3   OH268146   4.284   6.625   1.752  0.3105  0.5164 -0.5666
15552TIP3    H168147   4.276   6.663   1.839  5.1732  2.1708 -0.5554
15552TIP3    H268148   4.350   6.556   1.762 -1.4609 -1.6286 -2.4357
15553TIP3   OH268149   5.429   4.277   5.386  0.3120  0.1266  0.0910
15553TIP3    H168150   5.478   4.298   5.466  0.2762  0.5807 -0.0018
15553TIP3    H268151   5.338   4.298   5.408  0.3620  0.6939 -0.2109
15554TIP3   OH268152   0.933   6.079  15.609 -0.3620 -0.4162 -0.2878
15554TIP3    H168153   0.963   6.145  15.672  0.0064 -0.9025  0.0500
15554TIP3    H268154   0.922   5.999  15.661 -2.1096 -0.3113 -0.4142
15555TIP3   OH268155   4.478   5.623  16.268  0.4979 -0.3714  0.1015
15555TIP3    H168156   4.444   5.713  16.274 -2.0620 -1.2844  0.2565
15555TIP3    H268157   4.447   5.580  16.348  0.5802 -1.7428 -0.5770
15556TIP3   OH268158   2.932   0.037   1.903 -0.3405  0.2153 -0.2168
15556TIP3    H168159   3.027   0.040   1.896  0.0972 -0.8731  3.3544
15556TIP3    H268160   2.904   0.126   1.884  1.7045  1.2690  1.3313
15557TIP3   OH268161   5.027   2.986   1.972 -0.2114 -0.3968  0.5622
15557TIP3    H168162   4.945   2.940   1.955  0.2062 -1.0542  0.2930
15557TIP3    H268163   5.014   3.028   2.057 -1.1771  0.3165  0.0862
15558TIP3   OH268164   0.617   3.439  11.958  0.2197  0.6070 -0.4947
15558TIP3    H168165   0.536   3.489  11.943  0.1905  0.4352 -0.9477
15558TIP3    H268166   0.664   3.446  11.875  0.1802 -0.1753 -0.5886
15559TIP3   OH268167   4.000   0.809   5.303  0.0339  0.2358 -0.5290
15559TIP3    H168168   3.978   0.723   5.268 -1.2729 -0.7631  2.4376
15559TIP3    H268169   3.932   0.867   5.268 -1.3742 -0.7661  0.4571
15560TIP3   OH268170   4.793   3.542   4.838 -0.8049  0.3665  0.2692
15560TIP3    H168171   4.734   3.524   4.764 -0.0612 -0.6687 -0.0890
15560TIP3    H268172   4.855   3.469   4.838 -2.3761 -1.1911  3.5693
15561TIP3   OH268173   5.790   0.235   6.671 -0.4507 -0.2093 -0.2377
15561TIP3    H168174   5.846   0.177   6.723  0.3362  0.7546  0.0275
15561TIP3    H268175   5.841   0.315   6.662 -0.3640 -0.4846 -2.8903
15562TIP3   OH268176   0.139   6.578  12.306  0.4991  0.1261 -0.6544
15562TIP3    H168177   0.074   6.516  12.272 -1.0698  2.1645 -1.5830
15562TIP3    H268178   0.223   6.543  12.277 -0.2369 -1.9420 -0.4894
15563TIP3   OH268179   5.096   0.513  12.459  0.2338  0.2054 -0.2264
15563TIP3    H168180   5.023   0.475  12.408  0.7699  0.6556 -1.3734
15563TIP3    H268181   5.166   0.523  12.395  1.0569  0.4858  0.7045
15564TIP3   OH268182   0.718   3.618  15.774 -0.1726  0.0307  0.0356
15564TIP3    H168183   0.776   3.591  15.845  0.0785 -0.6496 -0.4209
15564TIP3    H268184   0.774   3.665  15.714 -0.7277  2.2063  1.1303
15565TIP3   OH268185   4.361   3.977   2.830  0.0517  0.5795 -0.3576
15565TIP3    H168186   4.352   3.991   2.735  1.4632 -3.7865 -1.3857
15565TIP3    H268187   4.280   3.934   2.855  0.7157 -0.6923 -0.2783
15566TIP3   OH268188   2.128   2.608  15.942 -0.2682  0.4571 -0.2271
15566TIP3    H168189   2.132   2.633  15.850 -1.0502 -0.7482 -0.6110
15566TIP3    H268190   2.210   2.560  15.958 -0.2173  0.5040 -0.3461
15567TIP3   OH268191   4.533   5.142  15.550  0.2167  0.3342 -0.3119
15567TIP3    H168192   4.442   5.154  15.524 -0.0518 -1.6156 -0.3995
15567TIP3    H268193   4.548   5.208  15.618 -1.4923  0.1987  0.2384
15568TIP3   OH268194   1.923   5.427   4.486  0.2182  0.1830  0.2633
15568TIP3    H168195   1.898   5.517   4.468  1.1136  0.2722 -0.6740
15568TIP3    H268196   1.841   5.382   4.506 -0.6474  0.5904 -2.0319
15569TIP3   OH268197   2.579   0.198   5.204  0.5042  0.3124  0.5655
15569TIP3    H168198   2.596   0.235   5.118  3.0295 -2.0713 -0.0953
15569TIP3    H268199   2.541   0.111   5.185  0.9409 -0.1769  1.8508
15570TIP3   OH268200   5.785   1.407   4.910 -0.5409 -0.0980 -0.0487
15570TIP3    H168201   5.848   1.447   4.969 -0.1752  0.3370 -0.7286
15570TIP3    H268202   5.827   1.325   4.883 -0.3790  0.0682 -0.3005
15571TIP3   OH268203   2.437   1.797  12.146 -0.0358  0.2572  0.2758
15571TIP3    H168204   2.349   1.818  12.116  0.3518 -0.0097 -1.1630
15571TIP3    H268205   2.484   1.880  12.144  0.8803 -0.1404 -3.2354
15572TIP3   OH268206   4.684   4.300  13.847 -0.5789  0.2475 -0.6475
15572TIP3    H168207   4.728   4.359  13.787  1.0100 -0.7379 -0.5055
15572TIP3    H268208   4.682   4.216  13.801 -0.2178 -0.2813  0.2807
15573TIP3   OH268209   6.319   2.602   4.250  0.1675  0.1240  0.2209
15573TIP3    H168210   6.236   2.556   4.265  0.4223  0.1736  2.0092
15573TIP3    H268211   6.312   2.681   4.304  0.7829  0.9067 -0.8073
15574TIP3   OH268212   2.620   6.315  15.826 -0.3854  0.0003 -0.3803
15574TIP3    H168213   2.572   6.372  15.887 -0.8513  0.7462 -1.4075
15574TIP3    H268214   2.588   6.341  15.739  0.6649 -0.6524 -0.9828
15575TIP3   OH268215   1.630   0.565  13.305 -0.4742  0.1582  0.2270
15575TIP3    H168216   1.545   0.558  13.261  0.0568  0.0576 -0.8178
15575TIP3    H268217   1.613   0.617  13.383 -1.3546  0.7574 -0.3575
15576TIP3   OH268218   5.832   4.696  13.890 -0.0378  0.5571  0.0692
15576TIP3    H168219   5.842   4.637  13.815 -1.7832  0.6977 -0.3108
15576TIP3    H268220   5.905   4.758  13.882  1.0594 -0.7434 -0.2535
15577TIP3   OH268221   0.541   4.400  11.869 -0.6098  0.3916 -0.3016
15577TIP3    H168222   0.623   4.361  11.898 -1.0164 -0.9012 -0.8262
15577TIP3    H268223   0.481   4.326  11.857 -1.7151  1.2646 -0.3797
15578TIP3   OH268224   4.647   2.399   1.190  0.2286 -0.1810  0.1731
15578TIP3    H168225   4.571   2.342   1.184  0.1088  0.0448 -0.5985
15578TIP3    H268226   4.678   2.407   1.100  0.3696  0.7857  0.2964
15579TIP3   OH268227   4.141   3.249   0.018 -0.1851  0.1641  0.2113
15579TIP3    H168228   4.178   3.179   0.072  1.2364  0.2113 -0.6493
15579TIP3    H268229   4.152   3.328   0.070  0.8304  0.1549  0.0362
15580TIP3   OH268230   2.473   5.255  12.965 -0.4728 -0.0742 -0.0012
15580TIP3    H168231   2.460   5.254  12.870 -0.9787  2.6933 -0.0283
15580TIP3    H268232   2.407   5.316  12.998  1.0520  0.6413  1.8832
15581TIP3   OH268233   6.729   1.723  12.993  0.2859  0.3303  0.3959
15581TIP3    H168234   6.806   1.718  12.936  0.2407  1.0113  0.2757
15581TIP3    H268235   6.765   1.732  13.081  0.3766  2.5630  0.1897
15582TIP3   OH268236   4.242   5.117   1.737 -0.2207 -0.1166  0.4338
15582TIP3    H168237   4.191   5.074   1.669 -2.6346  1.1556  1.3094
15582TIP3    H268238   4.190   5.103   1.817  0.3463  1.9889  1.2135
15583TIP3   OH268239   1.715   3.929   4.660 -0.2834  0.2173 -0.3671
15583TIP3    H168240   1.716   3.839   4.627  0.2988  0.3215 -0.6485
15583TIP3    H268241   1.668   3.924   4.743  1.0947 -0.6389  0.4070
15584TIP3   OH268242   0.580   3.592  12.434 -0.1907 -0.2530 -0.1450
15584TIP3    H168243   0.525   3.534  12.382  0.5926 -0.1899 -1.0807
15584TIP3    H268244   0.567   3.564  12.524 -0.3239 -1.4595 -0.5233
15585TIP3   OH268245   1.715   4.772  16.595 -0.2983 -0.0744 -0.1356
15585TIP3    H168246   1.725   4.735  16.507 -0.1013 -0.2850 -0.0256
15585TIP3    H268247   1.798   4.817  16.611 -0.6914  0.7818 -0.4352
15586TIP3   OH268248   6.360   3.078   0.282  0.3951 -0.4193  1.0788
15586TIP3    H168249   6.320   2.991   0.286  0.9071 -0.6102  3.4850
15586TIP3    H268250   6.444   3.068   0.326  0.3390  1.3511  1.6789
15587TIP3   OH268251   5.806   5.511  12.781 -0.3664 -0.3881 -0.2643
15587TIP3    H168252   5.852   5.504  12.698  2.1743  0.3226  0.9660
15587TIP3    H268253   5.791   5.421  12.809  0.7128 -0.6582 -0.5265
15588TIP3   OH268254   2.443   3.431  13.634 -0.2520  0.0893  0.7185
15588TIP3    H168255   2.447   3.490  13.559 -2.1809  0.5057  0.8847
15588TIP3    H268256   2.420   3.346  13.596  2.6395 -0.6962  0.4649
15589TIP3   OH268257   2.777   3.611   4.570 -0.1168 -0.3989  0.4899
15589TIP3    H168258   2.845   3.544   4.572 -0.5140 -0.8089  0.2052
15589TIP3    H268259   2.721   3.591   4.644 -0.1256 -0.2616  0.5212
15590TIP3   OH268260   1.529   4.369   1.681 -0.1708  0.1440 -0.0829
15590TIP3    H168261   1.485   4.324   1.753  0.2198  0.2341  0.2174
15590TIP3    H268262   1.613   4.324   1.672 -0.0364  0.4108 -0.1892
15591TIP3   OH268263   5.733   3.839   4.968  0.3206 -0.3058 -0.4573
15591TIP3    H168264   5.660   3.890   4.932  1.4223  0.5726 -1.5003
15591TIP3    H268265   5.797   3.905   4.996  0.2648 -1.0219  1.5228
15592TIP3   OH268266   3.951   6.131   0.118  0.5091  0.4391 -0.4453
15592TIP3    H168267   3.988   6.171   0.040 -0.6755  0.0896 -1.2013
15592TIP3    H268268   3.889   6.196   0.151  1.1590  0.6757  0.3432
15593TIP3   OH268269   0.187   6.014   0.930  0.1844  0.3383 -0.0817
15593TIP3    H168270   0.095   6.007   0.954 -0.3246  1.4975 -1.5869
15593TIP3    H268271   0.223   6.076   0.993 -0.0193 -0.1845  0.5666
15594TIP3   OH268272   5.936   1.474   3.348  0.0247  0.0986  0.4219
15594TIP3    H168273   5.941   1.562   3.310 -1.7558  0.7676  1.5791
15594TIP3    H268274   6.023   1.437   3.336  0.0878  0.9651 -2.5337
15595TIP3   OH268275   3.234   1.417  13.811  0.1207  0.5626 -0.1604
15595TIP3    H168276   3.205   1.371  13.733  1.4209  3.1986 -2.3806
15595TIP3    H268277   3.155   1.457  13.846 -0.4134 -0.3037 -0.3537
15596TIP3   OH268278   5.727   5.307  16.962  0.5174  0.0405  0.0843
15596TIP3    H168279   5.650   5.325  17.016 -0.3173 -0.1939 -0.9971
15596TIP3    H268280   5.801   5.335  17.016 -0.2843 -0.1441  1.3230
15597TIP3   OH268281   2.371   6.316   5.075  0.0060 -0.3267  0.3920
15597TIP3    H168282   2.462   6.288   5.087  0.3117  0.8446  0.8548
15597TIP3    H268283   2.349   6.286   4.987  0.9098 -0.4457  0.1974
15598TIP3   OH268284   4.725   2.983   5.338 -0.1776 -0.3613 -0.5248
15598TIP3    H168285   4.644   3.025   5.368 -0.4084  1.5297 -3.4006
15598TIP3    H268286   4.716   2.891   5.364 -1.4841  0.5198  2.5369
15599TIP3   OH268287   5.768   4.566  14.577 -0.5316  0.0170  0.7911
15599TIP3    H168288   5.714   4.614  14.640  0.3651 -0.3564  1.8656
15599TIP3    H268289   5.849   4.616  14.571 -1.4680  1.4063 -1.9437
15600TIP3   OH268290   0.406   6.070  16.824 -0.2562  0.4020 -0.7931
15600TIP3    H168291   0.405   6.112  16.910 -2.1945  1.8852 -1.4541
15600TIP3    H268292   0.404   5.976  16.844 -1.4976  0.7174  0.8217
15601TIP3   OH268293   4.142   4.946   1.576  0.3029  0.0816 -0.3008
15601TIP3    H168294   4.159   4.853   1.592  0.6107  0.0578 -0.7582
15601TIP3    H268295   4.047   4.951   1.564 -0.0797  0.1971  2.1191
15602TIP3   OH268296   1.629   4.613  15.485 -0.0991 -0.0201  0.4706
15602TIP3    H168297   1.693   4.565  15.432 -1.2840  2.3883 -3.5757
15602TIP3    H268298   1.653   4.593  15.576  2.2696 -4.3428 -0.8436
15603TIP3   OH268299   2.613   4.918  11.223 -0.6029  0.3540  0.5053
15603TIP3    H168300   2.629   4.889  11.313 -2.0056 -0.7538  0.4403
15603TIP3    H268301   2.682   4.875  11.172  0.8824  1.8702  1.1454
15604TIP3   OH268302   3.846   2.134  11.878  0.0518 -0.3185 -0.1773
15604TIP3    H168303   3.768   2.114  11.930 -1.0911 -0.4921 -1.8849
15604TIP3    H268304   3.904   2.179  11.940 -1.7805  0.6796  0.9223
15605TIP3   OH268305   5.534   4.119   6.400 -0.3941 -0.1651  0.0152
15605TIP3    H168306   5.444   4.088   6.396 -0.5496 -0.2559  2.4915
15605TIP3    H268307   5.528   4.213   6.387 -1.1513  0.1229  2.0683
15606TIP3   OH268308   0.133   2.660  10.942 -0.7416  0.4849 -0.1880
15606TIP3    H168309   0.082   2.725  10.894  0.1447  1.1015 -0.3146
15606TIP3    H268310   0.162   2.705  11.021 -0.0194  0.2888 -0.3358
15607TIP3   OH268311   3.217   4.849  12.544 -0.0641 -0.0335 -0.5677
15607TIP3    H168312   3.288   4.887  12.595 -1.6000  0.8925  1.0095
15607TIP3    H268313   3.250   4.846  12.454  0.9113  3.2138 -0.4501
15608TIP3   OH268314   3.761   4.243  16.892 -0.1690  0.5362  0.5110
15608TIP3    H168315   3.689   4.295  16.857  1.4785  1.7975 -1.1588
15608TIP3    H268316   3.726   4.206  16.973 -3.2833 -0.3436 -1.0714
15609TIP3   OH268317   1.822   5.696   3.472 -0.2217  0.6759 -0.3006
15609TIP3    H168318   1.876   5.617   3.464 -0.8052  0.3408 -1.1042
15609TIP3    H268319   1.871   5.763   3.424  0.3085  0.8316  0.4407
15610TIP3   OH268320   5.290   6.518  14.128  0.5823 -0.7193  0.1859
15610TIP3    H168321   5.383   6.529  14.145  0.2173  0.3249  1.6841
15610TIP3    H268322   5.260   6.604  14.100 -0.2021 -0.6914  1.0841
15611TIP3   OH268323   2.005   4.777  14.666  0.2781  0.4101 -0.3059
15611TIP3    H168324   2.075   4.737  14.614  0.3448  1.4918 -1.0803
15611TIP3    H268325   1.963   4.839  14.606  0.2919  1.6225  0.9126
15612TIP3   OH268326   4.375   6.819  11.763 -0.0403  0.6398 -0.2110
15612TIP3    H168327   4.401   6.901  11.806 -0.7873  0.3849  0.7518
15612TIP3    H268328   4.440   6.755  11.792  0.7156  0.9280 -1.1930
15613TIP3   OH268329   2.497   0.982  16.776  0.4623 -0.5448  0.0106
15613TIP3    H168330   2.584   0.965  16.813  0.4391 -0.8696 -0.0770
15613TIP3    H268331   2.507   0.965  16.682  0.8049  1.3796 -0.3320
15614TIP3   OH268332   1.128   4.657   5.911 -0.4487  0.1571  0.6500
15614TIP3    H168333   1.187   4.723   5.949  0.4665 -1.5454  2.3499
15614TIP3    H268334   1.058   4.647   5.977  0.3981 -1.8247  1.3276
15615TIP3   OH268335   5.363   6.484   5.024  0.5655 -0.2753  0.7190
15615TIP3    H168336   5.277   6.444   5.014 -0.1202  1.2635  0.0543
15615TIP3    H268337   5.349   6.553   5.090  1.2255  0.1281  0.4453
15616TIP3   OH268338   5.120   3.635   2.251  0.4621 -0.3496  0.5573
15616TIP3    H168339   5.166   3.629   2.167  0.3578  1.5453  0.3253
15616TIP3    H268340   5.048   3.572   2.244 -0.5808  0.9830 -1.4675
15617TIP3   OH268341   5.227   0.745   2.652 -0.2510  0.1986 -0.1974
15617TIP3    H168342   5.264   0.713   2.570 -0.9453  0.5717 -0.6670
15617TIP3    H268343   5.191   0.668   2.695 -0.4760  0.1002 -0.5598
15618TIP3   OH268344   2.183   3.871   1.017 -0.2939  0.1534  0.2487
15618TIP3    H168345   2.142   3.807   0.957  4.3462 -0.6871 -2.4912
15618TIP3    H268346   2.179   3.954   0.969 -2.2401  1.0416  1.8094
15619TIP3   OH268347   6.403   4.354   1.538  0.6341  0.1932 -0.4263
15619TIP3    H168348   6.451   4.392   1.612  1.4897 -2.0968  0.2747
15619TIP3    H268349   6.436   4.265   1.531 -0.6253 -0.1713 -2.5586
15620TIP3   OH268350   5.222   2.488   5.372  0.1788 -0.1667  0.0824
15620TIP3    H168351   5.205   2.486   5.278 -1.6595  0.8004  0.3370
15620TIP3    H268352   5.317   2.476   5.380  0.2020 -1.7656 -1.7823
15621TIP3   OH268353   1.062   0.452  16.418 -0.2806 -0.3450  1.1031
15621TIP3    H168354   0.984   0.413  16.458 -0.9983 -0.5725 -0.4391
15621TIP3    H268355   1.050   0.438  16.324  2.2064 -1.4557  0.8784
15622TIP3   OH268356   0.869   0.762   3.719  0.5348  0.7043 -0.1393
15622TIP3    H168357   0.842   0.733   3.806  0.0008 -1.2246 -0.9117
15622TIP3    H268358   0.841   0.692   3.660  1.6574  1.5629 -1.7676
15623TIP3   OH268359   5.701   4.854   5.042  0.8946 -0.5901  0.0467
15623TIP3    H168360   5.622   4.800   5.031  1.1308 -0.9125 -0.0771
15623TIP3    H268361   5.759   4.801   5.097  0.8103 -0.1247  0.5917
15624TIP3   OH268362   2.786   5.395  12.775 -0.3837 -0.4175 -0.8314
15624TIP3    H168363   2.850   5.424  12.840 -0.8185 -1.7750  0.2403
15624TIP3    H268364   2.714   5.458  12.783  0.4696  0.6968 -1.5468
15625TIP3   OH268365   2.488   5.488   4.234 -0.0483 -0.5799  0.0776
15625TIP3    H168366   2.468   5.563   4.289 -1.7341 -2.2455  1.8754
15625TIP3    H268367   2.446   5.508   4.150 -0.0697  0.6537  0.3628
15626TIP3   OH268368   0.846   3.293  11.727  0.7046 -0.3411 -0.4431
15626TIP3    H168369   0.759   3.264  11.755  1.2992 -2.7479 -0.8618
15626TIP3    H268370   0.830   3.378  11.685 -1.1793  0.0666  0.9469
15627TIP3   OH268371   4.144   0.415   2.396  0.1064  0.3770 -1.1644
15627TIP3    H168372   4.213   0.481   2.401  0.4625 -0.0527  0.1902
15627TIP3    H268373   4.173   0.355   2.327  2.1938 -0.9389  0.7129
15628TIP3   OH268374   5.539   6.200  16.035  0.1800 -0.4113  0.7474
15628TIP3    H168375   5.510   6.283  15.996 -1.6092 -1.1195  0.4490
15628TIP3    H268376   5.471   6.137  16.010  2.9028 -2.7303 -1.5728
15629TIP3   OH268377   5.419   4.150   5.050  0.2168 -0.0455 -0.5288
15629TIP3    H168378   5.398   4.064   5.013  0.7361 -0.5941  0.4000
15629TIP3    H268379   5.417   4.209   4.976 -1.4050 -0.6282 -0.9853
15630TIP3   OH268380   6.231   4.219   0.067  0.5441  0.0155 -0.6886
15630TIP3    H168381   6.265   4.143   0.019 -1.0867 -1.4674  0.3357
15630TIP3    H268382   6.159   4.251   0.012 -2.7648 -2.9942  1.3941
15631TIP3   OH268383   2.578   4.673  13.485  0.6106  0.5479  0.4270
15631TIP3    H168384   2.664   4.640  13.459  0.9303  1.4107  0.3696
15631TIP3    H268385   2.522   4.595  13.485  1.2093  0.1015 -0.2919
15632TIP3   OH268386   1.541   4.995  11.134 -0.4712 -0.0105 -0.0549
15632TIP3    H168387   1.628   4.957  11.118 -0.2387  0.2696  0.5344
15632TIP3    H268388   1.538   5.072  11.078 -0.1838  0.2024  0.2208
15633TIP3   OH268389   0.307   5.229  15.210  0.5015 -0.4670  0.0693
15633TIP3    H168390   0.360   5.307  15.227  0.4085  0.0553 -1.8194
15633TIP3    H268391   0.218   5.253  15.236  0.2232  0.5643 -1.6995
15634TIP3   OH268392   5.976   1.028   5.475  0.0788 -0.0116 -0.4353
15634TIP3    H168393   6.046   1.047   5.538 -0.1458 -1.6719  0.3995
15634TIP3    H268394   5.996   1.082   5.399  0.9855  1.2463  0.6526
15635TIP3   OH268395   2.108   2.976   2.835  0.2314  0.4934  0.4021
15635TIP3    H168396   2.024   3.006   2.802  0.0848  0.2165  0.5179
15635TIP3    H268397   2.137   2.910   2.772  1.2877  1.9375 -0.7048
15636TIP3   OH268398   5.949   1.846   4.850  0.2790 -0.1226 -0.1370
15636TIP3    H168399   5.928   1.871   4.940 -0.0211 -0.3369 -0.1434
15636TIP3    H268400   6.036   1.807   4.856  0.3032 -0.0429  0.0442
15637TIP3   OH268401   6.311   3.227   5.006  0.6257 -0.7293  0.0777
15637TIP3    H168402   6.280   3.281   4.934 -0.1500 -0.7946  0.3557
15637TIP3    H268403   6.406   3.219   4.991  1.0984  2.1987  1.0141
15638TIP3   OH268404   0.346   5.760  15.456  0.2268 -0.0965  0.3607
15638TIP3    H168405   0.254   5.750  15.432  0.3156  0.0563 -0.0603
15638TIP3    H268406   0.378   5.831  15.401  0.8981 -0.9417 -0.3798
15639TIP3   OH268407   3.330   6.663   5.386  0.6032  0.6963 -0.6374
15639TIP3    H168408   3.293   6.675   5.473 -1.0491  0.5122 -1.2801
15639TIP3    H268409   3.287   6.729   5.331 -0.0319 -0.5800 -1.7524
15640TIP3   OH268410   6.707   2.016   5.987 -0.6231  0.1765  0.2343
15640TIP3    H168411   6.625   1.986   6.027 -0.7238  0.6507  0.3882
15640TIP3    H268412   6.733   2.091   6.040  0.9256 -1.0928  1.3894
15641TIP3   OH268413   4.168   5.128  16.523  0.2351 -0.1622  0.2225
15641TIP3    H168414   4.143   5.192  16.457 -1.0982 -0.0312  0.8351
15641TIP3    H268415   4.089   5.114  16.575  0.9280 -1.1576  1.0529
15642TIP3   OH268416   6.233   4.605  15.205 -0.6293 -0.1799  0.4720
15642TIP3    H168417   6.308   4.546  15.202 -0.9368 -0.5413 -0.5311
15642TIP3    H268418   6.158   4.548  15.223 -1.1137 -0.3273 -1.7497
15643TIP3   OH268419   0.659   1.862   5.252  0.1577 -0.8647  0.2822
15643TIP3    H168420   0.714   1.805   5.306 -0.7940 -2.8956 -0.7901
15643TIP3    H268421   0.636   1.809   5.176 -3.2712 -0.1857  0.6732
15644TIP3   OH268422   1.093   3.475   5.351 -0.0658 -0.3276  0.5062
15644TIP3    H168423   1.138   3.558   5.365  0.3418 -0.3740 -0.4383
15644TIP3    H268424   1.000   3.497   5.348 -0.0692 -0.1129  1.6566
15645TIP3   OH268425   4.489   4.985   0.801  0.0870  1.0107  0.4288
15645TIP3    H168426   4.519   4.929   0.873 -0.9596  1.7624  1.4967
15645TIP3    H268427   4.425   4.932   0.754  0.2965  0.7442  0.4430
15646TIP3   OH268428   1.122   1.794  13.140  0.3193 -0.3375  0.2489
15646TIP3    H168429   1.213   1.776  13.115 -0.0062 -2.6840  0.5452
15646TIP3    H268430   1.104   1.732  13.212 -1.5825 -0.0939  0.0296
15647TIP3   OH268431   2.279   4.474  15.858  0.2778 -0.4647  0.6483
15647TIP3    H168432   2.278   4.378  15.869  1.3839 -0.6966 -0.9370
15647TIP3    H268433   2.367   4.499  15.886  0.6918 -0.1975 -0.8045
15648TIP3   OH268434   4.965   5.197   0.241  0.1962 -0.1601  0.9365
15648TIP3    H168435   4.935   5.255   0.310  1.3566 -0.2319  1.5377
15648TIP3    H268436   5.001   5.121   0.288 -2.0234 -1.7942  0.1678
15649TIP3   OH268437   1.411   4.599   3.026  0.1244  0.4418 -0.4919
15649TIP3    H168438   1.434   4.558   2.943  1.0333 -2.2512  0.9522
15649TIP3    H268439   1.494   4.605   3.074 -0.5595  0.7346  0.6923
15650TIP3   OH268440   2.197   1.124  16.051 -0.4167  0.4940 -0.1896
15650TIP3    H168441   2.249   1.043  16.049 -0.3288  0.4654  1.6363
15650TIP3    H268442   2.175   1.140  15.959  0.3662 -1.0775 -0.6968
15651TIP3   OH268443   0.561   3.018   2.892  0.0216  0.3492 -0.1556
15651TIP3    H168444   0.556   3.014   2.796  0.3714  2.3409 -0.2828
15651TIP3    H268445   0.529   3.105   2.915  2.7908  1.1289  1.2747
15652TIP3   OH268446   1.929   5.279   0.074  0.2235 -0.3884  0.2340
15652TIP3    H168447   1.851   5.273   0.019  1.3014 -0.1558 -1.3687
15652TIP3    H268448   1.895   5.310   0.158 -1.3661  0.0562 -0.5176
15653TIP3   OH268449   1.927   3.492   5.266  0.3212  0.0578  0.4482
15653TIP3    H168450   2.005   3.523   5.312  0.1946  0.4232  0.4217
15653TIP3    H268451   1.926   3.541   5.184  1.0463 -1.2628 -0.3715
15654TIP3   OH268452   5.645   1.220  13.902  0.3984 -0.0078  0.3711
15654TIP3    H168453   5.652   1.303  13.949  0.8872 -0.1963  0.6345
15654TIP3    H268454   5.576   1.235  13.838  0.0410  0.3951  0.8443
15655TIP3   OH268455   3.374   6.359  15.963  0.0089  0.2284 -0.3450
15655TIP3    H168456   3.331   6.423  16.020 -0.4267 -1.3550  1.1882
15655TIP3    H268457   3.342   6.381  15.875 -2.1806  0.5309  0.4533
15656TIP3   OH268458   3.865   3.770   6.567  0.8350 -0.2875  0.2776
15656TIP3    H168459   3.865   3.764   6.663 -1.2117 -2.0963  0.2335
15656TIP3    H268460   3.818   3.692   6.538  1.5659  0.1272 -2.2359
15657TIP3   OH268461   2.510   4.185  16.382 -0.6300 -0.2448 -0.5831
15657TIP3    H168462   2.519   4.163  16.290 -0.1395  0.9393 -0.8398
15657TIP3    H268463   2.420   4.214  16.392 -0.6173 -0.1535 -0.7381
15658TIP3   OH268464   3.726   5.513  11.613  0.3685 -0.2127  0.4524
15658TIP3    H168465   3.634   5.488  11.599 -0.1859  0.9553  1.6821
15658TIP3    H268466   3.721   5.600  11.653  1.8657 -1.1547  2.9709
15659TIP3   OH268467   6.343   5.386   2.925 -0.4026  0.0457  0.3633
15659TIP3    H168468   6.429   5.400   2.884 -0.0515  0.9500  1.3339
15659TIP3    H268469   6.318   5.298   2.899  0.0171  0.3969 -1.3542
15660TIP3   OH268470   0.812   0.194   1.938  0.2941  0.0955  0.4609
15660TIP3    H168471   0.888   0.241   1.973  1.5965 -1.5268 -0.0907
15660TIP3    H268472   0.832   0.102   1.951 -2.0405 -0.3788  1.1730
15661TIP3   OH268473   5.590   3.960  14.670  0.6629  0.2992 -0.2599
15661TIP3    H168474   5.609   3.927  14.758  0.8178  0.7184 -0.1320
15661TIP3    H268475   5.656   4.027  14.654 -0.3868  1.4523  0.0052
15662TIP3   OH268476   0.795   1.107  14.306  0.0032 -0.3809 -0.1356
15662TIP3    H168477   0.728   1.098  14.238  0.4934 -1.0239 -0.5459
15662TIP3    H268478   0.875   1.077  14.265  0.4853  0.0650  0.4583
15663TIP3   OH268479   2.800   1.157  13.859  0.2517  0.0127  0.1792
15663TIP3    H168480   2.880   1.107  13.878 -0.8923 -1.6377  0.8945
15663TIP3    H268481   2.831   1.244  13.835  2.3225 -0.8647 -0.5481
15664TIP3   OH268482   6.323   3.958  12.778 -0.0015 -0.6830  0.5901
15664TIP3    H168483   6.345   3.881  12.725  2.8255 -0.2504  0.9834
15664TIP3    H268484   6.356   3.937  12.865 -0.9639  0.2293  1.1864
15665TIP3   OH268485   6.053   6.610   4.237  0.6249 -0.2561  0.0250
15665TIP3    H168486   6.106   6.641   4.163 -0.4413  0.7469 -0.3454
15665TIP3    H268487   6.115   6.604   4.310  1.2268  1.0795 -0.3485
15666TIP3   OH268488   3.059   4.632  14.213  0.2093 -0.0869 -0.3079
15666TIP3    H168489   3.041   4.598  14.301  0.9970  0.7254  0.1755
15666TIP3    H268490   3.044   4.557  14.156  0.0431 -0.7305  0.5540
15667TIP3   OH268491   1.852   2.619   3.467 -0.1616 -0.5004  0.3441
15667TIP3    H168492   1.924   2.557   3.478 -1.7304 -2.2447  1.1661
15667TIP3    H268493   1.777   2.566   3.441 -1.5270  1.0804  0.8612
15668TIP3   OH268494   0.493   4.946   5.240 -0.4714 -0.3386 -0.4884
15668TIP3    H168495   0.414   4.999   5.251 -0.8156 -0.7648 -0.8714
15668TIP3    H268496   0.461   4.858   5.222  0.1055 -0.9713  1.4469
15669TIP3   OH268497   0.502   3.314   3.926  0.0559  0.3563  0.0362
15669TIP3    H168498   0.529   3.360   3.847  0.5015  1.6944  0.9405
15669TIP3    H268499   0.554   3.233   3.926 -0.0710  0.2691 -1.1040
15670TIP3   OH268500   0.249   0.800  10.894  0.8933  0.7563 -0.3105
15670TIP3    H168501   0.216   0.711  10.880  0.1562  1.1080 -0.8650
15670TIP3    H268502   0.214   0.825  10.979  0.0509  0.9749 -0.7146
15671TIP3   OH268503   1.323   0.954  12.782 -0.2903  0.3639 -0.0242
15671TIP3    H168504   1.388   0.977  12.716 -1.8006  0.0255 -1.7194
15671TIP3    H268505   1.368   0.894  12.840  0.8086 -0.1627 -1.3646
15672TIP3   OH268506   1.023   3.834   4.155 -0.3997 -0.8411  0.1707
15672TIP3    H168507   1.041   3.892   4.229  0.8921  2.5740 -2.5654
15672TIP3    H268508   1.094   3.771   4.156 -0.7804 -1.2909  2.1628
15673TIP3   OH268509   5.296   2.021  12.440  0.2979  0.5182  0.1112
15673TIP3    H168510   5.337   2.059  12.517  0.1835  1.3764 -0.2483
15673TIP3    H268511   5.208   1.999  12.468  1.4184 -3.0120  1.4393
15674TIP3   OH268512   1.183   5.394  15.881  0.0238  0.6270  0.0493
15674TIP3    H168513   1.161   5.472  15.829 -1.1348 -0.0440 -0.5065
15674TIP3    H268514   1.229   5.337  15.819 -1.5046 -0.2445 -0.3423
15675TIP3   OH268515   0.480   5.887   0.716  0.5235  0.7356  0.3939
15675TIP3    H168516   0.442   5.800   0.723 -0.6187  1.0784 -0.9015
15675TIP3    H268517   0.538   5.895   0.792 -1.1899 -0.2394  1.8853
15676TIP3   OH268518   4.551   4.994  14.777 -0.4351 -0.2219  0.4517
15676TIP3    H168519   4.532   4.993  14.870 -0.1708  1.4270  0.5440
15676TIP3    H268520   4.465   5.002  14.735 -0.4602  0.3581  0.6105
15677TIP3   OH268521   2.633   5.226   0.043 -0.2396  0.3937 -0.7993
15677TIP3    H168522   2.619   5.181  -0.041 -1.1301  0.1121 -0.5197
15677TIP3    H268523   2.724   5.254   0.041 -0.4389  1.0142 -2.1653
15678TIP3   OH268524   0.015   0.999   1.342  0.1004 -0.3377 -0.0149
15678TIP3    H168525  -0.052   1.043   1.396 -1.8122 -0.7889 -1.8976
15678TIP3    H268526   0.091   0.994   1.400 -2.0109 -1.4741  2.9781
15679TIP3   OH268527   4.370   2.570  16.662 -0.1526  0.1111  0.0657
15679TIP3    H168528   4.281   2.591  16.691 -1.3658 -1.3277 -2.3182
15679TIP3    H268529   4.360   2.551  16.569  2.6438 -0.3727 -0.1938
15680TIP3   OH268530   2.700   4.706  15.150 -0.3661 -0.4565 -0.1965
15680TIP3    H168531   2.750   4.773  15.198  0.1524 -1.2802  0.4421
15680TIP3    H268532   2.697   4.631  15.209 -0.7700 -1.0717 -0.9722
15681TIP3   OH268533   4.324   2.205  15.886  0.3444  0.5620 -0.1101
15681TIP3    H168534   4.327   2.300  15.878  0.4097  0.4755 -1.2090
15681TIP3    H268535   4.402   2.174  15.839 -0.0512 -0.0728 -0.3577
15682TIP3   OH268536   1.402   3.508  12.390 -0.4075 -0.5707  0.1097
15682TIP3    H168537   1.409   3.504  12.294  1.4449 -1.0804  0.2330
15682TIP3    H268538   1.469   3.572  12.416  0.5315 -1.9377  1.1828
15683TIP3   OH268539   4.531   4.842  16.878 -0.3363 -0.0390 -0.0436
15683TIP3    H168540   4.592   4.899  16.925 -1.3642  1.8799 -0.9481
15683TIP3    H268541   4.579   4.816  16.799  0.1103 -0.3743  0.3335
15684TIP3   OH268542   5.784   0.551  12.088  0.2960  0.2542 -0.1863
15684TIP3    H168543   5.777   0.492  12.012 -1.1227 -1.9998  1.5550
15684TIP3    H268544   5.757   0.636  12.054 -1.5893 -0.9422 -1.9929
15685TIP3   OH268545   1.898   5.557   4.026 -0.2658  0.5312 -0.3743
15685TIP3    H168546   1.843   5.605   3.963  0.9929 -1.2695 -3.0031
15685TIP3    H268547   1.837   5.498   4.071 -0.9667  0.7831 -0.9712
15686TIP3   OH268548   6.792   3.914   2.816  0.2693 -0.0741 -0.1464
15686TIP3    H168549   6.720   3.885   2.760 -1.6567  1.9700  1.1226
15686TIP3    H268550   6.844   3.971   2.761 -0.1204 -0.1165 -0.5649
15687TIP3   OH268551   5.909   1.820  11.146 -0.0739 -0.4490  0.2610
15687TIP3    H168552   5.995   1.834  11.185  1.2812  0.1400 -2.7222
15687TIP3    H268553   5.876   1.908  11.127 -1.2905 -0.6762  1.1893
15688TIP3   OH268554   0.258   2.648  13.636  0.4250  0.1881 -0.2289
15688TIP3    H168555   0.213   2.584  13.691  0.9343  0.2923  0.3195
15688TIP3    H268556   0.216   2.731  13.657 -1.5183 -0.1640 -2.2900
15689TIP3   OH268557   6.843   0.359  12.110  0.1358  0.8020  0.0343
15689TIP3    H168558   6.756   0.327  12.133  1.1505 -2.3887 -0.0507
15689TIP3    H268559   6.832   0.400  12.024 -1.2077  0.0736 -0.1699
15690TIP3   OH268560   0.294   0.364  17.104 -0.3626  0.2688 -0.0267
15690TIP3    H168561   0.201   0.348  17.122 -0.4848  0.9433 -0.0397
15690TIP3    H268562   0.339   0.320  17.177 -0.7186  0.4236  0.2951
15691TIP3   OH268563   2.868   0.089  13.743  0.0503  0.3004 -0.5892
15691TIP3    H168564   2.853   0.135  13.826  1.2158 -0.9500  0.3514
15691TIP3    H268565   2.840   0.151  13.676 -2.7764  0.6545  0.7622
15692TIP3   OH268566   1.916   5.899   1.086  0.3402  0.0869 -0.5411
15692TIP3    H168567   1.983   5.862   1.143  0.1122  1.1183  0.4540
15692TIP3    H268568   1.895   5.983   1.127 -0.5865  0.3862 -1.5912
15693TIP3   OH268569   1.424   0.631  12.476 -0.0574  0.1620  0.1143
15693TIP3    H168570   1.379   0.599  12.554 -1.5331  0.3996 -0.6017
15693TIP3    H268571   1.357   0.682  12.429  0.2306 -1.4270 -2.1866
15694TIP3   OH268572   4.364   0.376  13.314 -0.2294 -0.0724  0.4369
15694TIP3    H168573   4.395   0.341  13.230  0.2300 -0.5201  0.7835
15694TIP3    H268574   4.352   0.298  13.369 -1.2223  0.1612  0.5635
15695TIP3   OH268575   2.027   5.103  11.549  0.0685 -0.2430 -0.5841
15695TIP3    H168576   2.068   5.188  11.533  0.2938  0.1227  1.6349
15695TIP3    H268577   2.100   5.045  11.574 -0.2970 -0.5947 -0.3094
15696TIP3   OH268578   3.424   0.583  16.212 -0.0030 -0.3848  0.1962
15696TIP3    H168579   3.341   0.536  16.228  0.2508 -0.6076  0.8951
15696TIP3    H268580   3.397   0.665  16.172 -0.5130 -0.7680 -0.2742
15697TIP3   OH268581   3.232   5.478  15.317 -0.0420 -0.0573 -0.2910
15697TIP3    H168582   3.147   5.435  15.314 -0.8250  1.2499  1.3525
15697TIP3    H268583   3.230   5.541  15.245 -0.3787 -0.2082 -0.4135
15698TIP3   OH268584   4.575   2.986  17.034  0.0797 -0.1610 -0.3166
15698TIP3    H168585   4.653   2.946  16.994  0.3743  0.5412 -0.4568
15698TIP3    H268586   4.514   2.995  16.961 -0.6533 -1.9093  0.0331
15699TIP3   OH268587   2.429   5.524  15.559  0.1400 -0.2899  0.0434
15699TIP3    H168588   2.340   5.535  15.593  0.1727 -0.3641  0.1533
15699TIP3    H268589   2.484   5.515  15.637  0.1657 -0.8182 -0.0286
15700TIP3   OH268590   3.435   1.088  16.613 -0.1770  0.1658 -0.6103
15700TIP3    H168591   3.508   1.134  16.655 -1.5449  1.1992  0.7116
15700TIP3    H268592   3.430   1.127  16.525  1.0531 -0.1631 -0.8498
15701TIP3   OH268593   4.034   6.478   1.759  0.3227  0.0450 -0.0917
15701TIP3    H168594   4.110   6.532   1.737 -0.4849  0.7892 -1.1715
15701TIP3    H268595   4.065   6.388   1.750  0.9746  0.3371 -0.9433
15702TIP3   OH268596   3.888   0.489  12.399  0.8747 -0.4892  0.2644
15702TIP3    H168597   3.847   0.573  12.376  0.2504 -1.2501 -1.6361
15702TIP3    H268598   3.827   0.449  12.461  1.0146  0.2989  0.9368
15703TIP3   OH268599   5.785   6.583   0.679  0.1611 -0.1907 -0.3360
15703TIP3    H168600   5.721   6.514   0.660 -1.2448  0.2396  2.3598
15703TIP3    H268601   5.841   6.545   0.747 -1.3161  1.5388  2.0160
15704TIP3   OH268602   3.828   5.079   4.146 -0.3720  0.2714  0.1294
15704TIP3    H168603   3.772   5.023   4.092 -0.0347 -0.0867  0.1472
15704TIP3    H268604   3.804   5.057   4.236 -2.0496  1.9793  0.1648
15705TIP3   OH268605   5.899   1.940   0.341  0.2269  0.3278 -0.5112
15705TIP3    H168606   5.856   1.928   0.425  0.5687  1.5760 -0.1413
15705TIP3    H268607   5.830   1.970   0.282 -0.0743 -0.8184 -0.7751
15706TIP3   OH268608   0.449   1.456   1.068  0.0683  0.1933 -0.5380
15706TIP3    H168609   0.459   1.391   0.999 -0.7458  0.3739 -0.8265
15706TIP3    H268610   0.384   1.517   1.035 -1.2263 -0.3702  0.8583
15707TIP3   OH268611   1.744   3.385   1.100 -0.4454 -0.4022 -0.1813
15707TIP3    H168612   1.694   3.312   1.136  0.8626 -0.1447  2.3818
15707TIP3    H268613   1.834   3.366   1.124  0.0497  1.5553 -0.3617
15708TIP3   OH268614   0.560   2.430   0.871  0.4186  0.2142  0.3559
15708TIP3    H168615   0.470   2.436   0.840 -0.1023  2.0287  2.0040
15708TIP3    H268616   0.575   2.336   0.882 -0.8070 -0.2012 -1.1377
15709TIP3   OH268617   2.031   1.769   3.950 -0.5286  0.6121 -0.2829
15709TIP3    H168618   1.998   1.736   4.034 -0.2671 -0.5834 -0.6240
15709TIP3    H268619   2.112   1.815   3.973 -0.4508  0.2803  0.1219
15710TIP3   OH268620   2.170   0.325  17.058 -0.1334  0.2239  0.1648
15710TIP3    H168621   2.137   0.413  17.039 -1.7033 -0.5559 -0.9583
15710TIP3    H268622   2.102   0.266  17.026  0.7639 -1.4147  1.1152
15711TIP3   OH268623   3.596   3.866  13.526 -0.0979  0.3046  1.0306
15711TIP3    H168624   3.545   3.916  13.462 -1.1714 -1.8476  0.0810
15711TIP3    H268625   3.671   3.833  13.476 -0.5975 -0.8424  0.9837
15712TIP3   OH268626   0.213   5.907  12.776 -0.5863 -0.4512 -0.2430
15712TIP3    H168627   0.159   5.907  12.696 -1.6742 -1.8661  0.4461
15712TIP3    H268628   0.175   5.837  12.830 -1.0840  1.6899  2.3362
15713TIP3   OH268629   5.509   4.562   5.268 -0.6354  0.5578 -0.6895
15713TIP3    H168630   5.476   4.477   5.296 -0.5557  0.2183 -1.5775
15713TIP3    H268631   5.598   4.566   5.303  0.3900 -0.9389 -2.8854
15714TIP3   OH268632   1.176   6.171  11.836  0.3401 -0.4236  0.4388
15714TIP3    H168633   1.146   6.129  11.917 -0.1779 -3.2280 -1.0748
15714TIP3    H268634   1.271   6.166  11.840  0.3011 -2.1009  0.2128
15715TIP3   OH268635   0.869   5.086  15.850  0.6613  0.4419  0.2755
15715TIP3    H168636   0.876   5.160  15.790  2.5853  0.4125  0.4140
15715TIP3    H268637   0.786   5.044  15.826 -0.0080  2.0682 -0.4337
15716TIP3   OH268638   6.217   3.648  16.725 -0.4757  0.5078  0.2617
15716TIP3    H168639   6.272   3.710  16.677 -1.4192  0.1886 -1.3135
15716TIP3    H268640   6.159   3.703  16.779  0.2186  0.8958  0.6195
15717TIP3   OH268641   0.264   0.121  11.230  0.2205 -0.2320 -0.0893
15717TIP3    H168642   0.225   0.149  11.148 -1.8973  0.5257  1.0946
15717TIP3    H268643   0.251   0.027  11.233 -3.0839  0.1342  0.9091
15718TIP3   OH268644   0.630   2.789  12.204 -0.0631  0.1259 -0.0296
15718TIP3    H168645   0.542   2.820  12.186 -1.6765 -3.3547  1.0428
15718TIP3    H268646   0.650   2.730  12.131  1.1334  0.3714  0.0771
15719TIP3   OH268647   3.394   3.762   4.550 -0.0611 -0.1913 -0.2500
15719TIP3    H168648   3.307   3.729   4.528 -1.3004  2.8253 -0.3474
15719TIP3    H268649   3.452   3.722   4.485 -1.7730 -0.3736 -1.7425
15720TIP3   OH268650   0.307   4.590  15.494  0.3967 -0.6502 -0.0655
15720TIP3    H168651   0.345   4.528  15.557 -0.0935 -0.8585  0.0269
15720TIP3    H268652   0.366   4.586  15.419  2.1049  1.0145  1.0927
15721TIP3   OH268653   0.573   0.745   4.147  0.4713  0.3416  0.4594
15721TIP3    H168654   0.602   0.821   4.098 -0.2009 -0.0476 -0.5754
15721TIP3    H268655   0.597   0.764   4.238 -0.6901  2.2987  0.4226
15722TIP3   OH268656   1.555   5.794   6.111  0.2521 -0.0149 -0.0872
15722TIP3    H168657   1.620   5.811   6.179  1.1042 -0.5534 -0.7443
15722TIP3    H268658   1.600   5.735   6.049 -1.0709 -0.9413 -0.2134
15723TIP3   OH268659   3.365   4.538  16.833 -0.3414  0.7741  0.3002
15723TIP3    H168660   3.379   4.508  16.923  0.9652 -0.2000 -0.1996
15723TIP3    H268661   3.434   4.602  16.818 -0.0731  0.3564 -0.2647
15724TIP3   OH268662   4.781   2.441  15.112 -0.3715 -0.6121 -0.0753
15724TIP3    H168663   4.746   2.354  15.089 -1.0351 -0.3270 -0.1898
15724TIP3    H268664   4.719   2.502  15.072 -0.3588 -0.0898  0.6820
15725TIP3   OH268665   6.087   0.743   4.667 -0.2519  0.2549  0.2671
15725TIP3    H168666   6.098   0.746   4.572 -0.2803 -1.1167  0.1969
15725TIP3    H268667   6.049   0.828   4.689 -0.0856  0.6610 -0.9213
15726TIP3   OH268668   6.435   2.027   0.916  0.4970  0.0749  0.7634
15726TIP3    H168669   6.514   2.065   0.877  0.4240 -2.0414 -1.6879
15726TIP3    H268670   6.371   2.099   0.916  1.2398  0.7897 -0.9065
15727TIP3   OH268671   5.018   0.186  12.143 -0.2948  0.1876  0.4193
15727TIP3    H168672   4.987   0.272  12.113 -0.7751  0.2788  1.1545
15727TIP3    H268673   5.064   0.204  12.225  0.2656 -0.1650  0.1878
15728TIP3   OH268674   4.899   5.174  11.971  0.4498  0.1732  0.5609
15728TIP3    H168675   4.940   5.115  12.034  2.8819 -1.2455 -2.1272
15728TIP3    H268676   4.849   5.117  11.913  0.8981  1.0240 -0.7003
15729TIP3   OH268677   4.756   3.012  15.107  0.1423 -0.0141 -0.5570
15729TIP3    H168678   4.839   2.989  15.148  0.6328 -0.6927 -1.8498
15729TIP3    H268679   4.746   3.106  15.123  2.4531  0.6774 -2.5082
15730TIP3   OH268680   5.823   0.927   5.264  0.0676 -0.0768  0.4567
15730TIP3    H168681   5.864   0.952   5.347  1.3502  0.6498 -0.3638
15730TIP3    H268682   5.752   0.990   5.252  1.4667  1.4472 -0.1876
15731TIP3   OH268683   6.556   2.512   0.043 -0.1611 -0.2114  0.1403
15731TIP3    H168684   6.571   2.453   0.117 -0.4001 -2.3988 -1.4695
15731TIP3    H268685   6.530   2.455  -0.029 -0.1141  1.8489 -1.6211
15732TIP3   OH268686   4.077   0.204  12.687 -0.0575  0.0904 -0.4056
15732TIP3    H168687   4.007   0.229  12.748 -0.4890  0.8134 -1.1711
15732TIP3    H268688   4.157   0.208  12.738 -0.1864  2.4291 -0.2960
15733TIP3   OH268689   5.896   3.401   5.176  0.9583  0.1839 -0.2784
15733TIP3    H168690   5.806   3.376   5.155  0.2120  0.8375  1.8178
15733TIP3    H268691   5.946   3.320   5.168 -0.4066 -0.8872  1.2995
15734TIP3   OH268692   2.161   3.352  11.236  0.2575  0.7054 -0.3302
15734TIP3    H168693   2.110   3.384  11.161  0.2433  0.3691 -0.4666
15734TIP3    H268694   2.247   3.331  11.200 -0.4161 -1.6105 -0.7491
15735TIP3   OH268695   5.793   5.345   0.988 -0.5159 -0.0867  0.0946
15735TIP3    H168696   5.715   5.394   0.963  0.2357  0.5302 -1.1297
15735TIP3    H268697   5.813   5.376   1.076  0.1932  2.2026 -0.7941
15736TIP3   OH268698   1.273   1.510   5.406  0.3177 -0.2288  0.0133
15736TIP3    H168699   1.272   1.603   5.381  0.3573 -0.5281 -1.1992
15736TIP3    H268700   1.254   1.464   5.324 -2.2206 -1.2198  1.0748
15737TIP3   OH268701   6.850   5.002   0.049 -0.0802 -0.3753 -0.0942
15737TIP3    H168702   6.860   4.925  -0.008 -1.0617 -0.5831 -0.0074
15737TIP3    H268703   6.816   5.070  -0.009 -1.9268 -0.8402  0.3936
15738TIP3   OH268704   6.171   1.469  14.874  0.5472  0.1437  0.0394
15738TIP3    H168705   6.206   1.398  14.820  1.0995  0.7042 -0.3619
15738TIP3    H268706   6.207   1.548  14.835  1.8945  0.5247  1.8676
15739TIP3   OH268707   0.893   0.385  16.009 -0.5950 -0.3590  0.2250
15739TIP3    H168708   0.978   0.366  16.050 -0.8301 -1.1185  0.3730
15739TIP3    H268709   0.874   0.475  16.036 -0.0490 -0.3388  0.5700
15740TIP3   OH268710   2.079   2.300  12.858 -0.3940 -0.0446  0.3393
15740TIP3    H168711   2.171   2.320  12.842  0.1082 -1.2057  1.6012
15740TIP3    H268712   2.048   2.261  12.776  0.4113 -0.2783  0.1462
15741TIP3   OH268713   2.316   3.953  11.054  0.0808 -0.4901  0.0726
15741TIP3    H168714   2.403   3.989  11.039  0.9476 -2.5807 -0.2856
15741TIP3    H268715   2.286   3.994  11.135  0.0952  2.4841 -1.3044
15742TIP3   OH268716   4.648   3.940   4.115 -0.3901 -0.1099  0.5786
15742TIP3    H168717   4.718   4.005   4.115 -1.0141  0.5885  1.1610
15742TIP3    H268718   4.613   3.943   4.026 -1.1904  1.2549  0.8978
15743TIP3   OH268719   1.750   1.950  11.752  0.0424  0.1858  0.4979
15743TIP3    H168720   1.693   2.023  11.727 -0.0241 -0.3812 -1.1267
15743TIP3    H268721   1.700   1.871  11.730  0.2613 -0.3661  1.8802
15744TIP3   OH268722   1.599   0.712   1.043  0.1719 -0.0793  0.0496
15744TIP3    H168723   1.522   0.763   1.022 -0.3300 -1.1840 -0.9535
15744TIP3    H268724   1.625   0.673   0.959  0.1940 -1.8790  0.8484
15745TIP3   OH268725   2.553   2.974   4.270  0.0779 -0.8052 -0.0848
15745TIP3    H168726   2.644   2.992   4.247  0.0584  1.1517  1.1608
15745TIP3    H268727   2.503   3.009   4.196  0.1097  3.8616  1.7578
15746TIP3   OH268728   5.555   1.617  12.140  0.2909  0.0014 -0.5756
15746TIP3    H168729   5.638   1.589  12.177 -1.0095 -1.0158  1.8468
15746TIP3    H268730   5.502   1.537  12.137 -0.6899  0.6567 -1.8556
15747TIP3   OH268731   4.600   4.310  14.478  0.0188 -0.3924 -0.0712
15747TIP3    H168732   4.565   4.385  14.431  0.4694  0.0435  0.2816
15747TIP3    H268733   4.524   4.272  14.523 -0.1797 -0.0490 -0.1178
15748TIP3   OH268734   2.465   3.792  11.269 -0.4977  0.1383  0.4345
15748TIP3    H168735   2.397   3.849  11.304  1.1323  2.2342  0.3994
15748TIP3    H268736   2.516   3.764  11.345 -1.1658 -1.2107  0.4315
15749TIP3   OH268737   2.848   3.152  12.417  0.5646  0.0634  0.2264
15749TIP3    H168738   2.855   3.170  12.511  2.2675 -0.4782  0.2392
15749TIP3    H268739   2.936   3.124  12.392 -0.6328 -3.2291 -0.8260
15750TIP3   OH268740   5.052   2.657  13.717 -0.0038  0.2631 -0.4744
15750TIP3    H168741   4.974   2.602  13.708 -0.3589  0.9754 -2.4363
15750TIP3    H268742   5.035   2.711  13.794 -0.8710 -0.4754 -0.1292
15751TIP3   OH268743   2.407   2.234   3.283 -0.3160 -0.7065 -0.0759
15751TIP3    H168744   2.418   2.277   3.368  0.1977 -1.4988  0.2693
15751TIP3    H268745   2.318   2.256   3.256  0.0731  0.9261 -0.1179
15752TIP3   OH268746   5.038   1.690  11.914  0.6635 -0.4354 -0.2415
15752TIP3    H168747   5.004   1.711  11.827  2.9408 -1.5013 -1.4639
15752TIP3    H268748   5.128   1.723  11.913  0.7752 -0.5809  1.6972
15753TIP3   OH268749   6.539   4.621  15.624  0.0962 -0.2472  0.2549
15753TIP3    H168750   6.595   4.564  15.571  1.0031  0.8343 -0.0012
15753TIP3    H268751   6.546   4.707  15.582  1.1377  0.7492  2.2825
15754TIP3   OH268752   2.814   5.827  15.027  0.4906 -0.5415  0.1346
15754TIP3    H168753   2.867   5.781  15.093 -1.8848 -1.3989  1.6087
15754TIP3    H268754   2.776   5.757  14.974  0.4074 -0.0047 -0.5209
15755TIP3   OH268755   3.286   1.643   1.529  0.0152  0.1636 -0.0635
15755TIP3    H168756   3.304   1.640   1.435 -0.2625  0.5971 -0.1311
15755TIP3    H268757   3.371   1.655   1.570 -0.0495  1.8593 -0.3609
15756TIP3   OH268758   4.419   3.694  15.648  0.2077 -0.3096  0.6094
15756TIP3    H168759   4.332   3.733  15.645  0.3908  0.1145  0.7472
15756TIP3    H268760   4.451   3.712  15.736  0.6490  0.0138  0.3865
15757TIP3   OH268761   0.623   5.240   4.598  0.1038  0.3509 -0.5856
15757TIP3    H168762   0.598   5.304   4.531 -0.2335 -0.0460 -0.8411
15757TIP3    H268763   0.550   5.179   4.601 -0.4008  0.9848  0.9307
15758TIP3   OH268764   1.508   3.395  14.778 -0.0961 -0.7284 -0.4611
15758TIP3    H168765   1.467   3.466  14.728  0.9862  1.2993  1.3498
15758TIP3    H268766   1.589   3.434  14.812 -0.1064 -2.4277  1.6903
15759TIP3   OH268767   0.881   5.485  14.177 -0.4930  0.1830 -0.1754
15759TIP3    H168768   0.873   5.419  14.246  0.6547  1.2660  1.0371
15759TIP3    H268769   0.799   5.535  14.183 -0.0378  0.8273  1.0317
15760TIP3   OH268770   5.734   0.083   1.005  0.2481 -0.0367 -0.2885
15760TIP3    H168771   5.817   0.037   1.010 -0.2126 -0.7729  1.2004
15760TIP3    H268772   5.714   0.107   1.096 -0.1922  1.9404 -0.8482
15761TIP3   OH268773   0.197   0.405   0.420 -0.3010  0.6631  0.3072
15761TIP3    H168774   0.168   0.390   0.330  2.0259  1.8512 -0.7287
15761TIP3    H268775   0.135   0.357   0.474 -2.5418  0.9666 -1.8425
15762TIP3   OH268776   2.964   0.946  10.779 -0.5514 -0.1498 -0.2037
15762TIP3    H168777   3.024   1.010  10.740  0.1919 -0.9038 -0.3311
15762TIP3    H268778   3.021   0.886  10.827 -0.9444 -2.2008 -2.1471
15763TIP3   OH268779   2.387   6.032   0.599 -0.4120  0.0506 -0.4491
15763TIP3    H168780   2.376   5.965   0.666 -0.5126  1.8074  1.3853
15763TIP3    H268781   2.462   6.002   0.546  0.9873 -0.4484  1.6972
15764TIP3   OH268782   2.168   2.775  16.199  0.7714  0.0335 -0.0041
15764TIP3    H168783   2.263   2.785  16.198  0.7749  0.0057  0.0513
15764TIP3    H268784   2.144   2.762  16.107  0.6781  1.3343 -0.1742
15765TIP3   OH268785   5.726   0.069  14.792 -0.5547  0.1473 -0.0878
15765TIP3    H168786   5.692  -0.001  14.849  0.1791 -0.0874  0.0699
15765TIP3    H268787   5.821   0.066  14.804 -0.3334 -0.2874 -1.7817
15766TIP3   OH268788   5.121   6.806   0.475 -0.0935  0.3753  0.5207
15766TIP3    H168789   5.134   6.712   0.470  0.0343  0.2125  2.8270
15766TIP3    H268790   5.192   6.843   0.424 -0.3124 -0.7606 -0.6572
15767TIP3   OH268791   3.735   0.248   2.442  0.6113  0.0515  0.9459
15767TIP3    H168792   3.803   0.306   2.477 -0.3018  1.2533  0.7563
15767TIP3    H268793   3.754   0.243   2.348  0.2356  0.6813  0.8312
15768TIP3   OH268794   0.871   3.534  16.780  0.2231 -0.1797 -0.4372
15768TIP3    H168795   0.787   3.572  16.803  1.1516  0.9705  1.2956
15768TIP3    H268796   0.903   3.589  16.708  0.3074  0.5630  0.1581
15769TIP3   OH268797   0.516   3.857  11.714 -0.0284  0.0896 -0.1983
15769TIP3    H168798   0.424   3.842  11.733 -0.3827 -0.7263 -2.2847
15769TIP3    H268799   0.543   3.781  11.663  1.5404  0.7785 -0.4689
15770TIP3   OH268800   4.072   4.783  15.809  0.1604  0.2595  0.4255
15770TIP3    H168801   4.014   4.827  15.746  0.6762 -1.3508 -1.2301
15770TIP3    H268802   4.136   4.850  15.832 -0.3536  1.0475 -0.3413
15771TIP3   OH268803   0.932   2.980  14.432 -0.0586  0.0802  0.2079
15771TIP3    H168804   0.982   2.927  14.494 -0.3464 -1.1535 -0.5719
15771TIP3    H268805   0.841   2.951  14.443 -0.2294  0.4381 -0.2176
15772TIP3   OH268806   4.806   5.872   2.907 -0.5051 -0.3952 -0.4883
15772TIP3    H168807   4.774   5.853   2.996  0.3590 -1.9767 -0.4719
15772TIP3    H268808   4.760   5.952   2.882 -1.7310 -0.6075  0.8979
15773TIP3   OH268809   6.181   4.960   5.081  0.3764  0.2730  0.2040
15773TIP3    H168810   6.100   4.943   5.032 -0.1492 -1.2728  1.4977
15773TIP3    H268811   6.219   4.873   5.094  2.7550  1.0314 -1.1189
15774TIP3   OH268812   4.208   0.425  16.652 -0.5659 -0.2947  0.2895
15774TIP3    H168813   4.176   0.490  16.715 -1.2527  0.4580 -0.7992
15774TIP3    H268814   4.134   0.365  16.640 -0.5653 -0.2276 -0.0629
15775TIP3   OH268815   4.179   3.679   3.263 -0.7022  0.5684 -0.1616
15775TIP3    H168816   4.154   3.766   3.295 -0.5948  0.2649  0.7645
15775TIP3    H268817   4.099   3.627   3.270 -1.3645  1.1068 -2.6981
15776TIP3   OH268818   0.521   1.339   2.860 -0.0766 -0.1183 -0.3501
15776TIP3    H168819   0.576   1.374   2.930 -1.5567  0.2567  0.6643
15776TIP3    H268820   0.433   1.370   2.880 -1.1458 -2.7751 -0.4665
15777TIP3   OH268821   2.928   3.164  12.128 -0.1434 -0.4309  0.5017
15777TIP3    H168822   3.009   3.115  12.137 -0.4655 -0.7787  1.8280
15777TIP3    H268823   2.870   3.107  12.077 -0.2583 -1.1202  1.3805
15778TIP3   OH268824   1.232   5.431   2.560 -0.4941  0.1754 -0.1893
15778TIP3    H168825   1.237   5.498   2.492 -0.8694 -2.0052 -2.4948
15778TIP3    H268826   1.320   5.395   2.566 -0.7360 -0.4632 -0.4031
15779TIP3   OH268827   5.765   5.787   4.769  0.4653  0.3864  0.2023
15779TIP3    H168828   5.837   5.754   4.823  0.5827  1.8770  1.0014
15779TIP3    H268829   5.690   5.732   4.793  0.8339  0.1947  0.9317
15780TIP3   OH268830   5.610   2.161  15.239  0.1582  0.7273 -0.1204
15780TIP3    H168831   5.570   2.185  15.323 -1.8613  0.3157 -0.9033
15780TIP3    H268832   5.689   2.112  15.263  0.2986  1.6864  1.5122
15781TIP3   OH268833   0.175   6.100  16.247 -0.1122 -0.1226  0.2623
15781TIP3    H168834   0.165   6.043  16.323  0.3674  0.5540  0.8467
15781TIP3    H268835   0.136   6.183  16.274  2.4749  1.0135  0.8306
15782TIP3   OH268836   0.248   2.771   3.408  0.0135 -0.2617 -0.6652
15782TIP3    H168837   0.195   2.708   3.361 -0.9583 -0.0030  0.0548
15782TIP3    H268838   0.197   2.793   3.486  0.3514  1.3753 -0.8684
15783TIP3   OH268839   4.571   5.434   2.636 -0.2088  0.2957  0.0192
15783TIP3    H168840   4.629   5.360   2.622 -1.5039 -0.6816 -0.3682
15783TIP3    H268841   4.535   5.453   2.549 -1.4437  0.0390  0.4611
15784TIP3   OH268842   1.411   4.591   3.827  0.2130 -0.4512 -0.6150
15784TIP3    H168843   1.380   4.639   3.750  0.0123  1.1067  0.3971
15784TIP3    H268844   1.346   4.521   3.839 -1.7631  1.3896  0.1365
15785TIP3   OH268845   5.190   2.114  15.324 -0.2714 -0.2874 -0.0942
15785TIP3    H168846   5.134   2.192  15.319  2.3217  1.7411 -0.0334
15785TIP3    H268847   5.256   2.129  15.256  2.3347 -0.6424  2.2324
15786TIP3   OH268848   4.987   0.557  11.694  0.0482 -0.0253  0.1770
15786TIP3    H168849   5.071   0.581  11.733  0.0749 -0.5749  0.4736
15786TIP3    H268850   5.010   0.520  11.609  0.1080 -0.1712  0.2560
15787TIP3   OH268851   2.836   6.205  11.619  0.3505 -0.0050 -0.1431
15787TIP3    H168852   2.925   6.231  11.641  0.9997 -0.1517 -2.3347
15787TIP3    H268853   2.785   6.286  11.621  0.3502 -0.0139  1.7248
15788TIP3   OH268854   6.283   5.961   1.655 -0.2483 -0.2009 -0.0821
15788TIP3    H168855   6.279   5.918   1.570 -0.9930 -3.2394  1.3462
15788TIP3    H268856   6.205   5.932   1.701  0.3366  0.9981  1.8033
15789TIP3   OH268857   0.642   6.483  12.235  0.1984 -0.1683 -0.1266
15789TIP3    H168858   0.556   6.442  12.233 -0.0216  0.2771 -0.0561
15789TIP3    H268859   0.702   6.413  12.260  0.2990 -1.2100 -2.9648
15790TIP3   OH268860   6.245   0.336  16.236 -0.2378  0.0844  0.1924
15790TIP3    H168861   6.220   0.398  16.167  0.9589  0.4012  0.0099
15790TIP3    H268862   6.260   0.254  16.190  1.0827  0.4286 -0.0354
15791TIP3   OH268863   4.257   6.658   6.260 -0.2793 -0.4958  0.0330
15791TIP3    H168864   4.325   6.600   6.295 -1.4232 -1.1834  1.2201
15791TIP3    H268865   4.297   6.745   6.260  2.0725 -1.3639 -3.3337
15792TIP3   OH268866   1.234   1.505  10.562  0.0305 -0.4892 -0.3940
15792TIP3    H168867   1.172   1.452  10.512 -0.9367 -1.9461  2.1594
15792TIP3    H268868   1.254   1.452  10.640  1.3757  1.6506  0.8182
15793TIP3   OH268869   3.809   3.781   6.214  0.0913  0.2046  0.2079
15793TIP3    H168870   3.727   3.809   6.255 -1.0757  0.6370 -2.2682
15793TIP3    H268871   3.877   3.824   6.266 -1.3050  1.0333  1.4409
15794TIP3   OH268872   1.790   2.085  14.601 -0.5438  0.0355  0.3533
15794TIP3    H168873   1.788   2.000  14.646  1.7083  0.8073  2.0799
15794TIP3    H268874   1.758   2.065  14.513  0.3013 -2.7014  0.5503
15795TIP3   OH268875   2.447   5.975   0.957 -0.0845  0.4184 -0.0474
15795TIP3    H168876   2.460   5.919   0.881  1.9981 -1.3342  1.4727
15795TIP3    H268877   2.410   6.056   0.921  1.3036 -0.1106 -2.9721
15796TIP3   OH268878   2.690   6.721   2.171  0.3106  0.1487  0.3609
15796TIP3    H168879   2.696   6.633   2.210 -0.3778 -0.2151 -0.3337
15796TIP3    H268880   2.772   6.763   2.196 -0.8603  0.6531  3.9178
15797TIP3   OH268881   2.490   1.561  12.345  0.2001 -0.1263 -0.0954
15797TIP3    H168882   2.502   1.652  12.318 -0.7036 -0.2480 -0.9669
15797TIP3    H268883   2.480   1.513  12.263 -1.2799 -0.7114  0.3981
15798TIP3   OH268884   5.640   3.923   5.432  0.0623  0.1812  0.3368
15798TIP3    H168885   5.647   3.980   5.356  0.7255 -1.1918 -0.6828
15798TIP3    H268886   5.620   3.837   5.396  0.8021 -0.5967  1.6757
15799TIP3   OH268887   3.105   1.686   1.742 -0.3255 -0.0678 -0.4524
15799TIP3    H168888   3.096   1.775   1.775  0.1821 -0.1657 -0.0347
15799TIP3    H268889   3.160   1.695   1.663 -0.2388 -0.0168 -0.3859
15800TIP3   OH268890   0.668   5.914  15.038  0.1592 -0.1938  0.8274
15800TIP3    H168891   0.722   5.992  15.021 -0.2465  0.2030  1.3369
15800TIP3    H268892   0.578   5.944  15.028 -0.0068 -0.5593  1.1765
15801TIP3   OH268893   5.677   5.169  14.284 -0.2062  0.4266  0.1156
15801TIP3    H168894   5.600   5.119  14.310  0.0755 -0.7245 -1.1479
15801TIP3    H268895   5.643   5.255  14.259 -1.0028  0.1434  0.1973
15802TIP3   OH268896   2.369   4.919   2.757 -0.3866 -0.5581 -0.0896
15802TIP3    H168897   2.304   4.941   2.824  0.2703  0.5890  0.1836
15802TIP3    H268898   2.449   4.901   2.806  0.1489  0.4659 -0.5640
15803TIP3   OH268899   3.138   3.003   3.822  0.1847  0.0475 -0.1877
15803TIP3    H168900   3.044   3.020   3.832  0.1724  0.1312 -0.4485
15803TIP3    H268901   3.143   2.912   3.795  0.2849 -0.6385  1.9363
15804TIP3   OH268902   5.386   3.042   4.043  1.0680 -0.0487  0.1985
15804TIP3    H168903   5.380   3.039   3.947  0.3990  1.4739  0.1522
15804TIP3    H268904   5.470   3.085   4.059  2.0527 -1.9682  0.3602
15805TIP3   OH268905   2.880   4.336  10.342 -1.0929 -0.1868 -0.1800
15805TIP3    H168906   2.971   4.353  10.315 -0.7921  0.4540  1.1617
15805TIP3    H268907   2.840   4.423  10.345 -1.6013 -0.4205 -0.2254
15806TIP3   OH268908   2.865   6.054  16.500 -0.8828 -0.5877 -0.5488
15806TIP3    H168909   2.939   5.993  16.499 -0.9702 -0.7139  0.1037
15806TIP3    H268910   2.892   6.124  16.441 -0.5636 -1.0046 -0.9097
15807TIP3   OH268911   5.383   3.174  13.630 -0.8049  0.3952  0.0598
15807TIP3    H168912   5.467   3.217  13.645  1.0078 -2.7320 -0.0947
15807TIP3    H268913   5.369   3.181  13.535  0.4299 -0.7754 -0.2551
15808TIP3   OH268914   3.249   4.490  13.546 -0.8996  0.8301 -0.5209
15808TIP3    H168915   3.176   4.430  13.559  0.8238 -1.1964  0.4161
15808TIP3    H268916   3.293   4.458  13.467  0.1469  0.7404  0.0887
15809TIP3   OH268917   4.473   6.366  11.815 -0.1978  0.5961 -0.6106
15809TIP3    H168918   4.555   6.374  11.766 -0.1705 -0.5356 -0.7819
15809TIP3    H268919   4.405   6.361  11.748 -0.1858 -0.6786 -0.5596
15810TIP3   OH268920   5.615   4.301  15.376 -0.5600 -0.2463 -0.4931
15810TIP3    H168921   5.633   4.214  15.412 -1.8714  0.2153  1.4528
15810TIP3    H268922   5.527   4.294  15.339 -1.5408  0.7137  1.5087
15811TIP3   OH268923   0.679   2.664   0.265 -0.0639  0.0290  0.4368
15811TIP3    H168924   0.606   2.717   0.296  0.5439  1.6451 -0.7467
15811TIP3    H268925   0.756   2.721   0.274  0.6401 -0.6975 -0.7076
15812TIP3   OH268926   6.312   4.942  15.634 -0.3619  0.2382  0.3661
15812TIP3    H168927   6.263   4.865  15.660 -0.0590  0.1517  0.6999
15812TIP3    H268928   6.246   5.004  15.603 -0.4904 -0.6549 -1.2194
15813TIP3   OH268929   6.724   0.568   0.505  0.1198  0.1053 -0.0026
15813TIP3    H168930   6.652   0.599   0.561  0.5654 -0.8110  1.1260
15813TIP3    H268931   6.709   0.474   0.498  0.1720  0.1769 -1.3284
15814TIP3   OH268932   4.308   1.264  12.405 -0.4373 -0.1397  0.0721
15814TIP3    H168933   4.277   1.281  12.494 -2.0263 -1.4558 -0.1842
15814TIP3    H268934   4.345   1.347  12.376  0.2724  0.2582  2.0160
15815TIP3   OH268935   5.722   5.289   2.556  0.4120 -0.3590 -0.3127
15815TIP3    H168936   5.720   5.338   2.474  0.5216  0.9440  0.4474
15815TIP3    H268937   5.653   5.328   2.609 -0.1615 -1.6813 -0.0245
15816TIP3   OH268938   3.319   0.868   5.200  0.4914  0.2574 -0.1777
15816TIP3    H168939   3.267   0.855   5.279 -0.5219  2.7694 -0.3117
15816TIP3    H268940   3.373   0.790   5.193  0.1441 -0.3451  2.6179
15817TIP3   OH268941   5.284   4.087   3.258  0.1616 -0.0937  0.4787
15817TIP3    H168942   5.315   4.060   3.344  2.4597  0.2168 -0.1945
15817TIP3    H268943   5.311   4.178   3.250 -0.6221  0.0859 -0.3207
15818TIP3   OH268944   2.585   3.379  12.854 -0.0288  0.0906 -0.4471
15818TIP3    H168945   2.614   3.296  12.817 -2.2070 -0.6583 -0.6203
15818TIP3    H268946   2.584   3.440  12.780  0.6038  0.0244 -0.5175
15819TIP3   OH268947   5.081   4.014   2.759  0.3097  0.8698  0.0093
15819TIP3    H168948   5.113   4.103   2.771  0.8145  0.8749 -1.2009
15819TIP3    H268949   5.153   3.968   2.715 -0.3693  0.1908 -0.4311
15820TIP3   OH268950   2.192   2.855   5.784  0.7365 -0.0112 -0.1310
15820TIP3    H168951   2.155   2.767   5.770 -0.3093 -0.1031  2.6045
15820TIP3    H268952   2.167   2.877   5.874  2.3018  2.4764 -0.2288
15821TIP3   OH268953   5.261   1.358   2.658 -0.0321  0.1030 -0.2344
15821TIP3    H168954   5.294   1.415   2.589  0.3899  2.0603  1.4657
15821TIP3    H268955   5.168   1.379   2.664  0.1949  0.9943  0.6432
15822TIP3   OH268956   6.687   4.975  14.265 -0.1359  0.4101  0.1812
15822TIP3    H168957   6.749   5.035  14.225  0.8557  0.4837  1.7477
15822TIP3    H268958   6.720   4.961  14.353 -1.6363 -0.5977  0.6316
15823TIP3   OH268959   4.471   4.341  13.512 -0.0359  0.4032 -0.7420
15823TIP3    H168960   4.450   4.415  13.570 -0.3225 -0.8918  0.8955
15823TIP3    H268961   4.503   4.273  13.572 -0.1377 -0.9352 -2.1560
15824TIP3   OH268962   0.799   0.503   3.590  0.1207  0.2200 -0.1578
15824TIP3    H168963   0.717   0.518   3.637  0.1270 -1.6067  0.5185
15824TIP3    H268964   0.772   0.493   3.498 -0.5087 -0.8246  0.1158
15825TIP3   OH268965   5.985   1.198   5.238 -0.3168  0.5356  0.0552
15825TIP3    H168966   5.901   1.172   5.200 -0.6264 -2.7065  2.5041
15825TIP3    H268967   6.050   1.177   5.172 -1.2579  1.3623 -1.1735
15826TIP3   OH268968   2.262   5.151  13.430 -0.0492  0.0413  0.3316
15826TIP3    H168969   2.297   5.087  13.493  1.0091  1.6188  1.4317
15826TIP3    H268970   2.339   5.181  13.381 -0.8186 -0.9227 -1.5515
15827TIP3   OH268971   5.441   2.382  11.324  0.3121  0.3864 -0.3022
15827TIP3    H168972   5.485   2.404  11.242 -0.7157  0.1474 -0.9278
15827TIP3    H268973   5.423   2.467  11.365 -2.1315  0.7165 -1.9121
15828TIP3   OH268974   3.485   0.641  11.483 -0.5043  0.5534  0.2053
15828TIP3    H168975   3.545   0.596  11.424 -0.5133  1.5521 -0.5939
15828TIP3    H268976   3.408   0.661  11.429 -0.5956  1.3053  0.6032
15829TIP3   OH268977   3.779   0.089   5.340  0.5657 -0.1156  0.4602
15829TIP3    H168978   3.784   0.146   5.263  1.5817 -0.7098  0.0658
15829TIP3    H268979   3.706   0.124   5.391 -1.4679 -0.9160 -1.7349
15830TIP3   OH268980   2.238   2.065   1.177  0.6619  0.2996  0.3468
15830TIP3    H168981   2.235   1.970   1.181 -1.3270  0.3197  0.2258
15830TIP3    H268982   2.276   2.092   1.261 -0.8460 -0.5619  1.3577
15831TIP3   OH268983   4.789   2.555  16.984  0.2614  0.4765 -0.3260
15831TIP3    H168984   4.743   2.609  16.920 -0.7165 -0.1904 -0.2223
15831TIP3    H268985   4.719   2.510  17.031  1.0002  0.3329  0.6569
15832TIP3   OH268986   4.206   3.429   2.507  0.3671 -0.0108  0.5144
15832TIP3    H168987   4.265   3.410   2.435  0.3298 -2.6263  1.0949
15832TIP3    H268988   4.118   3.414   2.471  0.2681  0.0420  0.7272
15833TIP3   OH268989   1.846   6.828   1.259  0.1153 -0.3199  0.1841
15833TIP3    H168990   1.893   6.828   1.175  0.5168  0.9030  0.3859
15833TIP3    H268991   1.782   6.899   1.249  1.0359  0.7084  1.3700
15834TIP3   OH268992   5.997   6.805  13.616  0.0423  0.0147 -0.2475
15834TIP3    H168993   6.085   6.775  13.641 -1.0043 -4.4024 -1.0519
15834TIP3    H268994   5.964   6.847  13.696  2.1985  0.1463  0.6670
15835TIP3   OH268995   0.004   3.589  12.009 -0.2665  0.0134  0.4081
15835TIP3    H168996   0.034   3.643  11.936  0.9494 -0.8297  0.2663
15835TIP3    H268997  -0.078   3.551  11.978 -0.0612  0.1285 -0.2948
15836TIP3   OH268998   3.631   3.895  15.293 -0.3645  0.4030  0.1373
15836TIP3    H168999   3.723   3.910  15.309 -0.1043  0.8897 -1.5717
15836TIP3    H269000   3.612   3.943  15.212 -1.7695 -0.8115 -0.3133
15837TIP3   OH269001   6.691   6.399   5.806 -0.4600  0.2871 -0.4979
15837TIP3    H169002   6.625   6.333   5.827 -1.0947  1.2006  0.4753
15837TIP3    H269003   6.743   6.409   5.885 -0.1277  0.6804 -0.7545
15838TIP3   OH269004   3.347   1.631  13.358 -0.1329 -0.0062 -0.5830
15838TIP3    H169005   3.438   1.601  13.367 -0.3496 -0.3085  0.8268
15838TIP3    H269006   3.297   1.551  13.342 -0.4434 -0.1904  1.1080
15839TIP3   OH269007   0.544   3.941  11.330  0.2019 -0.3083  0.2320
15839TIP3    H169008   0.586   3.891  11.261  0.6455  0.8929 -0.4049
15839TIP3    H269009   0.615   3.966  11.389  0.9473  3.4488 -1.8985
15840TIP3   OH269010   0.924   3.635   0.900 -0.7972 -0.5276  0.1737
15840TIP3    H169011   0.974   3.573   0.953 -0.4686 -0.4559 -0.0466
15840TIP3    H269012   0.914   3.591   0.816 -0.6234 -0.3120  0.0399
15841TIP3   OH269013   1.208   0.804   0.017  0.0460  0.3608 -0.5519
15841TIP3    H169014   1.123   0.833   0.050 -0.6148 -1.8769 -0.1219
15841TIP3    H269015   1.231   0.729   0.072  2.1245  0.6393 -0.9439
15842TIP3   OH269016   2.011   5.272   1.948  0.3074 -0.0642 -0.6487
15842TIP3    H169017   2.072   5.344   1.964  0.4009 -0.6417  2.2074
15842TIP3    H269018   1.927   5.305   1.981 -0.0652 -0.6386 -1.0097
15843TIP3   OH269019   5.693   1.054  16.817 -0.0247 -0.3286 -0.1892
15843TIP3    H169020   5.724   1.143  16.833  1.7877 -0.9303 -0.0854
15843TIP3    H269021   5.771   1.000  16.829 -0.6811 -1.7545 -1.8947
15844TIP3   OH269022   6.830   3.000  14.261 -0.0187 -0.6433  0.5166
15844TIP3    H169023   6.835   2.922  14.317  0.9667 -0.6875  0.3750
15844TIP3    H269024   6.742   3.034  14.276 -0.1487 -1.2790  1.2559
15845TIP3   OH269025   0.774   4.296  11.287 -0.0164 -0.4362 -0.1648
15845TIP3    H169026   0.831   4.255  11.352  0.7706  0.6924 -0.1175
15845TIP3    H269027   0.815   4.381  11.269  0.0661 -0.8883 -2.4976
15846TIP3   OH269028   3.868   1.633   4.107 -0.2872 -0.3514  0.3088
15846TIP3    H169029   3.920   1.711   4.090  2.9391 -1.5942  3.3179
15846TIP3    H269030   3.785   1.666   4.140  0.1958  1.7757 -0.4364
15847TIP3   OH269031   5.880   5.895   0.332 -0.3316 -0.2565  0.0456
15847TIP3    H169032   5.899   5.821   0.275 -0.8744 -0.4714  0.1383
15847TIP3    H269033   5.964   5.913   0.376 -0.1298 -0.6395 -0.1732
15848TIP3   OH269034   6.498   1.058   3.130 -0.5914 -0.0535 -0.2545
15848TIP3    H169035   6.524   1.036   3.219 -3.8409  3.0947  1.7900
15848TIP3    H269036   6.408   1.025   3.122 -0.0163 -1.2035 -2.8308
15849TIP3   OH269037   0.940   5.121   1.380  0.2155 -0.1965  0.3932
15849TIP3    H169038   1.028   5.090   1.360  0.8704  0.7339  1.6686
15849TIP3    H269039   0.908   5.156   1.297  1.0193 -0.6057 -0.1045
15850TIP3   OH269040   3.690   6.068  12.003  0.6494 -0.0907 -0.4421
15850TIP3    H169041   3.744   6.146  12.010  0.2729  0.0402  1.5117
15850TIP3    H269042   3.609   6.098  11.963  0.0962  0.7890  1.2440
15851TIP3   OH269043   1.020   3.072  11.272 -0.2044  0.1963  0.3558
15851TIP3    H169044   0.993   3.097  11.183  0.4138  0.9846  0.3726
15851TIP3    H269045   0.989   3.143  11.328  0.4694  0.3123  0.5931
15852TIP3   OH269046   5.485   0.958  15.158 -0.4540 -0.6138  0.5327
15852TIP3    H169047   5.396   0.943  15.189 -0.6033 -0.2432  0.2972
15852TIP3    H269048   5.529   0.874  15.169 -0.4061 -0.4262  2.0357
15853TIP3   OH269049   3.730   2.404   4.634 -0.2747 -0.3761  0.0059
15853TIP3    H169050   3.714   2.400   4.728  1.1747 -0.6403  0.2662
15853TIP3    H269051   3.657   2.456   4.600  0.2910  1.6103  1.5794
15854TIP3   OH269052   0.982   4.968  17.067 -0.2943 -0.3550  0.5931
15854TIP3    H169053   1.036   4.941  17.142  1.0648  0.6295  0.0063
15854TIP3    H269054   0.941   4.886  17.037 -0.0114 -0.9409  1.7410
15855TIP3   OH269055   0.283   2.744   5.448 -0.3724  0.1610  0.4238
15855TIP3    H169056   0.284   2.676   5.516  1.5889  0.3793  0.6698
15855TIP3    H269057   0.327   2.703   5.374 -1.2593  0.4055 -0.2547
15856TIP3   OH269058   2.594   0.264   4.952 -0.3764  0.2549  0.3563
15856TIP3    H169059   2.563   0.202   4.885 -2.8106  1.5185  0.1916
15856TIP3    H269060   2.610   0.345   4.903  0.1626  0.5261  0.9740
15857TIP3   OH269061   0.916   6.601  16.980  0.7464 -0.5694  0.2144
15857TIP3    H169062   0.862   6.626  17.055  0.9881  0.8000 -0.0423
15857TIP3    H269063   0.881   6.652  16.907  0.9000 -1.4349 -0.4826
15858TIP3   OH269064   1.370   4.475  17.043 -0.6009  0.2795  0.0360
15858TIP3    H169065   1.356   4.513  16.956 -0.3148  1.1035  0.3445
15858TIP3    H269066   1.281   4.456  17.075 -0.7903  1.1806  0.0846
15859TIP3   OH269067   2.763   6.191   5.381 -0.3545  0.6669 -0.2966
15859TIP3    H169068   2.817   6.247   5.325  0.4083  0.0266 -0.2161
15859TIP3    H269069   2.731   6.122   5.323 -1.3044  1.1765 -0.3979
15860TIP3   OH269070   2.564   5.259  13.563  0.2301 -0.3016  0.1132
15860TIP3    H169071   2.610   5.303  13.635 -1.0203 -2.2404  2.2664
15860TIP3    H269072   2.593   5.168  13.570 -3.3041 -1.4849  1.1920
15861TIP3   OH269073   0.035   1.904   0.901 -0.5069 -0.3712  0.6795
15861TIP3    H169074  -0.058   1.894   0.882 -0.7703  0.2002  1.6182
15861TIP3    H269075   0.039   1.964   0.975  0.6783  0.9406 -0.3696
15862TIP3   OH269076   5.061   6.126   4.469  0.1611  0.1029 -0.0483
15862TIP3    H169077   5.090   6.209   4.507 -2.0939  1.5264 -1.2306
15862TIP3    H269078   5.142   6.077   4.453  1.5247  1.8822  1.0626
15863TIP3   OH269079   3.344   1.865  12.760 -0.0050 -0.6244 -0.0198
15863TIP3    H169080   3.254   1.869  12.729 -0.1632 -0.6882  0.4205
15863TIP3    H269081   3.361   1.953  12.795  0.6552 -0.1007 -1.5830
15864TIP3   OH269082   6.293   3.737   0.619 -0.4914  0.5285  0.4655
15864TIP3    H169083   6.357   3.802   0.648 -0.0165  0.0231  0.5615
15864TIP3    H269084   6.244   3.781   0.549  0.8227  0.4862 -0.5231
15865TIP3   OH269085   0.940   4.347  14.154  0.7743 -0.0957 -0.1824
15865TIP3    H169086   1.014   4.401  14.124  0.7408 -0.3487 -0.7294
15865TIP3    H269087   0.956   4.335  14.248  1.4576 -0.1879 -0.3030
15866TIP3   OH269088   6.577   4.108  12.727 -0.0387 -0.2028  0.0663
15866TIP3    H169089   6.564   4.198  12.757 -0.2430  0.4046 -1.6980
15866TIP3    H269090   6.495   4.063  12.750  0.0128  0.0891  0.8460
15867TIP3   OH269091   6.187   1.755   4.944 -0.3596  0.0974 -0.7209
15867TIP3    H169092   6.274   1.752   4.905  0.3310 -0.1067  0.7741
15867TIP3    H269093   6.157   1.664   4.942 -0.1982  0.0398 -0.4862
15868TIP3   OH269094   3.483   2.421  12.847 -0.4557  0.0750 -0.1268
15868TIP3    H169095   3.568   2.455  12.876  0.0784  0.4511 -2.0339
15868TIP3    H269096   3.495   2.326  12.848  0.8945  0.1374 -2.7565
15869TIP3   OH269097   6.793   4.042   0.338 -0.2137 -0.1536 -0.0765
15869TIP3    H169098   6.864   4.093   0.298 -0.1268 -0.7246 -0.6754
15869TIP3    H269099   6.738   4.108   0.380 -0.5484  0.5411 -1.5286
15870TIP3   OH269100   6.042   1.356  13.912 -0.3310  0.3002  0.3239
15870TIP3    H169101   6.003   1.365  14.000 -0.2213  2.1817  0.2198
15870TIP3    H269102   6.105   1.284  13.921 -0.3816  0.4004  1.7651
15871TIP3   OH269103   2.998   1.203   3.164 -0.0210  0.4118  0.1626
15871TIP3    H169104   2.979   1.110   3.150  0.1814  0.3500  0.2952
15871TIP3    H269105   2.924   1.248   3.124 -0.7386  0.1634  1.1726
15872TIP3   OH269106   0.733   3.849  14.257  0.0871  0.5217 -0.5873
15872TIP3    H169107   0.648   3.810  14.240 -0.0758  0.9031 -0.6530
15872TIP3    H269108   0.745   3.841  14.352 -0.6993  1.8276 -0.3555
15873TIP3   OH269109   1.367   3.670  16.706 -0.1639 -0.5233  0.0347
15873TIP3    H169110   1.388   3.726  16.781  0.5907 -0.0316 -0.5141
15873TIP3    H269111   1.297   3.613  16.736 -1.0482  0.8199  0.5774
15874TIP3   OH269112   5.894   2.920  11.622  0.4481  0.0888 -0.1118
15874TIP3    H169113   5.957   2.877  11.564  0.0920  1.5455 -1.6230
15874TIP3    H269114   5.809   2.901  11.583  0.1014  0.0041  0.6710
15875TIP3   OH269115   1.057   1.105  13.600 -0.4654 -0.5263  0.1106
15875TIP3    H169116   1.145   1.138  13.616 -0.9912  0.9313  0.1769
15875TIP3    H269117   1.005   1.183  13.582 -1.9949 -1.2086  1.2654
15876TIP3   OH269118   0.788   2.376   2.419  0.2331 -0.4648 -0.0467
15876TIP3    H169119   0.696   2.359   2.440  0.5661 -1.0022  1.0759
15876TIP3    H269120   0.833   2.371   2.504  1.2392  0.1797 -0.5290
15877TIP3   OH269121   6.638   6.666   0.761 -0.1886 -0.0798  0.2076
15877TIP3    H169122   6.703   6.736   0.771 -0.9447  0.5736  0.8044
15877TIP3    H269123   6.610   6.647   0.851 -0.9667 -0.1955 -0.0506
15878TIP3   OH269124   2.057   5.528   2.219 -0.1452 -0.2231 -0.2160
15878TIP3    H169125   1.977   5.476   2.223 -1.7453  2.1306  1.9030
15878TIP3    H269126   2.096   5.518   2.305  0.8524  0.1215 -0.6168
15879TIP3   OH269127   1.041   0.124   1.716 -0.3209  0.1792 -0.0567
15879TIP3    H169128   0.964   0.171   1.747 -0.7596 -0.9988  0.7220
15879TIP3    H269129   1.087   0.098   1.797  0.5634  0.3243 -0.4983
15880TIP3   OH269130   3.316   2.102   0.042 -0.0283  0.5487  0.4702
15880TIP3    H169131   3.293   2.014   0.072  0.4790  0.4875  0.6958
15880TIP3    H269132   3.274   2.111  -0.043 -1.0937  0.5408  0.9771
15881TIP3   OH269133   2.679   6.751  11.175 -0.3428  0.0791 -0.2591
15881TIP3    H169134   2.647   6.811  11.243 -0.5211 -0.6728  0.3281
15881TIP3    H269135   2.701   6.809  11.102 -0.3593  0.8821  0.3498
15882TIP3   OH269136   5.797   5.602   4.391  0.5084 -0.4760  0.3873
15882TIP3    H169137   5.830   5.557   4.468 -0.5530 -1.7682  0.1252
15882TIP3    H269138   5.730   5.544   4.356  1.8573 -0.5748 -2.2916
15883TIP3   OH269139   2.625   3.100  10.759 -0.0795  0.9913 -0.6307
15883TIP3    H169140   2.610   3.124  10.668 -0.9330  3.8733  0.1667
15883TIP3    H269141   2.718   3.079  10.764 -0.3339 -0.8816 -2.4234
15884TIP3   OH269142   3.369   5.959   4.917  0.3836  0.6250 -0.4898
15884TIP3    H169143   3.366   5.989   4.826  0.8063 -0.1067 -0.7529
15884TIP3    H269144   3.450   5.908   4.923 -0.7365 -1.2509 -0.3357
15885TIP3   OH269145   4.966   6.475  12.304  0.3100  0.6959  0.0042
15885TIP3    H169146   4.939   6.418  12.375  0.8959  1.3908  0.8042
15885TIP3    H269147   4.928   6.435  12.225  0.5471 -0.6700  0.5577
15886TIP3   OH269148   2.674   0.827  15.643 -0.3813 -0.0824 -0.1998
15886TIP3    H169149   2.670   0.890  15.571  2.1246 -0.2695 -0.5905
15886TIP3    H269150   2.701   0.745  15.602  0.9532 -0.2277  0.8918
15887TIP3   OH269151   1.533   1.086  17.010 -0.6364  0.1971  0.0853
15887TIP3    H169152   1.613   1.109  17.057  0.1597 -1.1458 -0.5376
15887TIP3    H269153   1.517   1.161  16.952 -0.2577  0.7932  0.7316
15888TIP3   OH269154   4.693   5.818   1.837  0.1476 -0.0062  0.1705
15888TIP3    H169155   4.709   5.733   1.796  0.7695  0.1197  0.1444
15888TIP3    H269156   4.604   5.811   1.871  0.8821 -1.4357  2.0001
15889TIP3   OH269157   5.084   4.307   2.899  0.2764  0.1831 -0.7317
15889TIP3    H169158   5.031   4.363   2.841  0.7874  0.7043 -0.7130
15889TIP3    H269159   5.044   4.317   2.985  0.3798  0.5458 -0.7243
15890TIP3   OH269160   1.986   3.478  12.394  0.4852  0.1598  0.6127
15890TIP3    H169161   1.987   3.573  12.395 -1.2353  0.2213  0.7488
15890TIP3    H269162   2.076   3.452  12.412  0.9558  1.7492  0.6908
15891TIP3   OH269163   6.148   4.563   5.073 -0.0995 -0.1147 -0.1136
15891TIP3    H169164   6.217   4.623   5.045 -0.2414  0.0586 -0.0939
15891TIP3    H269165   6.079   4.573   5.007 -0.0788 -0.3360 -0.1703
15892TIP3   OH269166   4.916   6.087  11.732  0.2024  0.0953  0.2833
15892TIP3    H169167   4.926   5.995  11.756 -1.1722  0.0450  0.7083
15892TIP3    H269168   4.965   6.135  11.799  0.9570 -0.3176  0.0367
15893TIP3   OH269169   2.768   6.316  12.411  0.2412 -0.1090 -0.2444
15893TIP3    H169170   2.852   6.334  12.369  1.0936 -0.6604  1.1373
15893TIP3    H269171   2.704   6.367  12.361  1.6104  1.5258 -0.3975
15894TIP3   OH269172   2.640   1.502   2.718 -0.1887 -0.1151 -0.5006
15894TIP3    H169173   2.660   1.586   2.760  2.8249 -1.8680  1.9751
15894TIP3    H269174   2.721   1.477   2.675 -0.8795 -1.9430 -0.8136
15895TIP3   OH269175   4.201   2.656  12.706 -0.0975 -0.3337 -0.2445
15895TIP3    H169176   4.223   2.676  12.615 -0.9292 -2.9212 -1.1176
15895TIP3    H269177   4.279   2.681  12.755 -0.1645  2.5154 -1.3756
15896TIP3   OH269178   6.225   5.426  16.194  0.0382  0.1096 -1.1195
15896TIP3    H169179   6.228   5.384  16.108  0.7184 -2.9406  0.2595
15896TIP3    H269180   6.315   5.425  16.225  0.0419  2.4857 -0.8639
15897TIP3   OH269181   1.621   3.492   6.041 -0.0617 -0.0084  0.1335
15897TIP3    H169182   1.635   3.493   6.136 -1.3593 -0.6738  0.3554
15897TIP3    H269183   1.709   3.500   6.004  0.4289  0.6717  1.3847
15898TIP3   OH269184   5.858   6.398   2.761 -0.2700  0.2420  0.3344
15898TIP3    H169185   5.854   6.343   2.683 -2.2360  0.5193  0.2016
15898TIP3    H269186   5.911   6.473   2.734 -0.4054  0.0366 -0.5438
15899TIP3   OH269187   3.196   2.422  11.860  0.4629  0.6171  0.4052
15899TIP3    H169188   3.179   2.486  11.790  1.1308  0.1358 -0.2074
15899TIP3    H269189   3.223   2.475  11.935  0.1444  1.1120  0.1762
15900TIP3   OH269190   3.031   6.423   1.395  0.5394  0.6132 -0.3966
15900TIP3    H169191   3.089   6.402   1.469  0.2272 -1.7494 -0.7339
15900TIP3    H269192   2.943   6.418   1.432  0.4128  0.1107 -0.7502
15901TIP3   OH269193   4.826   3.876   2.722  0.3047  0.6443  0.0269
15901TIP3    H169194   4.840   3.824   2.642 -0.2631  1.9719 -0.9742
15901TIP3    H269195   4.904   3.930   2.729  0.7025 -0.0113  0.8327
15902TIP3   OH269196   6.061   6.716  15.156 -0.3701 -0.3439  0.1903
15902TIP3    H169197   6.068   6.660  15.079  0.6000  0.4377 -0.3115
15902TIP3    H269198   6.148   6.713  15.196 -1.1186 -1.5935  1.9070
15903TIP3   OH269199   5.549   2.095   5.552  0.5003 -0.1430 -0.1442
15903TIP3    H169200   5.473   2.135   5.510  0.3115 -1.0817 -0.7454
15903TIP3    H269201   5.523   2.085   5.643  0.6885  1.3849  0.0967
15904TIP3   OH269202   0.013   1.257   4.625 -0.0052  0.1035 -0.1702
15904TIP3    H169203  -0.036   1.336   4.646  0.6845  0.4329  0.2112
15904TIP3    H269204   0.038   1.221   4.710 -0.8321 -0.8604 -0.3181
15905TIP3   OH269205   3.500   6.041   4.432  0.7610  0.0860 -0.4137
15905TIP3    H169206   3.474   6.077   4.517 -1.1390 -2.0285 -0.0193
15905TIP3    H269207   3.586   6.001   4.448  0.8547  0.5304  0.2494
15906TIP3   OH269208   2.112   4.677   6.481 -0.5237 -0.3596 -0.2058
15906TIP3    H169209   2.112   4.754   6.538 -0.4727 -0.3873 -0.1695
15906TIP3    H269210   2.020   4.650   6.478 -0.8186  0.6757 -1.5174
15907TIP3   OH269211   6.721   6.323  15.980 -0.8414 -0.4872  0.5416
15907TIP3    H169212   6.712   6.293  16.070  1.2998 -1.2987  0.5485
15907TIP3    H269213   6.667   6.264  15.928  0.7165 -2.3702  0.9413
15908TIP3   OH269214   1.807   3.563   1.743  0.0519 -0.0398 -0.1129
15908TIP3    H169215   1.829   3.517   1.825  1.6828  1.0629  0.1042
15908TIP3    H269216   1.815   3.495   1.676  0.2370 -0.6043  0.4602
15909TIP3   OH269217   0.063   4.122  11.225 -0.2464 -0.5518  0.0721
15909TIP3    H169218   0.132   4.094  11.285  0.6944  1.1476 -0.1424
15909TIP3    H269219   0.084   4.079  11.142  0.1098 -0.6406  0.2074
15910TIP3   OH269220   1.908   3.357  16.277 -0.1319  0.6913  0.0938
15910TIP3    H169221   1.913   3.261  16.280 -2.3245  0.5395  0.2875
15910TIP3    H269222   1.859   3.376  16.197  0.8181  1.7046 -0.2757
15911TIP3   OH269223   5.909   2.551   6.073 -0.3537  0.2163 -0.5690
15911TIP3    H169224   5.844   2.589   6.014  0.4890  0.2366 -1.5107
15911TIP3    H269225   5.925   2.463   6.040  0.7407  0.5187 -0.8996
15912TIP3   OH269226   1.531   3.206  14.339 -0.1317  0.4509 -0.5173
15912TIP3    H169227   1.458   3.226  14.280  0.4988 -0.0855 -1.5116
15912TIP3    H269228   1.556   3.116  14.317  0.7071  0.5567 -0.0640
15913TIP3   OH269229   4.287   2.194   4.580 -0.0882  0.2011  0.1833
15913TIP3    H169230   4.283   2.111   4.533 -1.9820  1.5386 -2.2330
15913TIP3    H269231   4.356   2.244   4.535 -0.4478  0.7282  0.2089
15914TIP3   OH269232   6.106   3.217  14.187 -0.8279  0.1595 -0.6164
15914TIP3    H169233   6.189   3.263  14.176  1.4871 -3.4032  0.4225
15914TIP3    H269234   6.074   3.244  14.273 -0.0708  0.5800 -0.4610
15915TIP3   OH269235   3.302   6.161   1.740  0.1423  0.2456 -0.0908
15915TIP3    H169236   3.388   6.162   1.782  1.3240  0.1789 -2.3202
15915TIP3    H269237   3.286   6.069   1.719  1.5169  0.5785 -3.2388
15916TIP3   OH269238   2.644   1.196   4.980 -0.4386  0.4703  0.4485
15916TIP3    H169239   2.590   1.193   5.059 -0.7695 -0.9543  0.1936
15916TIP3    H269240   2.732   1.218   5.013 -0.9997  2.0929  0.9397
15917TIP3   OH269241   4.934   3.164  13.482 -0.3841  0.0696  0.2814
15917TIP3    H169242   4.979   3.154  13.566  1.0524 -0.1255 -0.4813
15917TIP3    H269243   4.915   3.074  13.455  0.6368  0.0344 -0.3589
15918TIP3   OH269244   3.704   1.667   1.971 -0.5815 -0.3191  0.3550
15918TIP3    H169245   3.683   1.664   1.878  1.0903  0.6706 -0.0743
15918TIP3    H269246   3.721   1.575   1.995  1.0935 -0.3494 -0.8337
15919TIP3   OH269247   1.304   1.849  13.596  0.0903 -0.3731 -0.7241
15919TIP3    H169248   1.395   1.855  13.625  0.1719 -0.3158 -0.9882
15919TIP3    H269249   1.264   1.786  13.655  0.5764 -1.2319 -1.2883
15920TIP3   OH269250   4.830   5.304   3.219 -0.2208  0.0932  0.2571
15920TIP3    H169251   4.818   5.251   3.140 -1.5137  0.9821 -0.1746
15920TIP3    H269252   4.883   5.249   3.277  1.9809 -0.0333 -1.7397
15921TIP3   OH269253   0.957   2.654   4.942  0.6409  0.0155 -0.1555
15921TIP3    H169254   1.044   2.651   4.980 -0.1363 -0.0135  1.6987
15921TIP3    H269255   0.912   2.577   4.977 -0.6651  0.9603  0.3525
15922TIP3   OH269256   6.041   0.599   2.152  0.6848 -1.0170 -0.4815
15922TIP3    H169257   6.102   0.579   2.223 -0.6714  1.7837  1.6725
15922TIP3    H269258   5.964   0.545   2.170 -0.3739  1.0007  1.3691
15923TIP3   OH269259   6.781   5.529   4.209 -0.0227  0.4776  0.1645
15923TIP3    H169260   6.854   5.476   4.176 -0.2937  0.8120 -1.0018
15923TIP3    H269261   6.762   5.492   4.295  1.6169  0.4689  0.5638
15924TIP3   OH269262   3.955   2.448   3.800  0.0906  0.6016  0.6361
15924TIP3    H169263   4.041   2.415   3.772  0.3595  1.8628 -0.0978
15924TIP3    H269264   3.916   2.375   3.848  1.1242 -0.3828  0.0380
15925TIP3   OH269265   5.519   4.904  15.106 -0.2018 -0.5668 -0.0688
15925TIP3    H169266   5.614   4.913  15.112 -0.4862  2.8317  1.0507
15925TIP3    H269267   5.501   4.909  15.012  0.6510 -0.2511 -0.2299
15926TIP3   OH269268   3.269   3.117  11.066 -0.1386 -0.3188  0.3576
15926TIP3    H169269   3.240   3.154  10.982 -0.3392 -0.8396  0.1916
15926TIP3    H269270   3.236   3.027  11.065  0.5763 -0.5898  0.6361
15927TIP3   OH269271   5.823   4.167  11.101  0.1385 -0.6358 -0.0141
15927TIP3    H169272   5.753   4.228  11.124  1.1623  0.2447  0.8525
15927TIP3    H269273   5.791   4.123  11.022 -2.3251 -1.8362  1.5312
15928TIP3   OH269274   2.564   2.059  12.712  1.1787  0.0933 -0.1465
15928TIP3    H169275   2.492   2.018  12.759  0.2574  1.2232 -0.5276
15928TIP3    H269276   2.634   1.994  12.715  0.6705 -0.4372  1.5236
15929TIP3   OH269277   6.301   5.640  14.810  0.4075 -0.3893 -0.2710
15929TIP3    H169278   6.292   5.590  14.891 -2.0442 -0.2023 -0.3538
15929TIP3    H269279   6.260   5.585  14.743  2.5742 -0.6371 -1.4911
15930TIP3   OH269280   6.174   4.499   1.551 -1.1301 -0.1114 -0.7533
15930TIP3    H169281   6.117   4.504   1.475 -0.4901  0.9214 -1.1849
15930TIP3    H269282   6.255   4.460   1.518 -0.5719  1.0378 -0.7978
15931TIP3   OH269283   4.318   4.816   0.435  0.0682 -0.1387  0.4680
15931TIP3    H169284   4.388   4.880   0.428 -0.6296  0.5128 -1.1431
15931TIP3    H269285   4.261   4.835   0.360  0.6928 -3.6504 -1.1120
15932TIP3   OH269286   4.663   3.775  16.357  0.2430  0.8892 -0.0457
15932TIP3    H169287   4.729   3.727  16.407  1.9530 -0.9386 -3.7422
15932TIP3    H269288   4.589   3.714  16.350  0.2741  0.8781 -0.2863
15933TIP3   OH269289   6.446   4.335  12.824 -0.3656 -1.1167  0.3237
15933TIP3    H169290   6.368   4.392  12.822  0.6743  0.3716 -0.3610
15933TIP3    H269291   6.517   4.393  12.797  0.8504 -2.6522  0.1367
15934TIP3   OH269292   5.860   6.078   4.741 -0.3300  0.4018 -0.5598
15934TIP3    H169293   5.830   5.992   4.713 -0.4009  0.2342  0.0231
15934TIP3    H269294   5.893   6.065   4.830 -1.7724  1.2618  0.1437
15935TIP3   OH269295   3.174   1.413   1.463 -0.4670  0.2903 -0.4419
15935TIP3    H169296   3.189   1.501   1.497 -1.5751 -0.8021  3.3570
15935TIP3    H269297   3.082   1.412   1.436 -0.5870  0.1553 -0.0245
15936TIP3   OH269298   5.571   6.491  14.153  0.3762  0.1833 -0.1300
15936TIP3    H169299   5.558   6.547  14.230 -2.7128 -0.1196 -0.3165
15936TIP3    H269300   5.575   6.552  14.079  0.2428  0.3001 -0.0401
15937TIP3   OH269301   6.179   1.069   4.747 -0.4237  0.2384 -0.1544
15937TIP3    H169302   6.095   1.028   4.728 -0.0674 -0.9807  0.7687
15937TIP3    H269303   6.238   0.996   4.764  0.4492  1.1174  0.7229
15938TIP3   OH269304   5.384   5.340   4.637 -0.3250  0.4067  0.5645
15938TIP3    H169305   5.315   5.274   4.641 -1.0279  0.8778 -2.1302
15938TIP3    H269306   5.466   5.291   4.640 -0.8068 -0.4028  0.6253
15939TIP3   OH269307   0.000   1.649   0.295  0.2255 -0.6628  0.0560
15939TIP3    H169308  -0.087   1.632   0.258  0.4153 -0.1628 -0.6386
15939TIP3    H269309   0.043   1.564   0.295 -0.1750 -0.8694  0.1803
15940TIP3   OH269310   4.358   3.196  11.400  0.3889  0.1603  0.6314
15940TIP3    H169311   4.370   3.169  11.309  1.0462 -0.2589  0.8354
15940TIP3    H269312   4.290   3.263  11.396 -0.4881 -0.7525 -0.0154
15941TIP3   OH269313   4.705   3.290  13.109  0.5626 -0.1128  0.2010
15941TIP3    H169314   4.623   3.244  13.092  0.2382 -0.0200  1.3945
15941TIP3    H269315   4.769   3.220  13.123  0.9999 -0.2017 -1.9149
15942TIP3   OH269316   5.932   2.542  12.982  0.0391  0.1493 -0.7551
15942TIP3    H169317   5.864   2.605  12.957 -1.6830 -1.2332  0.2265
15942TIP3    H269318   5.930   2.541  13.078  0.5172 -0.8950 -0.7416
15943TIP3   OH269319   3.638   2.069   2.399  0.8952  0.6044 -0.1887
15943TIP3    H169320   3.604   2.080   2.310  1.3861 -0.9652 -0.5865
15943TIP3    H269321   3.733   2.066   2.389  1.0615  2.1335  0.6085
15944TIP3   OH269322   6.015   5.661  14.453 -0.6231  0.2122  0.1129
15944TIP3    H169323   6.092   5.717  14.455 -0.6698  0.4854 -2.4465
15944TIP3    H269324   6.050   5.572  14.446 -0.5413  0.2345  0.2413
15945TIP3   OH269325   1.713   6.708   5.701 -0.7763 -0.2353 -0.5657
15945TIP3    H169326   1.774   6.782   5.708 -0.6887 -0.3049 -0.6068
15945TIP3    H269327   1.630   6.749   5.675 -0.6485 -0.1876 -0.8942
15946TIP3   OH269328   3.899   1.925   3.653  0.2398  0.2155 -1.3214
15946TIP3    H169329   3.816   1.971   3.650 -0.1541 -0.2780  0.7098
15946TIP3    H269330   3.876   1.834   3.673  1.2968  0.3837  0.9542
15947TIP3   OH269331   4.166   2.790  16.740 -0.2107  0.1174 -0.3504
15947TIP3    H169332   4.199   2.873  16.774  0.2625  0.2948 -1.2280
15947TIP3    H269333   4.163   2.802  16.645  0.3245 -1.0277 -0.5263
15948TIP3   OH269334   2.842   0.011  16.263 -0.7223 -0.0394  0.0490
15948TIP3    H169335   2.909   0.069  16.227 -0.4202  1.9555  3.3869
15948TIP3    H269336   2.769   0.017  16.202  0.7744  0.6806 -1.7547
15949TIP3   OH269337   4.890   3.415   3.631 -0.2663 -0.2287  0.2509
15949TIP3    H169338   4.809   3.427   3.581  0.5557 -1.1648 -1.3681
15949TIP3    H269339   4.955   3.390   3.566  0.7913 -1.8553  1.8397
15950TIP3   OH269340   5.969   2.826  14.266  0.0725 -0.0573 -0.2140
15950TIP3    H169341   5.980   2.884  14.342 -0.3948 -0.9930  0.5968
15950TIP3    H269342   6.004   2.742  14.296 -0.1333 -0.4402 -1.0397
15951TIP3   OH269343   5.778   6.767  15.130  0.3284  0.4560 -0.6535
15951TIP3    H169344   5.863   6.727  15.149  0.1388  0.2217 -0.2967
15951TIP3    H269345   5.715   6.715  15.179 -0.5547 -2.0098 -3.9815
15952TIP3   OH269346   4.125   0.409   6.093  0.8304 -0.3098  0.6822
15952TIP3    H169347   4.082   0.494   6.086  0.1544 -0.5206  1.9355
15952TIP3    H269348   4.062   0.354   6.140  0.9484 -1.7326 -0.7088
15953TIP3   OH269349   5.281   3.812  12.378 -0.4748  0.1771 -0.1303
15953TIP3    H169350   5.369   3.791  12.408 -1.1413 -1.5850  0.7364
15953TIP3    H269351   5.277   3.908  12.381  2.1417  0.4927 -2.4781
15954TIP3   OH269352   3.142   1.110  13.755  0.2358 -0.3261 -0.2066
15954TIP3    H169353   3.119   1.137  13.844 -2.4750 -1.0411 -0.5883
15954TIP3    H269354   3.062   1.125  13.704  1.3451 -1.0300 -2.2640
15955TIP3   OH269355   1.543   6.537   0.313  0.0633 -0.0368 -0.1449
15955TIP3    H169356   1.631   6.499   0.316  0.0770 -0.1380 -1.3231
15955TIP3    H269357   1.538   6.579   0.227 -1.2488 -0.5444 -0.3378
15956TIP3   OH269358   5.458   2.438   5.595 -0.0731 -0.3247  0.2232
15956TIP3    H169359   5.541   2.401   5.624  0.5586  1.5875  0.9996
15956TIP3    H269360   5.478   2.479   5.511  0.5185  2.4467  1.6026
15957TIP3   OH269361   0.019   3.446   6.335  0.4049  0.1499  0.5221
15957TIP3    H169362   0.055   3.477   6.418  0.4922 -0.7224  0.8267
15957TIP3    H269363  -0.008   3.356   6.353  2.4289 -0.8491 -0.9492
15958TIP3   OH269364   2.268   1.813  15.065 -0.0929 -0.3960  0.4028
15958TIP3    H169365   2.270   1.803  14.970  1.6459 -1.1579  0.4793
15958TIP3    H269366   2.339   1.874  15.085 -2.2913  2.1398  1.0418
15959TIP3   OH269367   0.165   3.146   2.743 -0.0727 -0.1996  0.5299
15959TIP3    H169368   0.082   3.118   2.705  0.9469 -2.4369 -0.1981
15959TIP3    H269369   0.171   3.239   2.721 -2.8130  0.3000  1.5017
15960TIP3   OH269370   0.616   0.201  13.719  0.3200  0.0864  0.4127
15960TIP3    H169371   0.700   0.159  13.738  0.0043 -0.3763  0.8068
15960TIP3    H269372   0.551   0.145  13.763 -0.5065 -1.3081 -2.3392
15961TIP3   OH269373   0.775   6.671   0.106  0.0496  0.0995  0.0817
15961TIP3    H169374   0.824   6.690   0.186 -2.0294  3.2273  0.8204
15961TIP3    H269375   0.704   6.613   0.134  1.2662 -1.6222 -0.2813
15962TIP3   OH269376   5.243   5.547  11.587  0.1585 -0.5462  0.1992
15962TIP3    H169377   5.284   5.465  11.615  2.5640  0.3529 -0.4118
15962TIP3    H269378   5.294   5.575  11.511 -0.3091  1.7121  0.6247
15963TIP3   OH269379   4.567   0.256  16.546 -0.4485 -0.0543  0.1251
15963TIP3    H169380   4.534   0.186  16.489 -1.3980 -0.3052  0.9346
15963TIP3    H269381   4.624   0.211  16.608  1.9368  0.4468 -1.5641
15964TIP3   OH269382   1.092   4.221  13.516  0.7571  0.5187  0.0514
15964TIP3    H169383   1.147   4.235  13.592  2.5577  1.9947 -1.4277
15964TIP3    H269384   1.121   4.137  13.480  0.9888  0.5576  0.1465
15965TIP3   OH269385   0.901   1.737   1.640  0.3970  0.3658  0.5552
15965TIP3    H169386   0.876   1.766   1.728  0.8921  1.5518  0.3272
15965TIP3    H269387   0.948   1.655   1.654  0.0457  0.2908  1.3504
15966TIP3   OH269388   0.812   0.552   5.125 -0.0432 -0.2541 -0.1597
15966TIP3    H169389   0.830   0.564   5.218  0.4420 -2.8634  0.1498
15966TIP3    H269390   0.743   0.616   5.106 -2.2251 -1.5467  2.7147
15967TIP3   OH269391   1.619   3.815   5.898  0.2982  0.1733 -0.0805
15967TIP3    H169392   1.596   3.726   5.926  0.9453 -0.3526 -1.1715
15967TIP3    H269393   1.684   3.802   5.829  0.7100  1.5138  0.0384
15968TIP3   OH269394   6.365   3.536  13.935 -0.2528 -0.0407 -0.0941
15968TIP3    H169395   6.302   3.496  13.874 -0.4255  0.5530 -0.3089
15968TIP3    H269396   6.445   3.544  13.885 -0.5419  0.9237 -0.4107
15969TIP3   OH269397   0.229   4.487  15.105 -0.3372  0.4559 -0.2013
15969TIP3    H169398   0.325   4.483  15.105 -0.2718  0.8525  1.7885
15969TIP3    H269399   0.208   4.572  15.144 -1.4897  0.1688 -0.1503
15970TIP3   OH269400   4.840   5.128   5.686 -0.6517 -0.2627 -0.4076
15970TIP3    H169401   4.746   5.144   5.693 -1.0729 -2.2128 -0.9492
15970TIP3    H269402   4.850   5.035   5.708  1.4097  0.3358  1.5044
15971TIP3   OH269403   2.314   5.844   3.337  0.9876  0.4463 -0.0085
15971TIP3    H169404   2.332   5.920   3.282  0.3918  1.2500  0.8570
15971TIP3    H269405   2.328   5.876   3.427 -0.2099 -0.1831  0.4247
15972TIP3   OH269406   5.746   3.139  12.188 -0.7406 -0.4585  0.4347
15972TIP3    H169407   5.732   3.157  12.095 -0.4525  0.2918  0.5247
15972TIP3    H269408   5.816   3.074  12.190 -0.8623 -0.5992  0.1216
15973TIP3   OH269409   3.235   6.110   5.466 -0.1082  0.1608 -0.6602
15973TIP3    H169410   3.252   6.069   5.381 -0.5936 -1.0695 -0.1906
15973TIP3    H269411   3.201   6.038   5.520  2.1231  0.4124  1.2089
15974TIP3   OH269412   0.011   5.528   3.063 -0.4675 -0.5516  0.2416
15974TIP3    H169413   0.093   5.509   3.017 -1.1841 -0.9984 -0.8967
15974TIP3    H269414   0.025   5.614   3.102  0.7475 -0.8702  0.5502
15975TIP3   OH269415   0.888   5.863   2.713  0.3112  0.0311  0.1906
15975TIP3    H169416   0.817   5.846   2.650 -1.9455  1.1206  2.2397
15975TIP3    H269417   0.941   5.784   2.711 -1.1850 -1.0273 -1.1754
15976TIP3   OH269418   5.330   1.605   0.459 -0.1628 -0.8087 -0.3037
15976TIP3    H169419   5.347   1.526   0.408 -1.1649 -0.7274 -0.7826
15976TIP3    H269420   5.417   1.635   0.487  0.3215 -1.4020 -1.1348
15977TIP3   OH269421   1.563   3.410   1.643  0.2626  0.0440 -0.0252
15977TIP3    H169422   1.499   3.385   1.710  0.0297 -0.1954 -0.3348
15977TIP3    H269423   1.523   3.485   1.598 -1.6239 -2.3598 -2.7541
15978TIP3   OH269424   6.522   3.340   5.649  0.0655  0.4942  0.0981
15978TIP3    H169425   6.547   3.432   5.656 -0.0447  0.4661  1.0020
15978TIP3    H269426   6.440   3.333   5.699  1.3259 -0.5452  2.1578
15979TIP3   OH269427   3.880   3.684  15.442  0.1311  0.0897  0.0912
15979TIP3    H169428   3.792   3.656  15.415  0.5131 -1.1354  0.0390
15979TIP3    H269429   3.932   3.604  15.436  1.2610  0.8179  0.0848
15980TIP3   OH269430   3.219   5.147  11.648  0.2171 -0.4941  0.0620
15980TIP3    H169431   3.174   5.125  11.729 -0.3835  1.4157  0.2962
15980TIP3    H269432   3.312   5.141  11.671  0.0580 -0.6843  0.6893
15981TIP3   OH269433   1.454   1.594   4.566  0.0162  0.2974 -0.0177
15981TIP3    H169434   1.460   1.502   4.591  0.4863  0.2799 -0.1932
15981TIP3    H269435   1.503   1.600   4.484  1.9801  1.1572  1.1562
15982TIP3   OH269436   2.940   2.835   1.048 -0.7737  0.5739  0.4748
15982TIP3    H169437   2.846   2.842   1.064 -0.8766 -0.6489  0.5242
15982TIP3    H269438   2.955   2.741   1.037  0.2296  0.8536 -0.8617
15983TIP3   OH269439   6.729   0.327   1.795 -0.9054  0.0342 -0.4296
15983TIP3    H169440   6.706   0.402   1.850  2.6363  0.3029  0.9557
15983TIP3    H269441   6.791   0.363   1.732 -1.7788 -1.1208 -2.0024
15984TIP3   OH269442   2.483   5.407  12.203 -0.2638 -0.2958  0.0675
15984TIP3    H169443   2.408   5.437  12.150 -0.2423  1.8975  1.1793
15984TIP3    H269444   2.545   5.373  12.139 -1.4573 -0.4979 -1.0362
15985TIP3   OH269445   0.045   0.738  14.730  0.4575  0.2532 -0.3673
15985TIP3    H169446   0.082   0.803  14.671 -0.5585  0.9222 -0.2969
15985TIP3    H269447   0.040   0.658  14.677  3.1221 -0.2321  0.0021
15986TIP3   OH269448   4.360   3.231  14.265  0.1993  0.2260 -0.0671
15986TIP3    H169449   4.425   3.299  14.281 -0.0261  0.5531 -0.5107
15986TIP3    H269450   4.279   3.279  14.248  0.2298 -0.1036 -1.2801
15987TIP3   OH269451   2.980   3.545   0.834  0.3418  0.3717 -0.0749
15987TIP3    H169452   2.897   3.518   0.794 -1.0356 -0.1025  2.8508
15987TIP3    H269453   2.991   3.486   0.909  2.8313  1.0907  0.2167
15988TIP3   OH269454   3.670   1.311  15.672 -0.1921 -0.2822  0.2935
15988TIP3    H169455   3.691   1.246  15.739 -1.2418  0.0214  0.9463
15988TIP3    H269456   3.698   1.395  15.709 -0.2746 -0.1789  0.1273
15989TIP3   OH269457   5.225   4.883   0.109  0.2915  0.2635  0.1043
15989TIP3    H169458   5.157   4.888   0.042 -0.4886 -0.1654  0.8529
15989TIP3    H269459   5.178   4.887   0.192  1.3325  2.0479  0.6595
15990TIP3   OH269460   1.254   1.355  15.744  0.1266 -0.5660 -0.2038
15990TIP3    H169461   1.183   1.366  15.681  0.1299  1.3255  0.0755
15990TIP3    H269462   1.248   1.432  15.801  2.3138 -0.4303 -0.0930
15991TIP3   OH269463   5.130   4.871  11.159  0.1682 -0.1427 -0.0577
15991TIP3    H169464   5.124   4.787  11.205 -1.1175 -0.5154 -0.8308
15991TIP3    H269465   5.224   4.887  11.149  0.5074  0.0859  2.8504
15992TIP3   OH269466   6.588   5.332  15.053  0.0987 -0.7318  0.1980
15992TIP3    H169467   6.655   5.263  15.057  0.7807 -0.1953 -1.3178
15992TIP3    H269468   6.637   5.411  15.031 -0.6846  0.2794  1.8970
15993TIP3   OH269469   0.600   0.999  11.524  0.4492  0.4879  0.6064
15993TIP3    H169470   0.618   0.955  11.607  1.1054 -0.2775  0.0763
15993TIP3    H269471   0.520   1.048  11.540  0.2313 -0.1344  1.5127
15994TIP3   OH269472   0.118   5.191  15.679  0.1372  0.3195 -0.6113
15994TIP3    H169473   0.083   5.276  15.706 -0.6142 -0.4924  1.1771
15994TIP3    H269474   0.050   5.128  15.706  0.4154 -0.8166 -2.4109
15995TIP3   OH269475   5.704   1.148   5.200  0.3604 -0.2212  0.4146
15995TIP3    H169476   5.712   1.240   5.228  3.2397  0.6446 -2.5794
15995TIP3    H269477   5.682   1.153   5.107  1.6705 -2.5045 -0.0949
15996TIP3   OH269478   2.298   6.678  13.442  0.0550  1.0012 -0.2719
15996TIP3    H169479   2.376   6.672  13.497  0.1607  0.9415 -0.4299
15996TIP3    H269480   2.324   6.641  13.358 -1.1157 -2.2409  0.6674
15997TIP3   OH269481   2.981   6.070   4.136  0.1673 -0.2351  0.3184
15997TIP3    H169482   2.936   6.016   4.072  1.3152 -1.3279  0.3943
15997TIP3    H269483   2.990   6.014   4.213 -0.7683  0.8981  1.2814
15998TIP3   OH269484   2.564   6.850   1.734  0.6345  0.3392 -0.3167
15998TIP3    H169485   2.617   6.784   1.780  1.0510  0.8335 -0.0754
15998TIP3    H269486   2.522   6.899   1.804 -2.2438 -1.6500 -0.4759
15999TIP3   OH269487   0.537   1.198   4.053 -0.4457  0.0315  0.0195
15999TIP3    H169488   0.631   1.210   4.064 -0.5099  0.8771 -0.3051
15999TIP3    H269489   0.527   1.106   4.030  0.2166 -0.3052  0.9934
16000TIP3   OH269490   2.554   6.111  12.957 -0.5507 -0.6053  0.2289
16000TIP3    H169491   2.521   6.184  12.906 -0.3212 -0.9259 -0.3849
16000TIP3    H269492   2.616   6.150  13.018 -1.4620 -0.1076  0.8605
16001TIP3   OH269493   5.747   6.540   6.481  0.1096  0.0110  0.3974
16001TIP3    H169494   5.728   6.452   6.515 -0.2841 -0.2307 -0.4128
16001TIP3    H269495   5.827   6.529   6.430  0.5151  0.3049  0.9564
16002TIP3   OH269496   0.973   2.029  13.752 -0.6303  0.0036 -0.0326
16002TIP3    H169497   1.020   2.027  13.668  3.9078  0.0348  2.2327
16002TIP3    H269498   0.915   1.953  13.749 -1.1551  0.3588 -3.3396
16003TIP3   OH269499   6.681   2.777   5.884  0.4162  0.2058 -0.3334
16003TIP3    H169500   6.724   2.811   5.805  2.6802 -1.0385  0.2884
16003TIP3    H269501   6.599   2.740   5.852 -0.0940  2.2636 -1.6469
16004TIP3   OH269502   2.475   0.643  16.899  0.3541  0.2269 -0.0007
16004TIP3    H169503   2.565   0.638  16.932  0.0347 -0.3043  0.8062
16004TIP3    H269504   2.425   0.683  16.970 -0.3275 -0.8835  0.1705
16005TIP3   OH269505   5.410   1.698   2.911 -0.1445  0.4621 -0.2089
16005TIP3    H169506   5.349   1.689   2.984 -0.9187  0.5217 -0.8346
16005TIP3    H269507   5.357   1.733   2.840  0.3345 -0.6472 -1.1415
16006TIP3   OH269508   1.282   1.962   5.138 -0.1355 -0.4918 -0.1176
16006TIP3    H169509   1.287   1.892   5.203  0.1680  0.7544  1.2430
16006TIP3    H269510   1.191   1.992   5.141  0.3205  0.8622  1.1812
16007TIP3   OH269511   6.493   4.076  16.401  0.7744 -0.8368  0.1224
16007TIP3    H169512   6.509   4.049  16.311  2.1853  0.2270  0.0311
16007TIP3    H269513   6.407   4.118  16.399  1.6434  0.9994 -1.1729
16008TIP3   OH269514   2.846   3.583   1.248  0.0468 -0.1516  0.0582
16008TIP3    H169515   2.804   3.621   1.326  2.3308  0.1034  1.2380
16008TIP3    H269516   2.832   3.489   1.256 -1.4306  0.0116 -0.3080
16009TIP3   OH269517   1.102   6.611  14.463 -0.7857  0.0396  0.1399
16009TIP3    H169518   1.042   6.641  14.395 -2.6143 -0.3113  1.5010
16009TIP3    H269519   1.139   6.692  14.499 -0.9026  0.3055 -0.3320
16010TIP3   OH269520   2.481   0.376  12.155  0.2093 -0.4938  0.3543
16010TIP3    H169521   2.532   0.446  12.195  0.2394 -0.7778  0.8213
16010TIP3    H269522   2.442   0.415  12.077 -0.2495  0.2049  0.9247
16011TIP3   OH269523   1.305   5.363   4.023 -1.2518  0.2579  0.0622
16011TIP3    H169524   1.304   5.458   4.014  1.5869  0.7971  3.2706
16011TIP3    H269525   1.302   5.330   3.933  2.6905  3.6481 -1.6137
16012TIP3   OH269526   1.908   5.838  12.242  0.5132 -0.1353  0.1793
16012TIP3    H169527   1.950   5.905  12.187  1.7870 -0.9991  0.0540
16012TIP3    H269528   1.978   5.808  12.300  0.0564 -1.5725  0.0130
16013TIP3   OH269529   6.088   3.703  15.334 -0.1169  0.2893 -0.5185
16013TIP3    H169530   6.096   3.612  15.306 -0.0779 -0.4430  1.6717
16013TIP3    H269531   6.014   3.737  15.284 -1.8459 -1.7616  0.4894
16014TIP3   OH269532   4.231   1.831  11.712 -0.5973  0.2062 -0.5638
16014TIP3    H169533   4.304   1.859  11.657  0.4197 -0.9122  0.1912
16014TIP3    H269534   4.207   1.910  11.762  0.0796  0.5830 -0.8274
16015TIP3   OH269535   0.535   3.609  12.913  0.3783 -0.4248 -0.5879
16015TIP3    H169536   0.487   3.692  12.908 -0.8357 -1.1137 -0.6039
16015TIP3    H269537   0.612   3.623  12.859 -0.1451  0.4811 -1.1178
16016TIP3   OH269538   1.256   3.329   4.852 -0.3958 -0.5022 -0.0863
16016TIP3    H169539   1.301   3.271   4.790  1.6877  0.1488  0.7339
16016TIP3    H269540   1.179   3.280   4.880  0.6513 -2.3715 -0.3541
16017TIP3   OH269541   1.127   4.175   6.271  0.1450  0.0157  0.3215
16017TIP3    H169542   1.191   4.140   6.333 -0.2824 -1.4028 -0.0160
16017TIP3    H269543   1.118   4.108   6.205  1.4498  1.9594 -1.9923
16018TIP3   OH269544   2.141   0.469  14.408 -0.2235 -0.2169  0.5803
16018TIP3    H169545   2.100   0.409  14.471 -0.7925  0.9591  1.3575
16018TIP3    H269546   2.222   0.424  14.382 -0.7068 -1.3879  1.0272
16019TIP3   OH269547   1.600   0.548   0.252 -0.3072  0.5923 -0.2591
16019TIP3    H169548   1.572   0.639   0.243 -0.0332  0.8505  1.2317
16019TIP3    H269549   1.525   0.503   0.291  0.1868  0.6118  0.7686
16020TIP3   OH269550   0.750   3.259   9.886  0.1957 -0.0629 -0.7384
16020TIP3    H169551   0.836   3.253   9.928  0.3422 -0.2680 -1.0641
16020TIP3    H269552   0.764   3.319   9.813 -0.1040  0.4438 -0.3849
16021TIP3   OH269553   1.826   1.252  15.450 -0.3252  0.7959  0.0848
16021TIP3    H169554   1.795   1.300  15.527  0.3875  0.6584  0.4611
16021TIP3    H269555   1.814   1.313  15.378  0.6744  1.6044  0.5721
16022TIP3   OH269556   3.680   5.046  14.658  0.4626 -0.0584 -0.1449
16022TIP3    H169557   3.662   5.029  14.565  1.0028 -0.7427 -0.1329
16022TIP3    H269558   3.622   4.987  14.705 -0.0633  0.5399 -0.0347
16023TIP3   OH269559   5.629   3.217   5.695  0.2830 -0.3996  0.3341
16023TIP3    H169560   5.570   3.289   5.674  2.4803  1.9573  1.6311
16023TIP3    H269561   5.699   3.223   5.630  1.0252 -0.6984  1.0902
16024TIP3   OH269562   4.689   5.326  12.128 -0.6885 -0.0468 -0.7180
16024TIP3    H169563   4.623   5.260  12.151 -3.4190  2.0961 -1.7662
16024TIP3    H269564   4.738   5.287  12.056 -1.5788 -1.3019 -0.6904
16025TIP3   OH269565   1.551   5.441   2.549  0.5957  0.3545 -0.2803
16025TIP3    H169566   1.585   5.510   2.607 -2.0487  0.8662  0.8023
16025TIP3    H269567   1.581   5.359   2.589  0.3969  0.7709  0.7389
16026TIP3   OH269568   5.564   6.382   0.621 -0.0808 -0.3682  0.5306
16026TIP3    H169569   5.558   6.287   0.633  1.1360 -0.5420 -0.1232
16026TIP3    H269570   5.477   6.414   0.645 -0.2988 -1.5604  1.4571
16027TIP3   OH269571   2.049   3.123  15.319  0.2674 -0.9514  0.1096
16027TIP3    H169572   2.143   3.125  15.337  0.2136 -0.3527  0.3450
16027TIP3    H269573   2.040   3.167  15.235  0.0450  0.4614  0.8394
16028TIP3   OH269574   1.345   2.515   2.267 -0.1219  0.0434  0.5220
16028TIP3    H169575   1.357   2.471   2.351  2.9162  2.6157  1.6717
16028TIP3    H269576   1.375   2.604   2.282  1.8381  0.3398 -3.5747
16029TIP3   OH269577   3.498   6.554   5.033  0.1681 -0.2781  0.6055
16029TIP3    H169578   3.540   6.638   5.051  0.5371 -0.0378 -1.1470
16029TIP3    H269579   3.494   6.550   4.937 -0.4273 -1.9763  0.6710
16030TIP3   OH269580   0.498   2.150  11.523 -0.6635 -0.1599 -0.0448
16030TIP3    H169581   0.461   2.232  11.556  0.3682  0.0968  0.5190
16030TIP3    H269582   0.432   2.117  11.462 -0.7365  1.5049 -0.9157
16031TIP3   OH269583   4.692   6.516   6.045 -0.1996  0.4527 -0.5464
16031TIP3    H169584   4.757   6.457   6.007  0.2549 -0.3074  1.2650
16031TIP3    H269585   4.622   6.458   6.076 -0.2380  0.9514  0.3390
16032TIP3   OH269586   1.062   5.733  13.925  0.2406  0.2816 -0.3736
16032TIP3    H169587   1.154   5.709  13.920  0.4605  1.2330 -1.0746
16032TIP3    H269588   1.015   5.655  13.893  0.8002 -0.1285 -0.2080
16033TIP3   OH269589   5.396   5.344   2.046  0.2057 -0.6748 -0.5104
16033TIP3    H169590   5.475   5.314   2.001  1.8898  0.6456  1.4226
16033TIP3    H269591   5.372   5.425   2.001  1.6700  0.4419  0.6044
16034TIP3   OH269592   0.946   2.015   3.102  0.5601  0.4104 -0.1953
16034TIP3    H169593   0.911   2.097   3.068 -1.0817 -0.2300 -0.1603
16034TIP3    H269594   0.882   1.949   3.075  2.5716 -1.1172 -1.4904
16035TIP3   OH269595   4.985   3.861  11.608 -0.4914  0.0734 -0.0713
16035TIP3    H169596   4.893   3.880  11.622 -0.2340 -0.0256  2.3199
16035TIP3    H269597   5.029   3.946  11.615 -0.3590  0.0476 -0.5988
16036TIP3   OH269598   2.859   6.197   5.648 -0.3535  0.2588 -0.2474
16036TIP3    H169599   2.814   6.117   5.676  1.0201 -0.7255 -0.7188
16036TIP3    H269600   2.826   6.214   5.560 -1.9513  1.2446  0.5152
16037TIP3   OH269601   0.747   2.616  11.136  0.3872  0.1484  0.0134
16037TIP3    H169602   0.704   2.587  11.216  1.1159 -0.3572  0.2290
16037TIP3    H269603   0.796   2.694  11.161  0.8074 -0.1479  0.1167
16038TIP3   OH269604   0.986   0.956  11.275 -0.1639  0.0675 -0.3241
16038TIP3    H169605   0.935   1.037  11.272 -2.5933 -1.3576 -0.3529
16038TIP3    H269606   1.006   0.936  11.183  1.2651  1.0617 -0.2592
16039TIP3   OH269607   3.615   5.094   0.538 -0.7125  0.0878 -0.2059
16039TIP3    H169608   3.689   5.048   0.578 -2.2041 -0.4659  2.0602
16039TIP3    H269609   3.627   5.185   0.562 -0.4007  0.1114 -0.4468
16040TIP3   OH269610   5.091   6.544  10.505 -0.3031 -0.5346  0.4951
16040TIP3    H169611   5.173   6.497  10.525  0.5252  1.5107  2.2714
16040TIP3    H269612   5.111   6.592  10.424  0.0461 -0.5586  0.5626
16041TIP3   OH269613   3.183   3.469   2.690 -0.6543  0.1821  0.3148
16041TIP3    H169614   3.262   3.497   2.644 -0.5552  0.9094  0.9177
16041TIP3    H269615   3.142   3.550   2.720  0.2188 -0.2755  3.0603
16042TIP3   OH269616   1.313   0.591  15.432 -0.0498  0.2311 -0.7492
16042TIP3    H169617   1.313   0.560  15.342 -2.8798 -1.4707 -0.2545
16042TIP3    H269618   1.350   0.680  15.426 -1.6770  0.8359 -3.8390
16043TIP3   OH269619   1.514   6.154   0.184  0.1778 -0.1593 -0.0101
16043TIP3    H169620   1.459   6.211   0.130  1.0547  0.8615  0.1240
16043TIP3    H269621   1.528   6.076   0.131 -0.5155  0.0339 -0.4841
16044TIP3   OH269622   1.399   4.318  14.972  0.0052 -0.6013 -0.2381
16044TIP3    H169623   1.309   4.293  14.992  0.4641 -2.9206 -0.8033
16044TIP3    H269624   1.392   4.378  14.898 -1.1236  0.8017  0.9187
16045TIP3   OH269625   1.671   1.398   4.727  0.0730  0.8047  0.3064
16045TIP3    H169626   1.729   1.338   4.679 -2.6925 -1.5870 -0.3534
16045TIP3    H269627   1.664   1.360   4.814 -1.2043  0.4904  0.0833
16046TIP3   OH269628   4.925   4.309   2.027 -0.3776 -0.4985  0.1073
16046TIP3    H169629   5.008   4.357   2.026 -0.2818 -0.5397  2.2643
16046TIP3    H269630   4.946   4.226   2.070 -0.9700 -1.7161 -1.8394
16047TIP3   OH269631   0.608   4.801  11.993 -0.1750 -0.2628  0.4090
16047TIP3    H169632   0.592   4.815  11.900  2.3363 -0.9733 -0.2150
16047TIP3    H269633   0.682   4.858  12.014  0.3600 -1.3164  1.5331
16048TIP3   OH269634   5.310   6.503   4.718 -0.1921 -0.3794  0.5297
16048TIP3    H169635   5.394   6.460   4.731  0.2947  0.3542 -0.1295
16048TIP3    H269636   5.304   6.568   4.788 -0.2791 -0.5289  0.6619
16049TIP3   OH269637   0.335   1.861  10.913 -0.1001 -0.4480  0.3020
16049TIP3    H169638   0.387   1.818  10.981 -0.0985 -1.1086 -0.1136
16049TIP3    H269639   0.387   1.938  10.889 -0.4868  0.2581  1.6205
16050TIP3   OH269640   3.861   0.108  15.665 -0.0707  0.0291 -0.1058
16050TIP3    H169641   3.802   0.034  15.655  0.5463 -0.4419 -0.3878
16050TIP3    H269642   3.817   0.168  15.725 -0.5587 -0.5858  0.1510
16051TIP3   OH269643   4.404   0.445  15.343  0.1325  0.2168 -0.3970
16051TIP3    H169644   4.370   0.508  15.280  0.1478  0.4624 -0.1571
16051TIP3    H269645   4.460   0.387  15.290 -0.5029 -0.0797 -0.7627
16052TIP3   OH269646   5.544   1.718  14.378 -0.5375  0.1154  0.1554
16052TIP3    H169647   5.532   1.785  14.311 -1.3087 -0.6189 -0.4744
16052TIP3    H269648   5.527   1.762  14.461  1.2873  1.2575 -0.0278
16053TIP3   OH269649   5.994   4.506   4.467  0.7149 -0.6999  0.5899
16053TIP3    H169650   6.048   4.500   4.388 -0.1500 -0.0089 -0.0773
16053TIP3    H269651   6.055   4.532   4.536  1.2306  0.1649 -0.1614
16054TIP3   OH269652   0.322   2.084   5.212 -0.5878  0.1653 -0.2789
16054TIP3    H169653   0.260   2.022   5.174 -1.0215  0.8598 -0.7295
16054TIP3    H269654   0.378   2.111   5.139  0.1969 -0.3767  0.1013
16055TIP3   OH269655   5.717   5.123   5.628  0.0674  0.8048 -0.4595
16055TIP3    H169656   5.652   5.086   5.568 -0.8596 -0.7249  1.3908
16055TIP3    H269657   5.768   5.184   5.574  1.8822 -3.2297 -3.8781
16056TIP3   OH269658   4.713   0.192   1.235  0.4594  0.5577 -0.5851
16056TIP3    H169659   4.704   0.111   1.285 -1.4256  0.6132 -0.7483
16056TIP3    H269660   4.795   0.230   1.265  0.9601 -0.9903  0.1059
16057TIP3   OH269661   2.754   3.384   0.353  0.5176 -0.3505  0.3673
16057TIP3    H169662   2.739   3.451   0.287  0.9157 -0.9196 -0.3210
16057TIP3    H269663   2.849   3.377   0.360  0.5376  1.0759  2.4564
16058TIP3   OH269664   5.326   3.954  14.616  0.4053 -0.1611  0.6552
16058TIP3    H169665   5.416   3.937  14.643  0.6592 -0.0461 -0.0939
16058TIP3    H269666   5.325   4.048  14.596  0.3858 -0.3430 -0.2733
16059TIP3   OH269667   3.780   3.869   4.352 -0.0792  0.8468 -0.2921
16059TIP3    H169668   3.823   3.911   4.427 -0.0780  1.2308 -0.5064
16059TIP3    H269669   3.748   3.786   4.386  0.3223  0.8169  0.0208
16060TIP3   OH269670   4.981   1.864   5.198 -0.2646 -0.4769  0.1344
16060TIP3    H169671   4.946   1.931   5.139  1.5220  1.4635  1.1454
16060TIP3    H269672   4.999   1.789   5.141 -1.8739  0.0137 -1.1165
16061TIP3   OH269673   1.893   1.500   0.773  0.2641 -0.3411 -0.6439
16061TIP3    H169674   1.980   1.474   0.742  0.7734 -0.7934  1.0497
16061TIP3    H269675   1.898   1.490   0.868 -1.0693  1.4202 -0.3513
16062TIP3   OH269676   0.076   5.800   3.162  0.4057  0.1550 -0.2694
16062TIP3    H169677   0.054   5.876   3.108  1.0777  1.4147  1.1410
16062TIP3    H269678   0.170   5.789   3.151  0.3699 -0.2570 -0.1886
16063TIP3   OH269679   0.111   5.910   0.082 -0.5372  0.1491  0.5268
16063TIP3    H169680   0.164   5.938   0.007 -0.9407 -3.5192 -1.3920
16063TIP3    H269681   0.023   5.899   0.045 -1.3160  0.5610  2.1881
16064TIP3   OH269682   3.193   4.548   3.935  0.6832  0.1089  0.6947
16064TIP3    H169683   3.256   4.611   3.899  0.5628  0.4440  1.0622
16064TIP3    H269684   3.116   4.601   3.956 -0.9442 -0.7154 -2.5465
16065TIP3   OH269685   5.595   5.989   5.021  0.0983  0.0443 -0.0704
16065TIP3    H169686   5.654   6.061   5.044 -1.3167  0.7299  1.7127
16065TIP3    H269687   5.562   6.011   4.934 -0.3479  1.6286  0.4596
16066TIP3   OH269688   5.698   0.872   3.161 -0.0375  0.2771 -0.4709
16066TIP3    H169689   5.703   0.819   3.240 -1.7263 -0.0214 -0.5148
16066TIP3    H269690   5.614   0.918   3.168  0.4553  1.3723 -1.4014
16067TIP3   OH269691   5.747   0.098  16.175 -0.0423  0.0933  0.1713
16067TIP3    H169692   5.724   0.158  16.105 -0.7608  1.1861  1.3118
16067TIP3    H269693   5.777   0.154  16.246  0.1916 -0.9629  0.9329
16068TIP3   OH269694   0.755   1.351  15.523  0.0087 -0.2028 -0.1342
16068TIP3    H169695   0.677   1.297  15.538  0.1228 -0.4043 -0.2582
16068TIP3    H269696   0.720   1.438  15.504 -0.1771 -0.2365  0.0543
16069TIP3   OH269697   3.810   0.941  12.747  0.2298 -0.1662  1.1006
16069TIP3    H169698   3.742   0.987  12.698 -0.0818 -0.9836  0.7439
16069TIP3    H269699   3.884   1.002  12.748 -0.0233  0.1741  0.2845
16070TIP3   OH269700   0.223   4.823   1.759  0.6672 -0.1383  0.6320
16070TIP3    H169701   0.176   4.900   1.727 -1.8015 -1.4621  0.8637
16070TIP3    H269702   0.295   4.812   1.696  0.1869  1.4623 -0.2624
16071TIP3   OH269703   0.310   4.289  14.406 -0.0968 -0.0144  0.1245
16071TIP3    H169704   0.323   4.217  14.343 -0.1447  0.9391 -0.9999
16071TIP3    H269705   0.222   4.275  14.441 -0.2242 -0.3351 -0.3144
16072TIP3   OH269706   0.674   0.921  16.333  0.0490 -1.2034 -0.0744
16072TIP3    H169707   0.593   0.972  16.337 -0.3270 -1.8239  0.2565
16072TIP3    H269708   0.734   0.976  16.281 -0.5201 -0.6672 -0.1765
16073TIP3   OH269709   1.493   2.760   2.982 -0.0248  0.4233 -0.5125
16073TIP3    H169710   1.549   2.719   3.049 -2.0282  1.8254  2.2161
16073TIP3    H269711   1.543   2.836   2.953  0.1256  0.8545  0.8183
16074TIP3   OH269712   1.847   5.864   1.850  0.3017  0.1394 -0.4151
16074TIP3    H169713   1.865   5.829   1.937  2.1528 -0.4058 -0.9615
16074TIP3    H269714   1.934   5.883   1.814 -0.5129  2.4473 -1.3267
16075TIP3   OH269715   4.978   5.469   1.155 -0.5838 -0.6908 -0.7403
16075TIP3    H169716   4.884   5.474   1.169 -0.2226  0.2437  2.1106
16075TIP3    H269717   5.010   5.414   1.227  1.3800  2.5864  1.1582
16076TIP3   OH269718   2.190   5.309   3.181  0.1780 -0.1811 -0.3863
16076TIP3    H169719   2.099   5.287   3.163 -0.3769 -0.3376  2.2992
16076TIP3    H269720   2.228   5.228   3.214  0.4373  0.6032  1.3632
16077TIP3   OH269721   2.779   5.935   5.748 -0.0246 -0.1521  0.0986
16077TIP3    H169722   2.755   5.845   5.723  0.5187 -0.6525  1.3166
16077TIP3    H269723   2.746   5.944   5.837  1.3487  0.2981  0.5752
16078TIP3   OH269724   5.735   1.670   2.624  0.6430 -0.4346  0.3136
16078TIP3    H169725   5.648   1.708   2.635  0.5646 -0.6606  0.4781
16078TIP3    H269726   5.732   1.589   2.674  0.2849 -1.4667 -1.2864
16079TIP3   OH269727   0.024   2.105   3.984 -0.1412  0.4351  0.4968
16079TIP3    H169728  -0.009   2.031   4.034 -0.4553  0.6399  0.5957
16079TIP3    H269729   0.096   2.140   4.036  2.2186 -1.7867 -1.0725
16080TIP3   OH269730   5.391   0.734  14.620  0.5688  0.0777 -0.7318
16080TIP3    H169731   5.409   0.794  14.692  0.4381  1.0858 -1.5130
16080TIP3    H269732   5.428   0.777  14.543 -2.9956  1.2214 -2.0462
16081TIP3   OH269733   5.316   3.119   3.398  0.3040  0.3916  0.4055
16081TIP3    H169734   5.388   3.086   3.345  0.0356  2.5499 -1.4529
16081TIP3    H269735   5.273   3.040   3.432  2.0199 -0.9950 -0.4868
16082TIP3   OH269736   3.688   6.771  15.627  0.0555  0.2481  0.4808
16082TIP3    H169737   3.595   6.786  15.644 -0.6329  0.1483 -2.5622
16082TIP3    H269738   3.693   6.761  15.532  2.8983 -1.7865  0.7245
16083TIP3   OH269739   6.149   4.190   2.609 -0.6487 -0.2855 -0.3836
16083TIP3    H169740   6.132   4.204   2.516  2.1212 -2.2507 -1.3005
16083TIP3    H269741   6.211   4.259   2.633 -2.4746  1.1496  0.5050
16084TIP3   OH269742   1.657   0.476   3.205  0.5349  0.1712  0.3021
16084TIP3    H169743   1.593   0.406   3.201  0.9291 -0.2365  0.8871
16084TIP3    H269744   1.735   0.440   3.162 -0.5019  1.7197 -3.2248
16085TIP3   OH269745   2.938   4.033  15.589 -0.3631  0.7351  0.0142
16085TIP3    H169746   2.996   4.104  15.562  2.6764 -1.4551  0.2413
16085TIP3    H269747   2.980   3.995  15.666 -1.1740 -1.9760 -0.7493
16086TIP3   OH269748   3.695   0.317  12.530 -0.5066 -0.4211  0.3695
16086TIP3    H169749   3.609   0.284  12.503  0.5293 -4.3589  1.1137
16086TIP3    H269750   3.755   0.244  12.511  2.3607  1.4279  1.6123
16087TIP3   OH269751   4.753   6.781  14.089 -0.2338 -0.2732 -0.1476
16087TIP3    H169752   4.828   6.755  14.142  0.3129  1.1164 -0.1711
16087TIP3    H269753   4.677   6.749  14.136  0.3656 -1.7081 -0.1139
16088TIP3   OH269754   3.465   0.904   2.258 -0.2310 -0.8124 -0.0486
16088TIP3    H169755   3.406   0.877   2.188 -1.0954 -0.8536  0.6813
16088TIP3    H269756   3.422   0.979   2.298  1.3284  0.6626 -0.9695
16089TIP3   OH269757   5.730   1.067   4.542 -0.0140  0.7612  0.1672
16089TIP3    H169758   5.727   0.987   4.490 -2.3416  0.4547  0.6933
16089TIP3    H269759   5.737   1.138   4.478  0.2715  0.2488 -0.3801
16090TIP3   OH269760   3.512   1.428  11.698  0.1772 -0.3248  0.0087
16090TIP3    H169761   3.488   1.511  11.739  0.3249 -1.1732  1.8806
16090TIP3    H269762   3.555   1.378  11.767 -0.3771 -2.1748 -0.9162
16091TIP3   OH269763   3.285   5.839   3.238 -0.1011 -1.1624 -0.0796
16091TIP3    H169764   3.325   5.894   3.170 -1.2024 -1.5500 -1.0747
16091TIP3    H269765   3.192   5.839   3.218 -0.3904 -1.7048  1.1488
16092TIP3   OH269766   5.039   5.264   1.333 -0.2142 -0.2870 -0.6186
16092TIP3    H169767   5.122   5.243   1.290 -0.4849 -2.0581 -0.3329
16092TIP3    H269768   4.988   5.183   1.327 -0.3999 -0.5260  2.7651
16093TIP3   OH269769   6.428   0.739  12.823  0.0243  0.3438  0.1099
16093TIP3    H169770   6.462   0.795  12.753  2.1299 -1.0959 -0.0923
16093TIP3    H269771   6.466   0.653  12.806 -0.5656 -0.3967  2.2297
16094TIP3   OH269772   6.432   0.683  11.732 -0.3327  0.0557  0.5470
16094TIP3    H169773   6.382   0.697  11.812 -0.8299  0.8371  0.1097
16094TIP3    H269774   6.412   0.593  11.707 -2.5013  0.7185 -0.2723
16095TIP3   OH269775   1.777   0.199  14.618  0.5900 -0.4073 -0.3524
16095TIP3    H169776   1.848   0.241  14.571  0.4279 -0.1887 -0.4049
16095TIP3    H269777   1.707   0.264  14.620 -0.0627 -1.0412 -1.3707
16096TIP3   OH269778   0.580   1.556  15.192 -0.3024 -0.3027 -0.6131
16096TIP3    H169779   0.518   1.544  15.120 -1.7223 -0.1041  0.5363
16096TIP3    H269780   0.525   1.579  15.267  1.0308 -1.6363  0.8223
16097TIP3   OH269781   5.893   3.021   6.295  0.9907  0.2285  0.0951
16097TIP3    H169782   5.911   2.980   6.379  0.3805  0.5111  0.3691
16097TIP3    H269783   5.799   3.036   6.295  1.3192  2.6318  0.4801
16098TIP3   OH269784   4.173   5.757   4.465 -0.8551  0.1059 -0.0968
16098TIP3    H169785   4.154   5.776   4.557  0.8080 -0.8036  0.4631
16098TIP3    H269786   4.129   5.828   4.417 -0.1526  1.7006  1.5153
16099TIP3   OH269787   2.555   2.994   0.369  0.3770 -0.3620  1.1978
16099TIP3    H169788   2.501   2.971   0.445  0.2150  0.0985  1.2231
16099TIP3    H269789   2.529   3.083   0.347  1.4850  0.0634  1.5262
16100TIP3   OH269790   1.754   1.368  15.688 -0.8123 -0.0007 -0.1943
16100TIP3    H169791   1.761   1.392  15.781  0.5012  1.4019 -0.6190
16100TIP3    H269792   1.660   1.364  15.671 -1.0683  0.1439  1.0876
16101TIP3   OH269793   3.821   0.908  16.434  0.5390 -0.1694  0.2062
16101TIP3    H169794   3.828   0.977  16.368 -3.3420  0.8767  0.6449
16101TIP3    H269795   3.778   0.836  16.389  1.2729 -0.9392  0.6993
16102TIP3   OH269796   3.379   6.221   6.543  0.2892 -0.1325 -0.7044
16102TIP3    H169797   3.371   6.264   6.628  1.4987  1.4287 -1.3301
16102TIP3    H269798   3.290   6.220   6.508 -0.0403  0.2475  0.0949
16103TIP3   OH269799   3.457   1.942  14.956  0.1223  0.8418  0.1556
16103TIP3    H169800   3.389   1.875  14.953 -0.7798  1.7452  0.0774
16103TIP3    H269801   3.507   1.929  14.876  1.6721 -1.4567  1.3766
16104TIP3   OH269802   4.492   5.519  14.197 -0.0457 -0.0209  0.1618
16104TIP3    H169803   4.526   5.557  14.278  0.9854  1.8993 -1.1099
16104TIP3    H269804   4.397   5.530  14.204 -0.1979 -1.7955  1.9747
16105TIP3   OH269805   0.281   4.096   3.626 -0.3485 -0.0819 -0.3712
16105TIP3    H169806   0.200   4.096   3.677 -1.7098  1.3068 -2.4029
16105TIP3    H269807   0.311   4.187   3.626 -0.2491 -0.0817 -1.7825
16106TIP3   OH269808   1.724   4.424   1.921  0.2573 -0.0111 -0.6650
16106TIP3    H169809   1.720   4.370   2.000 -0.2623 -1.2690 -1.5260
16106TIP3    H269810   1.695   4.367   1.850  1.9686  0.6593 -2.0015
16107TIP3   OH269811   3.320   3.393  11.189  0.1356 -0.1387 -0.5542
16107TIP3    H169812   3.356   3.383  11.277 -1.8218  0.0855  0.3308
16107TIP3    H269813   3.281   3.307  11.170  1.2856 -0.4638 -1.6012
16108TIP3   OH269814   5.326   2.182   5.404 -0.2998  0.3406 -0.0520
16108TIP3    H169815   5.283   2.100   5.379 -1.1776  0.3560  1.2868
16108TIP3    H269816   5.258   2.231   5.450 -0.1557  2.3637 -1.8529
16109TIP3   OH269817   2.234   5.744   4.321  0.3730 -0.7599  0.6383
16109TIP3    H169818   2.265   5.663   4.361  1.6675 -0.3729  0.4581
16109TIP3    H269819   2.212   5.801   4.395  0.2782 -0.9612  0.7670
16110TIP3   OH269820   2.635   3.614   3.149  0.1420  0.0721  0.0137
16110TIP3    H169821   2.599   3.583   3.066  1.5718 -0.5268 -0.4220
16110TIP3    H269822   2.579   3.577   3.216 -1.5893  1.3013 -0.6812
16111TIP3   OH269823   0.376   6.700  13.603  0.2916 -0.2815  0.5694
16111TIP3    H169824   0.344   6.628  13.549 -0.2829 -0.8673  1.6566
16111TIP3    H269825   0.298   6.749  13.627  0.2341 -1.2629  2.5913
16112TIP3   OH269826   5.989   0.009   1.017  0.2236 -0.6723 -0.1293
16112TIP3    H169827   6.029  -0.011   1.102  0.0742 -1.9658 -0.3493
16112TIP3    H269828   6.028  -0.054   0.957 -1.0953 -1.0143 -0.6447
16113TIP3   OH269829   1.375   4.688  12.931  0.5507  0.1610  0.3957
16113TIP3    H169830   1.370   4.674  13.026 -0.2560 -1.4133  0.1460
16113TIP3    H269831   1.468   4.706  12.914  1.0465 -1.4274  1.2482
16114TIP3   OH269832   3.453   5.298  16.930  0.3475  0.0843 -0.6708
16114TIP3    H169833   3.406   5.261  16.855  1.4981 -0.6522 -1.0448
16114TIP3    H269834   3.401   5.270  17.006  2.0872 -4.0506 -0.7331
16115TIP3   OH269835   3.998   0.177  11.256 -0.2318 -0.2237  0.1351
16115TIP3    H169836   3.999   0.141  11.168  0.3524  1.3292 -0.5314
16115TIP3    H269837   3.912   0.219  11.264 -0.4488 -0.7247  0.4670
16116TIP3   OH269838   5.087   5.251   4.374  0.4388  0.4822  0.0738
16116TIP3    H169839   5.075   5.170   4.324 -0.4095  0.3565  0.4646
16116TIP3    H269840   5.016   5.250   4.438  1.5595  0.5813  1.3624
16117TIP3   OH269841   5.367   4.010  13.629 -0.0999 -0.0937  0.2549
16117TIP3    H169842   5.296   4.015  13.693 -0.8483 -3.0870 -0.1638
16117TIP3    H269843   5.447   4.018  13.680 -0.7067 -1.4883  1.5121
16118TIP3   OH269844   2.507   2.881   4.785  0.4792  0.7664 -0.8087
16118TIP3    H169845   2.600   2.903   4.788  0.8283 -0.5823 -0.9021
16118TIP3    H269846   2.491   2.859   4.693  0.7858 -1.7149 -0.3410
16119TIP3   OH269847   2.577   2.506   4.938  0.5182  0.8408  0.2169
16119TIP3    H169848   2.500   2.455   4.912  0.8714 -0.8153  2.1735
16119TIP3    H269849   2.601   2.555   4.859 -2.2470  1.0770 -0.5820
16120TIP3   OH269850   2.597   5.833   6.600  0.3737 -0.3810 -0.0059
16120TIP3    H169851   2.561   5.825   6.512  1.7913  0.6661 -0.7225
16120TIP3    H269852   2.691   5.841   6.587  0.4407  2.2612  1.3948
16121TIP3   OH269853   0.624   5.402  13.735  0.5789  0.0340 -0.2311
16121TIP3    H169854   0.709   5.370  13.703  0.0549  1.0464 -2.9591
16121TIP3    H269855   0.573   5.323  13.749  1.5047 -0.5431  0.0189
16122TIP3   OH269856   1.509   3.094   1.106  0.6830 -0.3939  0.2805
16122TIP3    H169857   1.597   3.063   1.126  0.8305 -1.0504 -1.2511
16122TIP3    H269858   1.481   3.041   1.032  0.2553  1.9264 -1.3207
16123TIP3   OH269859   1.408   5.240  13.861 -0.0240 -0.8188 -0.5255
16123TIP3    H169860   1.402   5.252  13.766 -0.3135 -0.3999 -0.4534
16123TIP3    H269861   1.363   5.157  13.877 -1.5679 -0.0108 -0.5431
16124TIP3   OH269862   1.039   5.163   4.802 -0.5721  0.3888 -0.0640
16124TIP3    H169863   1.081   5.152   4.887  0.8769  0.8418 -0.6859
16124TIP3    H269864   0.957   5.115   4.809  0.7268 -1.8565  0.7355
16125TIP3   OH269865   3.913   1.894   1.258  0.2204  0.1547  0.0194
16125TIP3    H169866   3.967   1.952   1.311 -0.6487  1.7672 -0.7992
16125TIP3    H269867   3.947   1.903   1.169  0.7310 -1.4152  0.0208
16126TIP3   OH269868   1.575   5.951   2.235  0.0212 -0.0050  0.2434
16126TIP3    H169869   1.598   6.016   2.168  1.1833  0.6266  1.2052
16126TIP3    H269870   1.569   5.868   2.188  0.6921  0.4457 -0.6597
16127TIP3   OH269871   2.088   5.656  11.168  1.2658  0.1026  0.2031
16127TIP3    H169872   2.061   5.564  11.163  4.0795 -0.7932 -1.0369
16127TIP3    H269873   2.056   5.695  11.086  0.8811 -0.0381  0.2871
16128TIP3   OH269874   5.962   2.642   0.613 -0.1092  0.1957  0.2331
16128TIP3    H169875   6.010   2.692   0.679  2.1036 -1.3701 -0.0976
16128TIP3    H269876   5.920   2.572   0.663 -0.4663  0.4302  0.2677
16129TIP3   OH269877   4.861   4.223  14.391  0.0136  0.3541  0.0663
16129TIP3    H169878   4.784   4.265  14.429 -0.7597 -1.4850  0.6294
16129TIP3    H269879   4.826   4.161  14.327  1.0377 -0.2467  0.0612
16130TIP3   OH269880   0.157   4.921   2.841 -0.0808  0.4700 -0.5307
16130TIP3    H169881   0.185   4.949   2.754  0.3244  0.9609 -0.2533
16130TIP3    H269882   0.208   4.842   2.859  0.6071  0.9440 -0.3324
16131TIP3   OH269883   6.033   3.459  14.948  0.3315 -0.2532  0.1521
16131TIP3    H169884   6.091   3.389  14.978 -0.2322  0.1066  2.1751
16131TIP3    H269885   6.089   3.537  14.946 -0.1428  0.2479  2.7958
16132TIP3   OH269886   0.463   5.282  13.225  0.3795 -0.5433 -0.2026
16132TIP3    H169887   0.495   5.294  13.135  1.2009 -0.3057  0.1114
16132TIP3    H269888   0.379   5.327  13.227 -0.0796 -1.3233 -1.0974
16133TIP3   OH269889   5.629   3.552  14.001 -0.3119  0.3591  0.2389
16133TIP3    H169890   5.560   3.573  14.064  0.0315  1.7358  0.1756
16133TIP3    H269891   5.710   3.574  14.047  0.0003  0.3416 -0.3063
16134TIP3   OH269892   1.892   6.249   0.378  0.7581 -0.0751  0.1317
16134TIP3    H169893   1.799   6.272   0.374 -0.1060 -3.2468 -1.8478
16134TIP3    H269894   1.903   6.209   0.464  0.2093  0.0879  0.2812
16135TIP3   OH269895   6.211   3.961  15.441  0.3700  0.5059 -0.2269
16135TIP3    H169896   6.140   3.904  15.409  0.7130  1.1516 -2.3114
16135TIP3    H269897   6.172   4.048  15.444  0.6846  0.6407 -0.0502
16136TIP3   OH269898   0.413   2.818  15.283 -0.5317 -0.1406 -0.1098
16136TIP3    H169899   0.460   2.735  15.286 -1.0429 -0.4173  1.1674
16136TIP3    H269900   0.480   2.884  15.269  0.3976 -0.4394  2.4960
16137TIP3   OH269901   6.506   0.486  10.754  0.0458 -0.5334  0.4232
16137TIP3    H169902   6.447   0.412  10.766  1.9902 -2.2791 -0.2005
16137TIP3    H269903   6.453   0.563  10.777 -1.8553 -2.1298  1.7406
16138TIP3   OH269904   6.135   1.423   1.444  0.1168  0.3498 -0.3262
16138TIP3    H169905   6.199   1.493   1.430 -0.0508  0.9838  1.6765
16138TIP3    H269906   6.052   1.469   1.457 -0.2294 -0.2877 -0.2315
16139TIP3   OH269907   1.981   5.502  16.119 -0.1080 -1.0519  0.0949
16139TIP3    H169908   2.026   5.469  16.197  0.2144 -0.8028  0.0161
16139TIP3    H269909   2.011   5.593  16.111  2.0853 -1.8334 -1.8960
16140TIP3   OH269910   6.291   4.382   4.469 -0.2256  0.0127  0.1516
16140TIP3    H169911   6.363   4.340   4.422  0.0295  0.4509  0.1472
16140TIP3    H269912   6.224   4.313   4.476  0.3099 -0.4875  0.4324
16141TIP3   OH269913   4.254   0.641  14.640  0.6175  0.0600 -0.0570
16141TIP3    H169914   4.194   0.600  14.703  0.0547  0.1579 -0.5198
16141TIP3    H269915   4.197   0.669  14.568  1.3523 -0.8142 -1.0125
16142TIP3   OH269916   6.731   3.530  16.352 -0.3542 -0.6023 -0.0003
16142TIP3    H169917   6.721   3.449  16.301  0.1413 -2.0367  2.0278
16142TIP3    H269918   6.655   3.583  16.328 -0.0455 -1.0888 -2.3148
16143TIP3   OH269919   0.615   1.731   3.235  0.9201 -0.0393  0.4495
16143TIP3    H169920   0.581   1.813   3.201 -0.5693 -0.3104  1.1744
16143TIP3    H269921   0.683   1.757   3.298  1.1731  0.5767 -0.0690
16144TIP3   OH269922   6.821   0.821   4.989 -0.7898  0.1954 -0.4443
16144TIP3    H169923   6.755   0.774   5.040 -0.2412  0.1540  0.2343
16144TIP3    H269924   6.787   0.910   4.982 -0.3261  0.5129  1.0144
16145TIP3   OH269925   0.472   6.369   5.877 -0.2948  0.4674  0.0951
16145TIP3    H169926   0.469   6.390   5.971  1.3192 -0.8441  0.4975
16145TIP3    H269927   0.546   6.420   5.843 -0.5716  0.5740 -0.3492
16146TIP3   OH269928   1.444   5.325  11.180  0.2383 -0.0375 -0.3920
16146TIP3    H169929   1.439   5.394  11.114  0.6487  0.8428  0.4650
16146TIP3    H269930   1.379   5.350  11.245 -1.0109 -1.5326 -0.9995
16147TIP3   OH269931   1.668   0.039   4.211  0.0474 -0.3775 -0.1649
16147TIP3    H169932   1.631   0.039   4.122  0.2615 -0.4596 -0.2552
16147TIP3    H269933   1.685   0.131   4.230 -0.6290 -0.2930  0.0573
16148TIP3   OH269934   2.118   2.617   0.441 -0.6214 -0.8796 -0.5969
16148TIP3    H169935   2.103   2.683   0.510  0.4853 -2.0706  0.8626
16148TIP3    H269936   2.037   2.615   0.391 -1.1389  0.6724  0.1149
16149TIP3   OH269937   3.797   6.399  16.697  0.4105 -0.1879  0.1277
16149TIP3    H169938   3.771   6.309  16.717  2.3977 -1.0333 -0.8297
16149TIP3    H269939   3.739   6.426  16.626 -0.5040 -0.5203  0.7293
16150TIP3   OH269940   0.870   0.170   5.463 -0.5998  0.1909 -0.2342
16150TIP3    H169941   0.862   0.226   5.540  0.4740  2.4403 -1.6562
16150TIP3    H269942   0.819   0.214   5.396 -1.8961 -1.9736 -0.7746
16151TIP3   OH269943   6.442   6.413  10.294  1.1011  0.2402 -0.0428
16151TIP3    H169944   6.368   6.430  10.352  0.9092  0.4478 -0.3517
16151TIP3    H269945   6.483   6.335  10.331 -1.7806 -2.6106 -2.2756
16152TIP3   OH269946   4.712   5.475  13.925  0.3493 -0.1529 -0.1357
16152TIP3    H169947   4.773   5.404  13.946  0.3962 -0.4353 -1.1538
16152TIP3    H269948   4.756   5.524  13.856  0.6630  1.3717  1.0970
16153TIP3   OH269949   2.567   0.461  15.652  0.4554 -0.0071 -0.0732
16153TIP3    H169950   2.498   0.528  15.649  0.0720 -0.4199 -0.7717
16153TIP3    H269951   2.630   0.488  15.584 -0.1561 -0.8150 -0.9983
16154TIP3   OH269952   4.477   3.342  13.740  0.1043 -0.4304 -0.1104
16154TIP3    H169953   4.384   3.335  13.761  0.3201  0.3191  1.1692
16154TIP3    H269954   4.507   3.252  13.729 -0.2269 -0.8489  2.0372
16155TIP3   OH269955   6.355   1.961  11.729 -0.0369 -0.3009 -0.2769
16155TIP3    H169956   6.352   1.938  11.636 -1.2084 -0.5198 -0.2011
16155TIP3    H269957   6.362   1.877  11.774  0.6890 -0.1863 -0.1637
16156TIP3   OH269958   1.077   1.160   5.238 -0.6933 -0.3827 -0.5639
16156TIP3    H169959   1.097   1.169   5.145 -0.8814  1.0785 -0.4927
16156TIP3    H269960   1.107   1.072   5.261  1.8964  0.2079 -1.3799
16157TIP3   OH269961   5.697   4.076   2.329 -0.3508 -0.1871 -0.4266
16157TIP3    H169962   5.705   4.027   2.247  1.6601 -0.0956 -0.3570
16157TIP3    H269963   5.687   4.008   2.397  0.5136 -0.4343 -0.5251
16158TIP3   OH269964   2.659   2.559  11.819 -0.5964 -0.2683  0.3224
16158TIP3    H169965   2.615   2.475  11.805  0.4776 -1.0635  1.4975
16158TIP3    H269966   2.643   2.579  11.911  1.6948 -0.7385  0.8861
16159TIP3   OH269967   0.722   1.175   5.011  0.3924 -0.3428 -0.3083
16159TIP3    H169968   0.781   1.101   5.025 -0.1554 -1.0724 -1.6428
16159TIP3    H269969   0.677   1.186   5.095  1.1335 -0.9282  0.1784
16160TIP3   OH269970   3.978   6.598   0.250 -0.6046  0.1817  0.0977
16160TIP3    H169971   3.977   6.544   0.171  0.7291  0.2063  0.0439
16160TIP3    H269972   4.008   6.684   0.220  1.7340 -0.2886  0.8717
16161TIP3   OH269973   1.748   1.899   1.340 -0.8877 -0.1714 -0.1947
16161TIP3    H169974   1.831   1.867   1.375 -0.8569 -1.2262 -1.1588
16161TIP3    H269975   1.694   1.820   1.331 -1.8429  0.4478  0.0257
16162TIP3   OH269976   5.161   6.116   4.905  0.3972  1.0383 -0.2716
16162TIP3    H169977   5.082   6.149   4.947 -0.5144 -2.4931  1.1131
16162TIP3    H269978   5.226   6.112   4.975  0.8386  0.9523 -0.6802
16163TIP3   OH269979   0.088   6.813   0.238 -0.6694 -0.2924 -0.3676
16163TIP3    H169980   0.140   6.882   0.279  0.2132 -1.1127 -0.0744
16163TIP3    H269981   0.059   6.758   0.310  0.9417 -1.7772 -0.7984
16164TIP3   OH269982   6.205   1.383   3.378  0.8453 -0.2453  0.0955
16164TIP3    H169983   6.273   1.407   3.315  1.1248  0.9375  0.8307
16164TIP3    H269984   6.247   1.318   3.434  0.4890 -1.5705 -1.1050
16165TIP3   OH269985   1.724   5.440   3.024  0.7484 -0.0674 -0.5594
16165TIP3    H169986   1.774   5.359   3.029  0.3358 -0.2457  1.4655
16165TIP3    H269987   1.635   5.415   3.050  0.7222  1.0924  0.5634
16166TIP3   OH269988   5.760   1.446  12.248  0.4528  0.1963  0.3054
16166TIP3    H169989   5.803   1.531  12.259  0.0110  0.9067 -2.5593
16166TIP3    H269990   5.824   1.392  12.203  0.3726 -0.7115  1.2370
16167TIP3   OH269991   5.893   4.734   3.824 -0.0103 -0.0117 -0.1551
16167TIP3    H169992   5.852   4.813   3.789  0.7799  0.3145 -0.3635
16167TIP3    H269993   5.987   4.752   3.819  0.1620  0.0206  2.0454
16168TIP3   OH269994   0.200   2.441  13.287  0.0303 -0.5097  0.3598
16168TIP3    H169995   0.253   2.444  13.208 -1.7983  0.1550 -0.8855
16168TIP3    H269996   0.257   2.399  13.352  1.6094 -0.9572 -1.2411
16169TIP3   OH269997   3.248   1.995  15.268 -0.7190  0.3391  0.2992
16169TIP3    H169998   3.293   1.913  15.247 -1.1167  0.3137 -0.4915
16169TIP3    H269999   3.167   1.968  15.311 -1.3456  0.2608 -0.8960
16170TIP3   OH270000   6.405   0.517   4.612  0.3859  0.1959  0.6665
16170TIP3    H170001   6.491   0.476   4.616  0.2074 -0.3562 -0.8138
16170TIP3    H270002   6.385   0.525   4.519 -0.8264  1.0524  0.9626
16171TIP3   OH270003   6.798   6.579  11.427 -0.0723  0.4003  0.4976
16171TIP3    H170004   6.769   6.513  11.490  0.7960 -0.3745  0.1146
16171TIP3    H270005   6.886   6.551  11.401 -0.9273 -0.1635 -2.1764
16172TIP3   OH270006   0.050   2.410  16.655  0.8497  0.9468 -0.2540
16172TIP3    H170007   0.133   2.366  16.635  0.1097 -0.9365  0.5507
16172TIP3    H270008  -0.009   2.339  16.681 -1.6338  1.9425 -2.6751
16173TIP3   OH270009   2.569   2.015   0.324  0.4467  0.5597 -0.0905
16173TIP3    H170010   2.526   2.100   0.312  0.4297  0.3765 -1.6039
16173TIP3    H270011   2.598   1.991   0.236 -1.9172 -2.2784 -0.2575
16174TIP3   OH270012   3.372   1.460   2.105 -0.3197 -0.0859 -0.0460
16174TIP3    H170013   3.416   1.378   2.128 -1.4759 -1.2077 -1.6025
16174TIP3    H270014   3.430   1.528   2.138  1.1958 -1.5139  0.3943
16175TIP3   OH270015   2.396   2.796   1.576 -0.2756  0.1310  0.1751
16175TIP3    H170016   2.330   2.797   1.645 -0.7748 -2.7270 -0.1505
16175TIP3    H270017   2.458   2.864   1.601 -1.8599  0.9822  1.9803
16176TIP3   OH270018   2.490   5.610  13.182 -0.0586 -0.1488 -0.5120
16176TIP3    H170019   2.456   5.603  13.271 -2.1073 -0.2417 -1.2691
16176TIP3    H270020   2.582   5.584  13.190  0.2447  1.3264  1.8257
16177TIP3   OH270021   1.528   3.997   3.056  0.1328  0.5426 -0.0346
16177TIP3    H170022   1.540   4.072   2.998  2.3517 -0.7229 -1.3527
16177TIP3    H270023   1.557   4.029   3.141  3.0708  0.7267 -0.9743
16178TIP3   OH270024   2.211   5.452   2.739 -0.2209 -0.3412 -0.0002
16178TIP3    H170025   2.173   5.481   2.822 -1.1424 -1.3621 -0.0423
16178TIP3    H270026   2.237   5.361   2.755 -0.1944 -0.4718 -0.7565
16179TIP3   OH270027   4.878   0.327   1.432  0.1305 -0.6700  0.0973
16179TIP3    H170028   4.926   0.340   1.350  1.2501  1.5694  1.0181
16179TIP3    H270029   4.815   0.400   1.434  0.8325 -0.0811  1.6873
16180TIP3   OH270030   2.299   2.659  12.032 -0.2954 -0.5721 -0.8916
16180TIP3    H170031   2.281   2.684  11.941 -1.4670 -0.7220 -0.7199
16180TIP3    H270032   2.253   2.577  12.044  2.4150 -2.2309 -1.0376
16181TIP3   OH270033   3.932   1.909   4.824  0.0207  0.1675  0.4131
16181TIP3    H170034   3.962   1.921   4.733 -0.7524 -1.8113 -0.1525
16181TIP3    H270035   3.855   1.964   4.831 -0.2663 -0.1165 -0.3451
16182TIP3   OH270036   0.115   4.006  10.976  0.4978 -0.0186  0.7135
16182TIP3    H170037   0.149   4.049  10.897  0.1594 -0.3443  0.3820
16182TIP3    H270038   0.148   3.916  10.970  2.1057  0.4600  1.9592
16183TIP3   OH270039   1.126   5.747   0.256 -0.8598  0.8713 -0.7924
16183TIP3    H170040   1.092   5.675   0.308  1.9996  0.6017  0.9432
16183TIP3    H270041   1.181   5.796   0.317  3.0248  0.3521 -3.4993
16184TIP3   OH270042   2.920   6.724  10.882 -0.3372 -0.6511 -0.3780
16184TIP3    H170043   2.852   6.659  10.864  1.0786 -2.6292  0.9641
16184TIP3    H270044   2.879   6.808  10.861 -2.4828 -1.8991 -1.5406
16185TIP3   OH270045   3.836   3.912   5.152  0.4960  0.1146  0.9391
16185TIP3    H170046   3.758   3.939   5.105  1.0713  1.1261  0.5192
16185TIP3    H270047   3.809   3.837   5.204 -0.4416 -0.3249 -0.1414
16186TIP3   OH270048   5.704   4.349  13.608  0.1487  0.3058  0.1556
16186TIP3    H170049   5.621   4.395  13.595  0.8568  1.3113 -1.0050
16186TIP3    H270050   5.769   4.419  13.617  0.9950 -0.4663  0.2151
16187TIP3   OH270051   0.289   3.000  13.727 -0.1711 -0.3512  0.3505
16187TIP3    H170052   0.352   2.975  13.795 -0.6331 -0.7129  0.6497
16187TIP3    H270053   0.208   3.017  13.774  0.5413  3.7702  0.4898
16188TIP3   OH270054   2.432   6.835   5.112 -0.9898 -0.2545 -0.1675
16188TIP3    H170055   2.388   6.917   5.089 -1.9612 -1.0901 -1.4792
16188TIP3    H270056   2.367   6.767   5.092  0.6508 -1.5038 -1.5724
16189TIP3   OH270057   2.049   4.546  15.964  0.1563 -0.0117 -0.1166
16189TIP3    H170058   2.126   4.525  15.912  1.2710  0.9387  1.0909
16189TIP3    H270059   2.081   4.604  16.033 -1.5197 -0.1306  0.8228
16190TIP3   OH270060   2.329   6.806   2.944  0.5795  0.6799  0.3422
16190TIP3    H170061   2.422   6.805   2.967  1.2528  0.5335 -2.1261
16190TIP3    H270062   2.290   6.735   2.996  2.2073 -0.4318  0.1079
16191TIP3   OH270063   5.109   1.151   2.981  0.3573 -0.8631  0.3249
16191TIP3    H170064   5.153   1.237   2.976 -2.0714  0.4335 -0.5217
16191TIP3    H270065   5.102   1.123   2.890  2.5553 -2.8271  0.6797
16192TIP3   OH270066   0.215   1.790  12.498  0.0647  0.3415  0.2004
16192TIP3    H170067   0.276   1.836  12.439 -0.6378  0.5821 -0.3596
16192TIP3    H270068   0.265   1.716  12.531  0.6737  0.5460 -0.2375
16193TIP3   OH270069   5.934   4.022   5.022  0.0490 -0.1055  0.5363
16193TIP3    H170070   5.999   3.965   5.063 -0.1012  0.4416  1.5524
16193TIP3    H270071   5.982   4.067   4.953  0.5163 -0.4048  0.6610
16194TIP3   OH270072   0.322   0.906  16.572 -0.7099 -0.0371  0.1810
16194TIP3    H170073   0.241   0.959  16.570  0.3985  1.7943  1.0640
16194TIP3    H270074   0.391   0.968  16.548  0.5610 -1.3162  0.4561
16195TIP3   OH270075   3.842   2.865   3.103  1.0265  0.5098  0.3806
16195TIP3    H170076   3.783   2.910   3.163 -0.0471  0.3161 -0.4989
16195TIP3    H270077   3.859   2.780   3.144 -1.3251 -0.4447 -0.4909
16196TIP3   OH270078   3.937   1.200  16.446  0.0677 -0.0402 -0.0948
16196TIP3    H170079   3.944   1.173  16.355 -1.1168 -0.5452 -0.0513
16196TIP3    H270080   3.931   1.296  16.442 -1.4348 -0.1350 -0.6715
16197TIP3   OH270081   4.567   6.260   0.327  0.0579  0.4700  0.2490
16197TIP3    H170082   4.562   6.231   0.418 -1.1508 -1.7730 -0.4306
16197TIP3    H270083   4.660   6.270   0.309  0.3377  0.2897  1.5467
16198TIP3   OH270084   5.230   0.509  16.451 -0.6138 -0.2985  0.3785
16198TIP3    H170085   5.217   0.419  16.481 -0.0854 -0.4562  0.1426
16198TIP3    H270086   5.211   0.563  16.528 -0.5536 -0.6306  0.6278
16199TIP3   OH270087   0.165   2.345   5.009  0.4796  0.2425  0.6662
16199TIP3    H170088   0.202   2.364   5.095  0.3780  1.8655  0.3708
16199TIP3    H270089   0.240   2.313   4.958  1.2192  2.1737  0.4794
16200TIP3   OH270090   0.366   2.083  14.713  0.0885  0.4034  0.1932
16200TIP3    H170091   0.416   2.081  14.795 -0.7670  1.4597  0.7716
16200TIP3    H270092   0.336   2.174  14.706  1.5160  0.7852 -2.1636
16201TIP3   OH270093   4.295   2.031   2.374  0.1868  0.1530  0.1107
16201TIP3    H170094   4.303   2.008   2.282  1.2603  0.7735  0.0269
16201TIP3    H270095   4.252   2.116   2.375 -0.3989 -0.1379  0.2255
16202TIP3   OH270096   3.890   4.949  15.596  0.2730  0.0279  0.2200
16202TIP3    H170097   3.877   5.022  15.535 -1.6291 -0.2225  0.2842
16202TIP3    H270098   3.883   4.989  15.683 -0.0761 -0.1168  0.2583
16203TIP3   OH270099   1.188   6.002   5.308  0.6425  0.3389  0.0983
16203TIP3    H170100   1.283   5.991   5.300  0.7157  1.4168 -0.7277
16203TIP3    H270101   1.159   5.924   5.355  1.7252 -0.8653 -1.1405
16204TIP3   OH270102   3.248   1.534   1.163 -0.5960  0.1787  0.2601
16204TIP3    H170103   3.296   1.477   1.223  3.1568  0.7787 -1.9003
16204TIP3    H270104   3.246   1.485   1.081 -1.4844  1.3012 -0.4115
16205TIP3   OH270105   3.407   5.858   5.518 -0.2310  0.4104 -0.6073
16205TIP3    H170106   3.493   5.818   5.531  1.2547  3.2257 -0.7823
16205TIP3    H270107   3.375   5.875   5.606  1.2611  2.7980 -0.4392
16206TIP3   OH270108   1.089   6.092  12.949  0.9054  0.8372 -0.3660
16206TIP3    H170109   1.163   6.034  12.927 -1.5001 -3.1359  0.8919
16206TIP3    H270110   1.080   6.084  13.044 -1.0727  1.2308 -0.4907
16207TIP3   OH270111   2.443   5.108   1.376  0.4626 -0.5915 -0.5237
16207TIP3    H170112   2.441   5.025   1.329  0.9378  0.1044 -1.8167
16207TIP3    H270113   2.410   5.172   1.313  2.0050  0.5182 -0.2658
16208TIP3   OH270114   6.753   1.215  14.320 -0.6396 -0.6542 -0.1478
16208TIP3    H170115   6.829   1.189  14.269 -0.7844 -1.5893  0.0936
16208TIP3    H270116   6.688   1.241  14.255  0.1151  0.8538 -0.3356
16209TIP3   OH270117   1.400   1.971  11.823 -0.2110 -0.0010 -0.6347
16209TIP3    H170118   1.367   1.943  11.909  2.1798  1.9185  1.0668
16209TIP3    H270119   1.437   1.892  11.784  1.6340 -0.4109  1.6640
16210TIP3   OH270120   5.767   5.110   0.603 -0.4445 -0.2622  0.2821
16210TIP3    H170121   5.756   5.076   0.692 -1.0844  0.0575  0.3350
16210TIP3    H270122   5.781   5.032   0.549 -0.4381 -0.4887  0.6064
16211TIP3   OH270123   0.683   1.383  13.865 -0.5397 -0.3044 -0.1928
16211TIP3    H170124   0.710   1.424  13.783  0.2889  0.2143  0.3272
16211TIP3    H270125   0.722   1.295  13.861  0.0003 -0.0709 -0.0935
16212TIP3   OH270126   0.937   1.621  15.497 -0.5150 -0.4046  0.0078
16212TIP3    H170127   0.883   1.693  15.529 -1.0429 -0.0787 -1.5725
16212TIP3    H270128   0.895   1.593  15.416  0.4088 -1.6626 -0.0651
16213TIP3   OH270129   5.120   2.327   5.569  0.9587 -0.0289 -0.1596
16213TIP3    H170130   5.145   2.374   5.489  1.8905 -0.3032 -0.0429
16213TIP3    H270131   5.172   2.367   5.638  0.3242  0.0537  0.2792
16214TIP3   OH270132   4.178   5.573   5.167  0.2825  0.2998  0.1063
16214TIP3    H170133   4.174   5.567   5.072 -1.2553  1.5971  0.0425
16214TIP3    H270134   4.146   5.488   5.198  0.8551 -0.1532 -0.5342
16215TIP3   OH270135   1.706   1.812  16.224  0.1599  0.5314 -0.3319
16215TIP3    H170136   1.791   1.844  16.193  0.1382  0.8615 -0.0560
16215TIP3    H270137   1.642   1.873  16.187 -0.3386 -1.7241 -3.5599
16216TIP3   OH270138   0.105   2.191   2.000  0.0416  0.9555  0.0050
16216TIP3    H170139   0.179   2.152   1.953  1.0928  1.7806  0.9135
16216TIP3    H270140   0.034   2.127   1.990  0.6018  0.5279 -1.5982
16217TIP3   OH270141   6.187   5.479  12.937 -0.6602 -0.4118 -0.5148
16217TIP3    H170142   6.145   5.394  12.949 -0.1968 -0.6656 -0.6907
16217TIP3    H270143   6.144   5.517  12.861 -1.4748 -0.1113  0.0807
16218TIP3   OH270144   2.827   2.628   4.747 -0.5289 -0.0661  0.0847
16218TIP3    H170145   2.825   2.721   4.772 -0.6715  0.0108 -0.2022
16218TIP3    H270146   2.900   2.592   4.796  0.2928  0.4686 -0.7025
16219TIP3   OH270147   4.134   1.988   1.392  0.4871  0.3193  0.6032
16219TIP3    H170148   4.105   2.038   1.468  0.9390  0.7961  0.4667
16219TIP3    H270149   4.198   2.045   1.349  0.3796 -0.0260 -0.0225
16220TIP3   OH270150   2.416   1.902   1.776  0.0251  0.2741  0.0469
16220TIP3    H170151   2.465   1.902   1.858 -0.7565 -2.6954  0.6605
16220TIP3    H270152   2.379   1.990   1.770  1.6384  1.1525  1.8991
16221TIP3   OH270153   3.114   3.857  15.003 -0.3735  0.2588 -0.4355
16221TIP3    H170154   3.128   3.930  15.063  0.4176  0.7650 -1.2064
16221TIP3    H270155   3.063   3.895  14.931 -0.5369 -0.1159 -0.5176
16222TIP3   OH270156   3.371   4.808  13.250 -0.4942  0.4024 -0.4931
16222TIP3    H170157   3.319   4.876  13.206 -0.5014 -0.4961 -1.9430
16222TIP3    H270158   3.418   4.855  13.319  0.3117  2.1011 -2.1215
16223TIP3   OH270159   1.764   3.624  10.791 -0.1068 -0.3781  0.5000
16223TIP3    H170160   1.758   3.559  10.861 -0.3153 -0.7140  0.1768
16223TIP3    H270161   1.853   3.659  10.798  0.4129 -1.5313 -0.0451
16224TIP3   OH270162   4.414   3.132  11.917  0.2065 -0.1370 -0.1534
16224TIP3    H170163   4.342   3.072  11.899  0.1881 -0.5463  1.1629
16224TIP3    H270164   4.458   3.094  11.993  2.1150 -0.1572 -1.1891
16225TIP3   OH270165   1.489   5.986  12.147 -0.0412  0.3716 -0.7989
16225TIP3    H170166   1.421   5.922  12.122 -0.6135  1.0478 -1.0101
16225TIP3    H270167   1.470   6.063  12.094 -1.0221  1.7186  1.3726
16226TIP3   OH270168   5.303   6.586  15.073  0.1161 -0.0163 -0.5656
16226TIP3    H170169   5.301   6.571  14.979 -2.4811 -2.1950 -0.2659
16226TIP3    H270170   5.234   6.649  15.089  0.2723  0.0359 -0.0879
16227TIP3   OH270171   1.315   3.537  15.415 -0.2026  0.6708  0.4335
16227TIP3    H170172   1.270   3.477  15.355  0.6976 -0.7324  1.1315
16227TIP3    H270173   1.274   3.622  15.397 -1.7704 -0.1849 -0.3304
16228TIP3   OH270174   2.395   1.067   3.371  0.1002 -0.1625 -0.0541
16228TIP3    H170175   2.393   1.128   3.445  1.4046  0.1204 -0.2215
16228TIP3    H270176   2.306   1.067   3.338 -0.2428  0.5950  0.8052
16229TIP3   OH270177   3.625   6.468  11.500  0.1509 -0.1496 -0.2324
16229TIP3    H170178   3.557   6.532  11.478 -1.6074 -0.9489  2.3433
16229TIP3    H270179   3.639   6.420  11.418 -2.2472  0.2196 -0.9645
16230TIP3   OH270180   1.021   6.448   0.171  0.0042 -0.0552  0.7784
16230TIP3    H170181   1.067   6.375   0.213 -0.4692  0.0671  1.5268
16230TIP3    H270182   1.061   6.454   0.084  0.0813 -1.1765  0.7209
16231TIP3   OH270183   3.536   0.088   1.411  0.6360  0.1551 -0.4942
16231TIP3    H170184   3.460   0.145   1.396 -0.2285 -0.9227 -0.2882
16231TIP3    H270185   3.512   0.005   1.371  0.4054 -1.1759  2.2154
16232TIP3   OH270186   5.039   2.032  17.022  0.5723  0.3419  0.1915
16232TIP3    H170187   5.030   2.125  17.000  0.7170  0.0627 -1.1744
16232TIP3    H270188   5.029   2.028  17.117 -1.7111  1.4886  0.0850
16233TIP3   OH270189   0.382   5.698   4.541  0.8703 -0.0349 -0.2297
16233TIP3    H170190   0.330   5.680   4.620  2.2523  0.2943  0.7943
16233TIP3    H270191   0.323   5.678   4.469 -1.1652  1.5767  0.8473
16234TIP3   OH270192   6.739   4.949  13.490  0.4949  0.4382 -0.0184
16234TIP3    H170193   6.674   5.012  13.520  0.7899 -0.2016  2.1159
16234TIP3    H270194   6.690   4.867  13.480  0.5499  0.4731 -0.6269
16235TIP3   OH270195   5.036   2.610  12.097  0.0780  0.6445  0.1749
16235TIP3    H170196   5.037   2.599  12.193 -0.1043  0.4346  0.1535
16235TIP3    H270197   5.060   2.524  12.063 -0.0562  0.6653  0.0276
16236TIP3   OH270198   6.394   6.056  16.489 -0.1304 -0.5613 -0.4251
16236TIP3    H170199   6.441   6.139  16.476  0.5075 -0.7367  0.6470
16236TIP3    H270200   6.305   6.073  16.459 -0.2124  0.7542  0.4967
16237TIP3   OH270201   1.755   3.289  10.635 -0.2157 -0.4199 -0.4657
16237TIP3    H170202   1.831   3.331  10.594 -0.7904 -0.2550 -1.3850
16237TIP3    H270203   1.745   3.333  10.719  1.0280 -0.8115 -0.0901
16238TIP3   OH270204   0.321   4.068   5.515 -0.1725  0.0689 -0.2114
16238TIP3    H170205   0.353   4.003   5.577 -0.0755  0.8201  0.5436
16238TIP3    H270206   0.393   4.130   5.507 -0.6887  0.7051 -0.0213
16239TIP3   OH270207   1.885   6.694  16.343  0.1790  0.0078  0.0931
16239TIP3    H170208   1.822   6.687  16.272  1.4568 -0.5204 -1.0060
16239TIP3    H270209   1.927   6.779  16.330  0.5305 -0.1599  0.1182
16240TIP3   OH270210   1.632   6.392  15.952  0.2136 -0.1544 -0.9693
16240TIP3    H170211   1.617   6.324  15.886  0.9560  0.2700 -1.5794
16240TIP3    H270212   1.621   6.475  15.905  1.3908  0.1606 -0.7243
16241TIP3   OH270213   0.709   1.278   1.694  0.1699  0.1206  0.4069
16241TIP3    H170214   0.775   1.234   1.748  0.2330 -1.2164 -0.6976
16241TIP3    H270215   0.628   1.272   1.744  0.2228 -1.1333  0.3689
16242TIP3   OH270216   3.951   0.482  14.607 -0.5735 -0.1713  0.6162
16242TIP3    H170217   3.969   0.459  14.698  0.6936  2.3779  1.0736
16242TIP3    H270218   4.008   0.423  14.557 -1.0526 -1.3880  1.4295
16243TIP3   OH270219   1.660   2.450   3.384  0.0303  0.2018 -0.3019
16243TIP3    H170220   1.678   2.356   3.374 -0.6393 -0.1122  1.0901
16243TIP3    H270221   1.600   2.454   3.459 -1.0926  1.6362 -1.2206
16244TIP3   OH270222   6.158   0.826   1.919 -0.1481  0.2934 -0.1273
16244TIP3    H170223   6.204   0.902   1.883 -0.4589  0.2107 -0.6978
16244TIP3    H270224   6.110   0.861   1.994  1.5828  0.2116  1.0826
16245TIP3   OH270225   4.859   4.423  15.041 -0.3092 -0.1032 -0.4465
16245TIP3    H170226   4.764   4.431  15.049 -0.3027  1.0952 -1.2020
16245TIP3    H270227   4.894   4.479  15.110 -0.1593 -0.4904 -0.2110
16246TIP3   OH270228   1.726   1.386   3.853  0.1409  0.9145  0.4807
16246TIP3    H170229   1.763   1.358   3.937  1.0263 -0.5075 -0.3552
16246TIP3    H270230   1.632   1.371   3.863  0.4180 -0.9614  0.6167
16247TIP3   OH270231   5.304   2.300   4.092 -0.0601  0.0960 -0.7230
16247TIP3    H170232   5.294   2.309   4.186  0.4276 -0.6339 -0.5964
16247TIP3    H270233   5.324   2.388   4.061 -0.1146  0.3151 -0.1335
16248TIP3   OH270234   5.545   4.374   1.212  0.3602  0.6954 -0.1775
16248TIP3    H170235   5.536   4.379   1.117  0.7894  1.4647 -0.1879
16248TIP3    H270236   5.487   4.443   1.245  0.5057  0.6852  0.0994
16249TIP3   OH270237   0.250   5.228   2.949 -0.7388 -0.3678 -0.6176
16249TIP3    H170238   0.275   5.311   2.908  2.6291 -0.9171  0.0488
16249TIP3    H270239   0.278   5.238   3.040  0.2290 -2.3595 -0.6478
16250TIP3   OH270240   3.510   3.893  12.276  0.0431 -0.4752  0.0393
16250TIP3    H170241   3.502   3.841  12.356 -1.8326 -1.3652 -0.6581
16250TIP3    H270242   3.420   3.902  12.245  0.3409  2.6700 -0.2414
16251TIP3   OH270243   2.510   3.836   5.316 -0.1167 -0.6137  0.5950
16251TIP3    H170244   2.514   3.836   5.412  1.9739 -1.2213  0.5389
16251TIP3    H270245   2.596   3.806   5.288  0.1420  1.7760 -1.5246
16252TIP3   OH270246   4.921   0.421  12.056 -0.0940 -0.2794  0.5647
16252TIP3    H170247   4.860   0.404  11.984 -1.6157  1.0707  1.4561
16252TIP3    H270248   5.005   0.438  12.013 -1.1495  1.3341 -1.0009
16253TIP3   OH270249   4.940   5.749  16.951  0.0279  0.7595  0.6044
16253TIP3    H170250   4.941   5.806  16.874 -1.1860  0.7914  0.5976
16253TIP3    H270251   4.915   5.807  17.024 -3.4878 -0.0794  0.2471
16254TIP3   OH270252   5.713   5.173  11.822  0.0818 -0.2728 -0.1580
16254TIP3    H170253   5.716   5.267  11.805 -0.5296 -0.2080  0.0558
16254TIP3    H270254   5.668   5.166  11.907  2.5755 -0.6142  1.2103
16255TIP3   OH270255   1.568   4.479   4.136  0.2644 -0.1051 -0.1451
16255TIP3    H170256   1.493   4.442   4.182 -0.3793 -0.3120 -1.3164
16255TIP3    H270257   1.552   4.458   4.044  1.9070 -0.4011 -0.3938
16256TIP3   OH270258   6.498   3.993   0.352  0.4927  0.3403 -0.0502
16256TIP3    H170259   6.523   4.061   0.289 -2.2091  0.4183 -1.1937
16256TIP3    H270260   6.481   3.915   0.298  1.5200 -0.6797  1.0174
16257TIP3   OH270261   1.976   5.245   3.621 -0.0389 -0.0995  0.4455
16257TIP3    H170262   2.003   5.205   3.704  0.6175  0.3606  0.4584
16257TIP3    H270263   1.927   5.323   3.648  1.0037  0.5829  0.3999
16258TIP3   OH270264   6.732   6.563   6.539  0.1545  0.4528 -0.7161
16258TIP3    H170265   6.709   6.522   6.455 -2.5361  0.6991 -0.1827
16258TIP3    H270266   6.743   6.490   6.599  1.2746  0.3127 -1.0694
16259TIP3   OH270267   3.498   5.170  10.546  0.2605  0.2820  0.1876
16259TIP3    H170268   3.425   5.109  10.535 -0.9248  2.0394 -3.4010
16259TIP3    H270269   3.564   5.141  10.483  0.5238  1.5364 -0.1390
16260TIP3   OH270270   4.545   2.787  16.768  0.3107  0.0728 -0.6114
16260TIP3    H170271   4.480   2.719  16.755 -0.9086  0.8365  0.9991
16260TIP3    H270272   4.495   2.869  16.766  1.7014  0.9323 -2.3103
16261TIP3   OH270273   2.384   6.749   4.583  0.1369 -0.3410  0.4376
16261TIP3    H170274   2.395   6.767   4.490 -0.4197 -2.9292 -0.1962
16261TIP3    H270275   2.342   6.828   4.617 -1.4700 -0.0669 -1.9145
16262TIP3   OH270276   0.051   0.076   5.533  0.7215  0.0495  0.6783
16262TIP3    H170277   0.041   0.055   5.626  0.3683  1.3291  0.9593
16262TIP3    H270278   0.133   0.034   5.507  1.0708  0.0808  1.6933
16263TIP3   OH270279   3.355   6.018  13.630  0.1547  0.2848  0.6583
16263TIP3    H170280   3.372   6.021  13.535 -1.2250  3.0300  0.3870
16263TIP3    H270281   3.428   6.069  13.668 -0.2692  0.7589  0.8512
16264TIP3   OH270282   4.137   4.862   4.422 -0.3763  0.0018 -0.4771
16264TIP3    H170283   4.198   4.798   4.460  0.2529  0.7363 -0.2202
16264TIP3    H270284   4.059   4.858   4.478  0.1073  0.2715  0.2296
16265TIP3   OH270285   3.707   2.723  11.727 -0.5479 -0.4534  0.1096
16265TIP3    H170286   3.759   2.786  11.677  1.2869 -0.1259  2.2850
16265TIP3    H270287   3.710   2.642  11.676  1.7504 -0.3050 -0.0620
16266TIP3   OH270288   2.291   5.795  15.487 -0.0606  0.5355  0.3470
16266TIP3    H170289   2.343   5.718  15.464 -1.3386 -0.6166  1.1887
16266TIP3    H270290   2.215   5.760  15.533 -1.5055  2.1798 -0.6680
16267TIP3   OH270291   5.418   5.731   4.492  0.2400  0.4457  0.1835
16267TIP3    H170292   5.407   5.734   4.397  1.1934 -0.0945  0.0431
16267TIP3    H270293   5.464   5.813   4.513  0.7501  0.1894  0.0717
16268TIP3   OH270294   3.393   5.999  16.861  0.3975  0.1206 -0.5649
16268TIP3    H170295   3.350   5.950  16.791 -1.8211  1.4069 -0.1994
16268TIP3    H270296   3.413   6.084  16.822 -0.0577  0.5396  0.0966
16269TIP3   OH270297   4.867   2.261  13.863 -0.4745  0.3116 -0.3822
16269TIP3    H170298   4.879   2.226  13.774 -0.9318  1.0241 -0.7305
16269TIP3    H270299   4.943   2.317  13.877 -1.1923  1.4677 -0.9560
16270TIP3   OH270300   1.274   4.321  15.592  0.1716 -0.2613  0.0710
16270TIP3    H170301   1.233   4.263  15.655  2.2040 -0.5185  1.2229
16270TIP3    H270302   1.303   4.263  15.521  0.7634 -0.4439  0.4557
16271TIP3   OH270303   6.574   1.272  14.520 -0.1954  0.1691 -0.0584
16271TIP3    H170304   6.493   1.221  14.525 -0.5732  0.8117  0.6374
16271TIP3    H270305   6.626   1.229  14.452 -1.1529 -0.2000 -0.5696
16272TIP3   OH270306   1.189   5.745   4.174  0.3810  0.2368 -0.1722
16272TIP3    H170307   1.172   5.828   4.219 -0.5342  0.3000 -0.6043
16272TIP3    H270308   1.151   5.758   4.087 -0.0828 -0.7620 -0.1274
16273TIP3   OH270309   1.993   4.103   1.230  0.1618  0.3839  0.7774
16273TIP3    H170310   1.946   4.126   1.310 -2.4962 -1.1169 -0.1782
16273TIP3    H270311   1.978   4.177   1.171 -1.5067 -0.2293  0.3542
16274TIP3   OH270312   0.763   1.444  16.337 -0.9395 -0.4304 -0.8552
16274TIP3    H170313   0.812   1.501  16.395  0.4983 -1.9433 -0.5215
16274TIP3    H270314   0.677   1.435  16.379 -0.3872 -0.3872  0.3061
16275TIP3   OH270315   2.036   1.680   2.996 -0.1567  0.6995 -0.2879
16275TIP3    H170316   2.087   1.753   2.960 -1.5372  1.5033 -0.6647
16275TIP3    H270317   2.070   1.603   2.950 -1.1579  1.5651 -2.6296
16276TIP3   OH270318   0.918   6.689   4.247 -0.4825  0.1278  0.0600
16276TIP3    H170319   0.972   6.621   4.208  0.3982  1.0992 -0.4574
16276TIP3    H270320   0.880   6.649   4.325  1.7608 -0.2903  0.9912
16277TIP3   OH270321   1.917   2.337   1.375 -0.0545 -0.1850  0.1149
16277TIP3    H170322   1.847   2.286   1.414  0.0773  0.1419  0.8022
16277TIP3    H270323   1.974   2.272   1.333 -0.4611 -0.4990  0.0515
16278TIP3   OH270324   1.784   4.441  15.309  0.3996 -0.4002  0.1815
16278TIP3    H170325   1.834   4.455  15.389  3.0323  1.3762 -1.6164
16278TIP3    H270326   1.834   4.377  15.260 -2.3667 -3.2353  0.7543
16279TIP3   OH270327   2.930   5.343   0.650  0.3890  0.1758 -0.0330
16279TIP3    H170328   3.005   5.377   0.601 -0.3582  0.9431 -0.6821
16279TIP3    H270329   2.889   5.421   0.688 -1.1248  0.0009 -1.2027
16280TIP3   OH270330   1.748   1.345  12.858 -0.1030  0.0159  0.2517
16280TIP3    H170331   1.812   1.409  12.829 -0.2016  0.6782  1.4347
16280TIP3    H270332   1.799   1.267  12.877  0.6931  1.0953  2.9775
16281TIP3   OH270333   3.994   5.544  11.787 -0.7185 -0.0581 -0.0751
16281TIP3    H170334   3.995   5.639  11.776 -0.1748  0.1752  1.6995
16281TIP3    H270335   4.002   5.509  11.698 -1.9245  1.5316 -0.8503
16282TIP3   OH270336   1.202   0.665   2.602  0.0116 -0.5071 -0.2312
16282TIP3    H170337   1.203   0.703   2.689 -0.1705  0.4369 -0.6254
16282TIP3    H270338   1.235   0.735   2.545 -1.2413 -0.5950 -1.1051
16283TIP3   OH270339   5.560   1.899  11.932  0.5647  0.6231 -0.5560
16283TIP3    H170340   5.532   1.973  11.878  1.1993  0.8761 -0.5460
16283TIP3    H270341   5.640   1.868  11.891  0.2887 -0.0766 -0.5688
16284TIP3   OH270342   4.250   6.785  12.976 -0.3638 -0.1895  0.1571
16284TIP3    H170343   4.304   6.809  13.052 -0.9591  0.6841  0.3206
16284TIP3    H270344   4.263   6.856  12.914 -1.3879  0.0845  0.2359
16285TIP3   OH270345   1.546   3.883   4.913 -0.1784  0.2272 -0.4691
16285TIP3    H170346   1.551   3.794   4.949  2.0791 -0.6106 -2.5276
16285TIP3    H270347   1.569   3.940   4.985  3.0145 -1.2712 -0.1095
16286TIP3   OH270348   0.741   0.044   4.239  0.6555 -0.1478  0.0167
16286TIP3    H170349   0.662   0.047   4.184  1.7337 -0.3554 -1.6017
16286TIP3    H270350   0.782  -0.039   4.216  0.8347 -0.5455  1.6387
16287TIP3   OH270351   4.282   3.229   4.558  0.6224  0.6697  0.5628
16287TIP3    H170352   4.376   3.239   4.574  0.6996  2.2445 -0.6236
16287TIP3    H270353   4.267   3.273   4.474 -0.8470 -1.3610 -0.3254
16288TIP3   OH270354   6.281   0.105  12.150 -0.3350  0.5337  0.7988
16288TIP3    H170355   6.232   0.170  12.200 -1.2974 -0.2336  0.8878
16288TIP3    H270356   6.275   0.025  12.203  0.1731  0.1748  0.3205
16289TIP3   OH270357   0.498   1.608   3.848 -0.5255 -0.4825 -0.4930
16289TIP3    H170358   0.490   1.559   3.929  1.9267 -2.3739 -1.2733
16289TIP3    H270359   0.489   1.543   3.779  2.3367  0.1554 -1.5920
16290TIP3   OH270360   3.952   4.049  10.969  0.7237 -0.1206 -0.0639
16290TIP3    H170361   3.882   4.003  10.923 -0.8008  0.6532  1.3867
16290TIP3    H270362   3.953   4.137  10.931  0.4627  0.0677  0.3606
16291TIP3   OH270363   2.058   5.696   0.153 -0.8688 -0.4791  0.3264
16291TIP3    H170364   2.095   5.659   0.234  0.8747  2.3118  0.9741
16291TIP3    H270365   2.001   5.767   0.184 -2.7625 -1.4315 -0.8633
16292TIP3   OH270366   5.437   2.965   2.750  0.1984 -0.0486 -0.6030
16292TIP3    H170367   5.527   2.977   2.778  0.0116 -1.8888  1.0037
16292TIP3    H270368   5.390   3.041   2.784  0.6560 -0.4674  1.0168
16293TIP3   OH270369   1.395   5.349  12.940  0.1606 -0.0740  0.2101
16293TIP3    H170370   1.325   5.412  12.947 -1.2091 -1.5648  0.5519
16293TIP3    H270371   1.358   5.277  12.888  1.8878 -0.2962 -0.7892
16294TIP3   OH270372   5.590   3.501   4.488 -0.1527  0.0367  0.1546
16294TIP3    H170373   5.599   3.437   4.558 -2.9982  0.7424  1.3021
16294TIP3    H270374   5.542   3.455   4.419  1.2646 -0.1827 -0.7229
16295TIP3   OH270375   2.958   5.242   1.452 -0.0540  0.2761  0.2041
16295TIP3    H170376   3.031   5.185   1.476  0.7558  0.7738 -1.0256
16295TIP3    H270377   2.882   5.183   1.447  0.5696 -0.5113 -0.0687
16296TIP3   OH270378   6.651   1.454  13.557 -0.4192  0.1332 -0.1143
16296TIP3    H170379   6.640   1.385  13.492 -0.5708  0.7957 -0.8000
16296TIP3    H270380   6.565   1.462  13.599  0.4239 -2.5078  2.4770
16297TIP3   OH270381   2.970   5.958  11.432 -0.0672  0.1598  0.2351
16297TIP3    H170382   2.887   5.962  11.478 -0.8539  1.9448 -1.2468
16297TIP3    H270383   3.010   6.044  11.445  1.1279 -0.3468  0.1174
16298TIP3   OH270384   0.991   6.655   1.605  0.1187 -0.4190 -0.3530
16298TIP3    H170385   0.900   6.660   1.577  0.4045 -0.7134 -1.3703
16298TIP3    H270386   0.990   6.687   1.695 -0.7026  1.4314 -0.9721
16299TIP3   OH270387   6.374   4.840   2.037 -0.4396 -0.2479  0.1600
16299TIP3    H170388   6.322   4.858   2.115  0.2977 -1.5435  0.9853
16299TIP3    H270389   6.383   4.925   1.995 -0.6953  0.5233  1.5840
16300TIP3   OH270390   5.305   6.789   4.900 -0.6495 -0.3926 -0.4332
16300TIP3    H170391   5.323   6.873   4.856 -1.2475 -0.1867 -0.2936
16300TIP3    H270392   5.391   6.759   4.930 -0.4607  0.2896 -0.2770
16301TIP3   OH270393   5.455   5.231   3.425 -0.4262  0.4985  0.2345
16301TIP3    H170394   5.384   5.228   3.361  0.3113  0.7953 -0.6249
16301TIP3    H270395   5.502   5.312   3.405  0.7098 -0.1593  0.1673
16302TIP3   OH270396   2.099   5.881   2.922  0.2081 -0.2100  0.5196
16302TIP3    H170397   2.065   5.970   2.916 -0.5575 -0.2734  2.9056
16302TIP3    H270398   2.189   5.887   2.889  0.2072  1.4577  0.7324
16303TIP3   OH270399   4.482   2.023   5.893  0.7019  0.2613  0.0759
16303TIP3    H170400   4.442   2.081   5.957  0.8010 -0.2276  0.5812
16303TIP3    H270401   4.479   2.073   5.811 -0.2349  0.5297  0.2660
16304TIP3   OH270402   5.734   5.832   0.947 -0.0076  0.2527  0.0725
16304TIP3    H170403   5.794   5.780   1.001 -0.1631  0.1536  0.1506
16304TIP3    H270404   5.790   5.874   0.883  0.2355  0.7465  0.6072
16305TIP3   OH270405   4.046   3.936  15.055 -0.1272  0.8903  0.1236
16305TIP3    H170406   3.956   3.943  15.022 -0.9088 -1.2993  1.5651
16305TIP3    H270407   4.090   3.877  14.993  0.2531  1.7169 -0.4093
16306TIP3   OH270408   1.638   2.129   2.937  0.0005  0.4443 -1.0378
16306TIP3    H170409   1.591   2.129   3.020  1.9129  1.3700  0.1029
16306TIP3    H270410   1.570   2.110   2.872 -1.7024  0.4832  0.6226
16307TIP3   OH270411   5.893   5.256   5.462  0.3977 -0.2654  0.5534
16307TIP3    H170412   5.865   5.347   5.449 -0.5749 -0.4858  0.9550
16307TIP3    H270413   5.865   5.211   5.382 -1.6810 -0.7510  1.4798
16308TIP3   OH270414   0.892   0.006  15.371 -0.0995  0.3776 -0.5409
16308TIP3    H170415   0.973   0.057  15.375 -0.1818  0.5420 -0.8922
16308TIP3    H270416   0.920  -0.085  15.371 -0.0121  0.2894  2.5996
16309TIP3   OH270417   6.763   4.705   3.918  0.1308  0.4777 -0.0013
16309TIP3    H170418   6.744   4.773   3.853 -3.3050 -0.0835  0.2365
16309TIP3    H270419   6.806   4.753   3.989 -1.9582  2.4659  0.0610
16310TIP3   OH270420   5.450   0.486   4.867 -0.5091  0.6771 -0.5605
16310TIP3    H170421   5.480   0.509   4.779 -0.5902 -1.5566 -1.2307
16310TIP3    H270422   5.355   0.480   4.859 -0.5074  0.3447 -0.3491
16311TIP3   OH270423   5.152   3.167  13.060  0.1592  0.5827  0.2546
16311TIP3    H170424   5.105   3.116  13.126  0.7825  1.1001  1.1130
16311TIP3    H270425   5.143   3.258  13.088  2.3779  0.6499  0.9427
16312TIP3   OH270426   6.514   1.485   3.409 -0.5189 -0.1179 -0.4246
16312TIP3    H170427   6.480   1.450   3.491 -1.3613 -2.0637 -1.5247
16312TIP3    H270428   6.450   1.552   3.384  0.7015  1.8188  1.3298
16313TIP3   OH270429   5.568   0.187   5.010 -0.2699 -0.6494 -0.0331
16313TIP3    H170430   5.504   0.222   4.946  0.7874  1.0227 -0.2469
16313TIP3    H270431   5.558   0.244   5.086  3.7905  2.6642 -1.5560
16314TIP3   OH270432   5.230   0.607  11.789 -0.4005 -0.2561  0.0871
16314TIP3    H170433   5.253   0.626  11.880  1.1569 -2.0578  0.1382
16314TIP3    H270434   5.290   0.662  11.738  0.1309 -0.7250  0.1901
16315TIP3   OH270435   6.318   2.719  13.281 -0.2265  0.1227 -0.4463
16315TIP3    H170436   6.296   2.664  13.205 -1.8091  0.9881 -0.6524
16315TIP3    H270437   6.405   2.689  13.307 -0.1055 -0.9472 -1.9228
16316TIP3   OH270438   1.644   1.026  13.939  0.0386 -0.0831  0.0183
16316TIP3    H170439   1.672   1.005  14.028 -0.4853 -1.0255 -0.0246
16316TIP3    H270440   1.714   1.081  13.904 -0.5762  1.8452  1.6167
16317TIP3   OH270441   6.150   2.058   2.080 -0.1068  0.1026  0.1291
16317TIP3    H170442   6.225   2.112   2.056 -0.8565  0.9024 -0.4867
16317TIP3    H270443   6.077   2.094   2.029 -1.2897  0.4310  1.9708
16318TIP3   OH270444   1.082   5.776  12.581 -0.5182 -0.6218 -0.2778
16318TIP3    H170445   1.122   5.722  12.650 -2.1053 -2.0660 -0.4205
16318TIP3    H270446   0.999   5.805  12.619 -1.3125 -1.2463 -1.4524
16319TIP3   OH270447   1.091   0.013   5.335 -0.0320  0.5902  0.4406
16319TIP3    H170448   1.031   0.062   5.392 -1.0769  0.5233 -0.5532
16319TIP3    H270449   1.127   0.079   5.276 -1.3615  0.2287 -0.8325
16320TIP3   OH270450   6.283   4.757  13.280 -0.2955  0.1704  0.5085
16320TIP3    H170451   6.272   4.667  13.309 -0.1966 -0.2379 -0.7085
16320TIP3    H270452   6.296   4.806  13.362  3.6568 -1.4485  1.0629
16321TIP3   OH270453   4.330   5.847   1.703  0.5200 -0.0163 -0.0124
16321TIP3    H170454   4.241   5.851   1.669  0.4695 -0.6579  0.0200
16321TIP3    H270455   4.382   5.900   1.643 -0.0206  1.0775  0.4520
16322TIP3   OH270456   4.361   4.076   2.186 -0.0803  0.2431  0.6245
16322TIP3    H170457   4.428   4.136   2.218  0.9524 -0.3780 -0.3299
16322TIP3    H270458   4.406   4.018   2.125 -0.7417 -2.3910  2.4530
16323TIP3   OH270459   6.414   1.122  11.260  0.0022 -0.1927 -0.1401
16323TIP3    H170460   6.373   1.158  11.339  0.4727 -1.7760  0.8891
16323TIP3    H270461   6.494   1.173  11.249  1.6758 -2.0262  2.4373
16324TIP3   OH270462   3.346   0.391   0.341  0.1381 -0.3684  0.1073
16324TIP3    H170463   3.423   0.444   0.318  0.0201 -0.1689  0.1666
16324TIP3    H270464   3.347   0.388   0.436  0.0434 -0.3219  0.1095
16325TIP3   OH270465   0.683   4.921   1.621  0.5011  0.0141  0.0060
16325TIP3    H170466   0.707   4.894   1.533 -0.5673 -2.0252  0.2771
16325TIP3    H270467   0.724   4.855   1.678 -0.7536 -0.0868  0.8438
16326TIP3   OH270468   6.560   0.218  15.356 -0.0525  0.0116  0.0403
16326TIP3    H170469   6.486   0.277  15.347  0.6632  0.9284  0.0816
16326TIP3    H270470   6.614   0.257  15.425  0.6186 -0.4926 -0.1922
16327TIP3   OH270471   5.317   3.217  12.790 -0.8885  0.6168 -0.2961
16327TIP3    H170472   5.270   3.200  12.872 -0.9254  0.1604 -0.4116
16327TIP3    H270473   5.404   3.246  12.818 -0.5191 -0.6220 -0.0962
16328TIP3   OH270474   6.520   3.835  11.510  0.3094 -0.0830  0.1139
16328TIP3    H170475   6.529   3.764  11.446 -0.5093 -0.9493  0.9272
16328TIP3    H270476   6.473   3.795  11.584  2.2469  0.5391  1.7817
16329TIP3   OH270477   4.014   4.153   2.570  0.0779 -0.0400 -0.3000
16329TIP3    H170478   3.964   4.117   2.643  1.2941  0.7898  0.9901
16329TIP3    H270479   3.949   4.203   2.519 -0.6546  0.0073  0.6462
16330TIP3   OH270480   2.889   3.065   3.895  0.1472  0.2606  0.1738
16330TIP3    H170481   2.867   3.115   3.816 -1.3882 -0.8822 -0.1789
16330TIP3    H270482   2.829   3.099   3.961  1.6598  1.4539  1.0067
16331TIP3   OH270483   0.608   3.140   0.062  0.2988  0.3093  0.3024
16331TIP3    H170484   0.696   3.118   0.032  0.3060 -0.1551  0.6591
16331TIP3    H270485   0.549   3.097   0.000  0.3183  0.1865  0.3701
16332TIP3   OH270486   1.670   2.640  13.268 -0.2293 -0.4187  0.4818
16332TIP3    H170487   1.667   2.684  13.354  0.3278  2.0914 -0.6748
16332TIP3    H270488   1.599   2.680  13.218  0.7380 -0.2964 -0.8605
16333TIP3   OH270489   1.159   6.438   3.897 -0.1464 -0.4787 -0.4411
16333TIP3    H170490   1.067   6.463   3.891 -0.2953 -0.5745  0.9705
16333TIP3    H270491   1.166   6.360   3.843 -0.4560  0.5748 -2.0737
16334TIP3   OH270492   5.087   5.264  15.974  0.1465  0.4777  0.1038
16334TIP3    H170493   5.088   5.168  15.977  2.4997  0.4325 -0.2714
16334TIP3    H270494   5.006   5.285  15.929  0.5694 -1.4512 -1.7574
16335TIP3   OH270495   3.102   6.177  17.092  0.1042  0.2457  0.0196
16335TIP3    H170496   3.087   6.271  17.087 -0.0492  0.1937 -0.5133
16335TIP3    H270497   3.062   6.151  17.175  1.0365  0.8076  0.6584
16336TIP3   OH270498   4.316   4.393   5.799 -0.2109  0.5324 -0.4461
16336TIP3    H170499   4.405   4.387   5.833  0.2531  1.4961 -1.4359
16336TIP3    H270500   4.302   4.313   5.750  0.1591  0.4397 -0.3999
16337TIP3   OH270501   6.743   3.797  16.511 -0.1475 -0.5267  0.4315
16337TIP3    H170502   6.740   3.709  16.472 -3.4132 -0.5489  0.4762
16337TIP3    H270503   6.755   3.856  16.437  0.3619 -0.8913  0.2104
16338TIP3   OH270504   5.443   6.705   5.551 -0.4670 -0.6544 -0.1054
16338TIP3    H170505   5.458   6.779   5.492 -0.6985 -0.8365 -0.3958
16338TIP3    H270506   5.531   6.682   5.582 -0.1574 -1.4538 -1.4836
16339TIP3   OH270507   6.029   1.230  11.545 -0.3177  0.0117  0.0599
16339TIP3    H170508   6.024   1.291  11.472 -1.0175 -0.1526 -0.0333
16339TIP3    H270509   6.089   1.161  11.515  1.4766  1.2591  0.6325
16340TIP3   OH270510   0.625   4.821   3.683 -0.1253  0.2017 -0.0774
16340TIP3    H170511   0.647   4.877   3.608  1.3410  0.2864  0.3771
16340TIP3    H270512   0.704   4.822   3.737 -0.9598 -0.3162  1.1944
16341TIP3   OH270513   0.014   2.481   0.684  0.1838  0.2603 -0.1632
16341TIP3    H170514   0.060   2.401   0.709  0.4124  0.1585 -0.8825
16341TIP3    H270515   0.049   2.548   0.743  0.4536 -0.0430  0.0247
16342TIP3   OH270516   4.311   1.722   0.800  0.3671 -0.4385 -0.0919
16342TIP3    H170517   4.398   1.713   0.761  0.3171  1.3146 -0.6696
16342TIP3    H270518   4.328   1.755   0.889  0.3199 -0.8876  0.0859
16343TIP3   OH270519   4.587   1.075  14.986 -0.0669 -0.0230 -0.3196
16343TIP3    H170520   4.614   1.161  15.017  0.1688 -0.2680  0.1593
16343TIP3    H270521   4.653   1.051  14.921  0.4268 -0.2752  0.2699
16344TIP3   OH270522   1.184   0.893  15.266  0.3123 -0.5264 -0.1777
16344TIP3    H170523   1.122   0.881  15.194 -1.0794 -0.2460  0.9531
16344TIP3    H270524   1.131   0.896  15.345  1.8497 -1.3156  0.9511
16345TIP3   OH270525   3.615   0.665   0.711 -0.3736  0.4191  0.3515
16345TIP3    H170526   3.549   0.722   0.671  1.1648  0.7640 -1.9028
16345TIP3    H270527   3.696   0.716   0.707  1.0820 -1.7799 -1.7513
16346TIP3   OH270528   0.878   1.359   1.497 -0.0673  0.1898 -0.1741
16346TIP3    H170529   0.841   1.446   1.510  0.5598  0.2138  1.6006
16346TIP3    H270530   0.828   1.302   1.555  0.3572 -0.4221 -0.3941
16347TIP3   OH270531   3.257   0.342   0.997  0.2853 -0.0056 -0.0811
16347TIP3    H170532   3.259   0.298   1.082  2.1563 -3.1047 -1.5472
16347TIP3    H270533   3.167   0.328   0.965  0.5252 -1.9360 -0.0265
16348TIP3   OH270534   5.386   4.946  16.194 -0.1370  0.0283  0.2483
16348TIP3    H170535   5.322   4.901  16.139 -0.6356  1.3219 -0.2649
16348TIP3    H270536   5.409   4.882  16.261  0.9931 -1.8887 -1.7977
16349TIP3   OH270537   5.994   2.031  11.515 -0.2058  0.2421  0.1203
16349TIP3    H170538   6.076   1.982  11.516 -0.1611  0.3129 -0.1040
16349TIP3    H270539   6.001   2.091  11.589 -0.0848  0.1995  0.1429
16350TIP3   OH270540   3.560   6.839  16.796 -0.3792  0.1665 -0.3623
16350TIP3    H170541   3.506   6.858  16.720 -2.5019 -2.6065  0.2835
16350TIP3    H270542   3.625   6.776  16.763 -1.1369 -0.8327 -0.0133
16351TIP3   OH270543   5.365   6.077   2.418  0.2739  0.1932 -0.4556
16351TIP3    H170544   5.376   5.984   2.400 -1.5937 -0.0522 -0.5897
16351TIP3    H270545   5.341   6.081   2.511  1.7711  0.7026 -0.0640
16352TIP3   OH270546   6.371   2.749  12.396 -0.9908  0.8157  0.1209
16352TIP3    H170547   6.402   2.838  12.380 -0.3570  0.3701 -1.2403
16352TIP3    H270548   6.299   2.737  12.334 -0.5538  0.1165 -0.2652
16353TIP3   OH270549   5.813   4.452  11.737 -0.0706 -0.2108 -0.3178
16353TIP3    H170550   5.834   4.484  11.649 -1.2343  3.2105  0.5164
16353TIP3    H270551   5.885   4.483  11.792 -0.6059 -0.1069  0.3398
16354TIP3   OH270552   0.644   4.643   1.422  0.3353 -0.2414  0.2606
16354TIP3    H170553   0.659   4.735   1.402  0.6252 -0.2981  0.2149
16354TIP3    H270554   0.554   4.627   1.395  0.1690  0.1179  0.5980
16355TIP3   OH270555   0.036   0.543  13.364 -0.5838  0.4376  0.5079
16355TIP3    H170556   0.008   0.497  13.284  0.1540 -0.8470  0.9556
16355TIP3    H270557   0.088   0.616  13.333 -0.5255  0.1010 -0.2058
16356TIP3   OH270558   3.395   4.209  10.808  0.1073 -0.1852  0.0815
16356TIP3    H170559   3.461   4.188  10.742 -0.0862  1.2948 -0.6211
16356TIP3    H270560   3.436   4.188  10.892  1.0130 -0.4302 -0.4166
16357TIP3   OH270561   4.911   6.645  14.237 -0.0512 -0.3520  0.1039
16357TIP3    H170562   4.993   6.605  14.265 -1.1256 -1.1981  2.2771
16357TIP3    H270563   4.842   6.592  14.279 -1.6169  1.9977  0.7190
16358TIP3   OH270564   0.394   1.430  16.295  0.1349  0.0113  0.2531
16358TIP3    H170565   0.421   1.467  16.379  0.3229  0.3081  0.0648
16358TIP3    H270566   0.423   1.494  16.230  0.5326 -0.4973 -0.0858
16359TIP3   OH270567   6.453   1.783   4.827  0.6215 -0.3649  0.2351
16359TIP3    H170568   6.537   1.825   4.841 -0.0043  1.0700 -0.1745
16359TIP3    H270569   6.436   1.792   4.734 -0.1569 -0.3208  0.3760
16360TIP3   OH270570   4.216   3.942  10.923  0.0473  0.3241  0.0575
16360TIP3    H170571   4.204   3.849  10.942 -1.5879  0.6083  0.5891
16360TIP3    H270572   4.130   3.970  10.891  1.1044  1.1825 -2.2457
16361TIP3   OH270573   3.176   3.002   5.299  0.4101  0.4116  0.2869
16361TIP3    H170574   3.156   2.909   5.311  2.0440  0.2548  2.3104
16361TIP3    H270575   3.091   3.046   5.310 -0.3086 -0.7870 -0.2432
16362TIP3   OH270576   1.099   5.563  13.331 -0.0287 -0.1839 -0.3907
16362TIP3    H170577   1.167   5.610  13.282  0.7084 -0.3710  0.4424
16362TIP3    H270578   1.023   5.564  13.272  0.5837  0.3175 -1.1969
16363TIP3   OH270579   4.079   4.827   4.149  0.5239 -0.2078  0.3985
16363TIP3    H170580   4.130   4.820   4.229  1.2293  0.3811  0.0105
16363TIP3    H270581   4.138   4.867   4.085  0.1252 -1.0903 -0.5560
16364TIP3   OH270582   4.725   1.547  11.266  0.4811  0.5422  0.2139
16364TIP3    H170583   4.654   1.521  11.207 -0.1482  1.7500  0.4083
16364TIP3    H270584   4.779   1.468  11.274 -0.1634 -0.0435 -0.8988
16365TIP3   OH270585   3.097   5.817   3.780 -0.6119 -0.0782  0.6969
16365TIP3    H170586   3.189   5.840   3.768  0.0867 -2.1072  1.5966
16365TIP3    H270587   3.054   5.846   3.700  0.5591  1.9264  0.7212
16366TIP3   OH270588   3.553   0.980  15.987 -0.5200  0.3314  0.3580
16366TIP3    H170589   3.573   0.918  16.058 -1.1376  2.4185  2.4731
16366TIP3    H270590   3.497   1.046  16.028 -2.4776  0.6727 -2.5792
16367TIP3   OH270591   4.547   0.117  13.391 -0.2845 -0.7335 -0.2451
16367TIP3    H170592   4.575   0.056  13.459 -0.4583 -0.8416 -0.2721
16367TIP3    H270593   4.576   0.078  13.309  2.7481  0.8378 -0.1022
16368TIP3   OH270594   3.416   0.405   1.838 -0.5082  0.0098 -0.2428
16368TIP3    H170595   3.485   0.423   1.902 -1.0643 -1.6803  0.8914
16368TIP3    H270596   3.463   0.363   1.765 -0.0548  0.8108 -0.4275
16369TIP3   OH270597   2.855   5.837  15.560 -0.0237 -0.1181  0.2470
16369TIP3    H170598   2.822   5.778  15.628 -0.8472  1.4614  1.2933
16369TIP3    H270599   2.912   5.898  15.608  1.4659 -0.5293 -0.9352
16370TIP3   OH270600   2.886   0.852  15.807 -0.2256 -0.0434 -0.0524
16370TIP3    H170601   2.834   0.867  15.729 -2.5919  1.2505  1.6342
16370TIP3    H270602   2.956   0.918  15.803 -0.2664 -0.0544 -1.0857
16371TIP3   OH270603   3.437   1.927  16.104  0.6517  0.5447  0.3748
16371TIP3    H170604   3.437   1.958  16.194  0.2818  0.1319  0.5186
16371TIP3    H270605   3.508   1.864  16.100  2.4126  2.4400 -0.2953
16372TIP3   OH270606   2.185   0.997   1.687 -0.2948  0.0775  0.3813
16372TIP3    H170607   2.176   1.041   1.772  0.9973  2.2076 -0.5333
16372TIP3    H270608   2.268   0.950   1.693  0.6165  1.5409 -0.2069
16373TIP3   OH270609   4.655   4.654  12.780  0.0205 -0.0789 -0.0696
16373TIP3    H170610   4.637   4.736  12.735 -0.5106 -0.3302 -0.3387
16373TIP3    H270611   4.703   4.679  12.859  3.6141  0.1675 -2.1186
16374TIP3   OH270612   1.801   5.142  14.240  0.0483  0.1427  0.0839
16374TIP3    H170613   1.891   5.128  14.268  0.1218  1.2206  0.4352
16374TIP3    H270614   1.790   5.238  14.241 -0.8447  0.0667 -0.7441
16375TIP3   OH270615   0.308   1.534  15.995  0.1500  0.0102 -0.1750
16375TIP3    H170616   0.323   1.625  16.019 -0.6170  0.0581  0.1747
16375TIP3    H270617   0.257   1.538  15.914 -0.4118 -0.0851  0.1630
16376TIP3   OH270618   3.387   3.351  12.166  0.0922  0.3467 -0.2678
16376TIP3    H170619   3.410   3.261  12.143 -1.7339 -0.8776  2.1572
16376TIP3    H270620   3.299   3.363  12.130 -0.4679  0.4358  1.0964
16377TIP3   OH270621   0.421   1.161  15.206 -0.0977  0.4252 -0.0530
16377TIP3    H170622   0.332   1.181  15.179  0.6431  1.6150 -1.8247
16377TIP3    H270623   0.417   1.070  15.237 -1.5944 -0.1510 -1.7620
16378TIP3   OH270624   0.614   6.599  13.538  0.1489 -0.4374  0.6847
16378TIP3    H170625   0.670   6.581  13.614  0.9617  0.8243  0.4180
16378TIP3    H270626   0.544   6.655  13.572  0.9187  0.7460  0.4099
16379TIP3   OH270627   0.889   3.407  14.059  0.2357 -0.2660 -0.1308
16379TIP3    H170628   0.877   3.443  13.971 -0.5461 -0.1655  0.0065
16379TIP3    H270629   0.938   3.326  14.045  0.3244 -0.1308 -0.6353
16380TIP3   OH270630   3.404   6.191   0.027  0.3272  0.6685 -0.4118
16380TIP3    H170631   3.323   6.145   0.001  0.7005 -1.0899  1.3220
16380TIP3    H270632   3.472   6.124   0.020  1.2442  1.5112  0.3312
16381TIP3   OH270633   0.891   3.262   0.433  0.1405 -0.0795 -0.2711
16381TIP3    H170634   0.957   3.259   0.364 -0.5103 -1.0849 -0.8751
16381TIP3    H270635   0.851   3.175   0.433  0.4236 -0.2626  1.6923
16382TIP3   OH270636   2.384   0.296  12.481  0.0406  0.1444  0.2114
16382TIP3    H170637   2.456   0.355  12.463  0.2187 -0.2190 -0.2997
16382TIP3    H270638   2.312   0.353  12.508  0.2074  0.5966 -0.2800
16383TIP3   OH270639   5.566   2.077   4.454 -0.5711  0.2351  0.5592
16383TIP3    H170640   5.532   2.034   4.533  1.4721 -1.1887  0.7202
16383TIP3    H270641   5.655   2.102   4.477  1.1003 -2.6559 -2.0372
16384TIP3   OH270642   1.204   5.368   1.763  0.3567  0.1200  0.6058
16384TIP3    H170643   1.265   5.405   1.828  0.2515 -0.8197  1.2661
16384TIP3    H270644   1.215   5.273   1.771 -0.0395 -0.0244 -0.4047
16385TIP3   OH270645   4.490   6.315  12.960 -0.3237  0.1557 -0.2321
16385TIP3    H170646   4.466   6.402  12.990 -0.6930  0.2563 -0.7915
16385TIP3    H270647   4.432   6.299  12.885 -0.4790 -0.6913  0.0545
16386TIP3   OH270648   3.402   3.166   1.624 -0.2250  0.5096 -0.2263
16386TIP3    H170649   3.384   3.169   1.718 -0.0606 -0.1029 -0.1661
16386TIP3    H270650   3.327   3.120   1.586  0.8980 -1.6605 -0.0282
16387TIP3   OH270651   2.736   5.941   3.596  0.0166  0.0071  0.2568
16387TIP3    H170652   2.704   6.025   3.631 -1.8393  0.0340 -1.3316
16387TIP3    H270653   2.829   5.956   3.580 -0.2291  1.7069  0.2328
16388TIP3   OH270654   0.137   2.777  16.590 -0.0918 -0.2800 -0.2245
16388TIP3    H170655   0.169   2.695  16.552 -1.3228 -0.4364 -0.9558
16388TIP3    H270656   0.215   2.833  16.593  0.7292 -1.3909  0.1064
16389TIP3   OH270657   1.256   4.411   2.059 -0.1829 -0.2184 -0.0707
16389TIP3    H170658   1.304   4.364   1.992 -0.5820  0.4604 -0.8473
16389TIP3    H270659   1.185   4.352   2.084  0.8845 -1.1374  0.9320
16390TIP3   OH270660   2.097   2.795  12.743 -0.4470  0.1795 -0.0922
16390TIP3    H170661   2.005   2.772  12.729  0.2017 -1.4900 -2.1194
16390TIP3    H270662   2.146   2.729  12.693  1.8529  1.1580  0.7453
16391TIP3   OH270663   1.334   2.292  16.469  0.3113 -0.1150  0.1216
16391TIP3    H170664   1.290   2.371  16.502 -0.2467 -0.7509  0.9464
16391TIP3    H270665   1.263   2.234  16.444  0.7204 -0.4423 -0.2987
16392TIP3   OH270666   4.089   2.346  11.819 -0.1256 -0.6797  0.0012
16392TIP3    H170667   4.123   2.375  11.735 -0.0653  1.3905  0.7035
16392TIP3    H270668   4.159   2.364  11.882 -0.8364 -0.5247  0.7712
16393TIP3   OH270669   0.828   3.474   3.032 -0.1448  0.3858  0.1309
16393TIP3    H170670   0.818   3.553   3.085  0.5852  0.0226  0.8302
16393TIP3    H270671   0.739   3.455   3.001 -0.5609  0.7375  1.0489
16394TIP3   OH270672   6.423   4.002   0.619  0.1978 -0.1652 -0.2099
16394TIP3    H170673   6.497   4.059   0.638  0.4878 -0.9141  1.0634
16394TIP3    H270674   6.437   3.973   0.529  1.2375  0.0230 -0.1180
16395TIP3   OH270675   3.751   6.824  11.143  0.0630 -0.2865 -0.2149
16395TIP3    H170676   3.729   6.733  11.120  1.2448 -0.6932  0.2128
16395TIP3    H270677   3.828   6.845  11.090  1.2423 -0.3646  1.3927
16396TIP3   OH270678   3.384   3.441   5.919  0.1852  0.1583 -0.7430
16396TIP3    H170679   3.464   3.389   5.908 -0.7245 -1.0561 -1.9258
16396TIP3    H270680   3.412   3.532   5.907  1.3619 -0.2627 -1.2682
16397TIP3   OH270681   3.669   1.760   4.620  0.5315  0.0604  0.4244
16397TIP3    H170682   3.638   1.840   4.577  1.9556  0.4959  0.1376
16397TIP3    H270683   3.618   1.754   4.701  1.2572  1.9630  1.0744
16398TIP3   OH270684   4.529   3.957   1.960  0.8218 -0.3131  0.6746
16398TIP3    H170685   4.560   3.877   2.001  2.8121 -0.4420 -0.9357
16398TIP3    H270686   4.453   3.930   1.908  1.3388 -1.1291  0.3227
16399TIP3   OH270687   3.841   2.005  16.073 -0.3544 -0.0967 -0.1664
16399TIP3    H170688   3.817   2.072  16.009  0.7154  1.1042  0.6230
16399TIP3    H270689   3.795   2.032  16.153  0.3941 -0.0521  0.2622
16400TIP3   OH270690   3.080   6.196  11.445  0.0169 -0.1080 -0.2222
16400TIP3    H170691   3.164   6.243  11.443 -0.9061  1.6174 -2.7573
16400TIP3    H270692   3.014   6.264  11.432 -1.4974 -1.8702 -2.4140
16401TIP3   OH270693   6.207   4.294  16.707 -0.4028  0.3023 -0.1479
16401TIP3    H170694   6.237   4.344  16.632  2.5672 -0.1802  0.5645
16401TIP3    H270695   6.178   4.359  16.771 -1.0502  0.8071 -0.9488
16402TIP3   OH270696   5.915   5.366   2.700  0.4049  0.0024  0.0513
16402TIP3    H170697   5.881   5.417   2.774 -0.4403  1.0214 -0.9972
16402TIP3    H270698   5.838   5.318   2.667  0.0492  1.7444 -1.8789
16403TIP3   OH270699   0.371   1.212  12.231  0.0449  0.3130  0.0908
16403TIP3    H170700   0.279   1.215  12.257  0.5389  2.8752  1.9516
16403TIP3    H270701   0.415   1.168  12.305  0.4413 -0.0303 -0.3425
16404TIP3   OH270702   4.484   6.733   0.853  0.2388  0.2138  0.0122
16404TIP3    H170703   4.523   6.667   0.796  0.2374  1.6531 -1.7073
16404TIP3    H270704   4.397   6.699   0.872  2.0449 -3.1005  3.9836
16405TIP3   OH270705   4.727   0.501  13.413 -0.0495 -0.2960 -0.0518
16405TIP3    H170706   4.647   0.539  13.450 -1.8193 -1.7212 -2.1610
16405TIP3    H270707   4.774   0.576  13.377 -2.5529  0.3091 -2.4779
16406TIP3   OH270708   4.422   2.422   3.496  0.0344  0.1284  0.5383
16406TIP3    H170709   4.440   2.383   3.411  0.9027  0.9042  0.3533
16406TIP3    H270710   4.327   2.414   3.507 -0.4555  2.0536 -1.5311
16407TIP3   OH270711   0.689   6.832   3.575 -0.4558 -0.3669  0.0488
16407TIP3    H170712   0.721   6.771   3.508  0.8114 -1.2325  1.3498
16407TIP3    H270713   0.594   6.828   3.568 -0.3645 -1.1542 -1.0676
16408TIP3   OH270714   5.361   1.990   2.526  0.6934 -0.2785 -0.7863
16408TIP3    H170715   5.274   1.995   2.565  2.1368  0.9266  2.6123
16408TIP3    H270716   5.374   2.075   2.485  0.4572 -0.3183 -0.9505
16409TIP3   OH270717   4.293   2.495  10.819 -0.1878 -0.2443 -0.4401
16409TIP3    H170718   4.370   2.443  10.843 -0.3944 -0.3356  0.0227
16409TIP3    H270719   4.325   2.552  10.748  0.4331  0.0481  0.0663
16410TIP3   OH270720   2.440   4.484  16.400  0.5923  0.3236  0.4069
16410TIP3    H170721   2.533   4.504  16.412  1.1020 -1.7606  0.2063
16410TIP3    H270722   2.436   4.432  16.320 -0.3345 -2.1053  1.9326
16411TIP3   OH270723   4.823   6.534  11.045 -0.0740  0.6023  0.1500
16411TIP3    H170724   4.860   6.593  11.111 -1.5701  2.0103 -0.2032
16411TIP3    H270725   4.844   6.574  10.961  3.4444 -2.1314 -0.4842
16412TIP3   OH270726   2.951   1.972  11.808 -0.1138  0.4634  0.5673
16412TIP3    H170727   2.980   1.953  11.719  1.2415 -0.2629  1.1314
16412TIP3    H270728   2.924   1.888  11.844  0.6149  0.5179  1.2683
16413TIP3   OH270729   4.328   4.128   4.009 -0.0506  0.1007  0.3216
16413TIP3    H170730   4.423   4.122   4.024 -0.2456 -0.0490  1.5830
16413TIP3    H270731   4.315   4.216   3.973  0.2518  1.2908  2.9292
16414TIP3   OH270732   2.708   6.098  13.913  0.4834  0.6545 -0.6142
16414TIP3    H170733   2.704   6.012  13.871 -2.8744  0.9751 -1.2517
16414TIP3    H270734   2.706   6.160  13.840  1.2373  1.2838 -0.1114
16415TIP3   OH270735   1.808   4.324  16.976  0.1813 -0.2485 -0.3104
16415TIP3    H170736   1.713   4.315  16.982  0.2631 -0.7781  0.3455
16415TIP3    H270737   1.822   4.383  16.902 -0.6461 -0.3863 -0.5891
16416TIP3   OH270738   5.252   1.566  16.114 -0.1741  0.1360  0.5579
16416TIP3    H170739   5.253   1.658  16.088  0.9983  0.1141  0.4671
16416TIP3    H270740   5.334   1.554  16.160 -0.7287 -0.6579  1.3676
16417TIP3   OH270741   3.165   3.563  15.683  0.6712  0.2985  0.5602
16417TIP3    H170742   3.132   3.628  15.621  0.1541  0.7701  1.3164
16417TIP3    H270743   3.220   3.614  15.744 -0.2887  0.1667  1.5703
16418TIP3   OH270744   0.079   1.514  13.652  0.4468  0.2737  0.1052
16418TIP3    H170745   0.095   1.588  13.710  0.8757 -1.4484  2.3314
16418TIP3    H270746  -0.013   1.491  13.666  0.7779 -0.6896  0.8287
16419TIP3   OH270747   2.763   3.751   5.225 -0.8215 -0.3008 -0.2902
16419TIP3    H170748   2.730   3.661   5.221  0.8678 -1.1536  2.1680
16419TIP3    H270749   2.858   3.741   5.225 -0.5485  1.1978  2.5616
16420TIP3   OH270750   5.027   2.634   2.073  0.7407  0.3543 -0.0803
16420TIP3    H170751   5.068   2.686   2.004 -1.3094 -0.3204 -1.9531
16420TIP3    H270752   4.986   2.561   2.026 -1.2917  0.1998  1.7603
16421TIP3   OH270753   4.103   4.810  12.743  0.4186  0.1242  0.5721
16421TIP3    H170754   4.085   4.725  12.702  1.0007  0.1878  0.1805
16421TIP3    H270755   4.022   4.859  12.731  1.6003  1.4091 -3.6492
16422TIP3   OH270756   1.075   3.943  16.838 -0.3508 -0.3040  0.1937
16422TIP3    H170757   0.990   3.905  16.857 -1.1896  0.4395 -1.7720
16422TIP3    H270758   1.072   4.030  16.878  0.0816 -0.8245  1.3909
16423TIP3   OH270759   1.081   4.134  10.569 -1.0469  0.1257 -0.1029
16423TIP3    H170760   1.127   4.206  10.525 -1.4052  0.2054 -0.3491
16423TIP3    H270761   1.056   4.074  10.499 -0.1805 -0.5737  0.1666
16424TIP3   OH270762   0.695   3.783  11.164 -0.3833 -0.0315 -0.1478
16424TIP3    H170763   0.689   3.706  11.219 -1.3934  0.9227  1.1330
16424TIP3    H270764   0.787   3.789  11.141 -0.0362 -0.7563  0.9942
16425TIP3   OH270765   6.363   3.277  14.085 -0.0437 -0.4013  0.5631
16425TIP3    H170766   6.452   3.312  14.081  0.3140 -1.2961  0.4968
16425TIP3    H270767   6.356   3.220  14.008 -0.8346  0.0264  0.3111
16426TIP3   OH270768   5.510   2.153  12.824 -0.2116 -0.2464  0.6316
16426TIP3    H170769   5.496   2.104  12.905 -2.4568 -1.9228 -0.6727
16426TIP3    H270770   5.568   2.097  12.772  0.4474  0.3842  0.6633
16427TIP3   OH270771   6.639   4.723  16.340 -0.4264  0.2204 -0.3063
16427TIP3    H170772   6.592   4.760  16.415 -1.0840 -1.7963  0.3301
16427TIP3    H270773   6.698   4.658  16.378  1.1758  1.0168 -1.3334
16428TIP3   OH270774   4.214   0.333   4.597 -0.4714  0.0219 -0.0531
16428TIP3    H170775   4.199   0.244   4.629 -1.4136  0.1589 -0.0794
16428TIP3    H270776   4.132   0.379   4.614 -0.0395  0.8527 -0.1613
16429TIP3   OH270777   2.353   2.092  16.541 -0.2432 -0.0353 -0.1928
16429TIP3    H170778   2.270   2.138  16.531 -0.1184  0.5978  1.3390
16429TIP3    H270779   2.333   2.001  16.520 -1.2077  0.1975 -0.3083
16430TIP3   OH270780   5.769   2.232  14.003  0.5313 -0.1089 -0.0721
16430TIP3    H170781   5.860   2.232  14.032  0.8059 -0.9383 -0.8713
16430TIP3    H270782   5.755   2.143  13.970 -0.3601  0.2145 -0.5955
16431TIP3   OH270783   5.542   6.745   3.457 -0.3418 -0.0382  0.1745
16431TIP3    H170784   5.575   6.809   3.519  0.2775 -0.4485  0.2800
16431TIP3    H270785   5.556   6.660   3.499 -0.3740 -0.2927 -0.3115
16432TIP3   OH270786   6.738   3.345   2.133 -0.3102  0.4635 -0.2912
16432TIP3    H170787   6.753   3.256   2.163  1.2664  0.5486 -0.7224
16432TIP3    H270788   6.752   3.399   2.211 -0.3548  0.3999 -0.2393
16433TIP3   OH270789   6.664   3.182   1.295 -0.5818 -0.1994 -0.3235
16433TIP3    H170790   6.569   3.178   1.305 -0.5758  0.2560 -0.0287
16433TIP3    H270791   6.695   3.096   1.322 -1.0556 -1.0382 -2.3027
16434TIP3   OH270792   2.426   6.290  12.257  0.1141  0.2800 -0.0477
16434TIP3    H170793   2.481   6.229  12.305 -1.1546 -0.2110  0.8135
16434TIP3    H270794   2.442   6.269  12.165 -0.6156 -1.6611  0.2264
16435TIP3   OH270795   3.256   3.091  13.672  0.3009 -0.5799  0.0170
16435TIP3    H170796   3.223   3.174  13.636  0.1188 -0.6726 -0.0349
16435TIP3    H270797   3.194   3.069  13.742  0.6310 -0.4224  0.3597
16436TIP3   OH270798   1.215   1.116   4.542 -0.0942 -0.2127  0.0506
16436TIP3    H170799   1.257   1.076   4.619  0.5946 -1.1296 -0.7838
16436TIP3    H270800   1.129   1.074   4.538  0.5970 -1.6546 -0.7835
16437TIP3   OH270801   5.104   4.501   0.057 -0.2079  0.2766 -0.0008
16437TIP3    H170802   5.090   4.527   0.149 -0.5860  0.7914 -0.1971
16437TIP3    H270803   5.168   4.430   0.062 -0.2238  0.2974  0.6642
16438TIP3   OH270804   6.543   0.999   0.100 -0.1197  0.2605  0.6636
16438TIP3    H170805   6.555   1.094   0.102 -0.1983  0.4696 -2.8263
16438TIP3    H270806   6.629   0.964   0.076 -0.6572 -0.2824 -0.5920
16439TIP3   OH270807   6.167   2.612   0.415  0.5357  0.0032  0.5620
16439TIP3    H170808   6.075   2.623   0.436  0.4936  1.0177 -0.1034
16439TIP3    H270809   6.212   2.617   0.499  0.0196 -0.1119  0.8483
16440TIP3   OH270810   2.841   0.040  15.046 -0.4577  0.1979 -0.0194
16440TIP3    H170811   2.819   0.096  14.971 -2.3283  0.7030  0.8471
16440TIP3    H270812   2.885   0.099  15.107 -0.6903  0.2609  0.0885
16441TIP3   OH270813   4.374   0.069   2.223  0.0536  0.1717  0.4487
16441TIP3    H170814   4.446   0.057   2.161 -1.7582 -1.4339 -1.5229
16441TIP3    H270815   4.414   0.057   2.309  2.4803  1.3953 -0.3962
16442TIP3   OH270816   5.919   6.799  12.191 -0.2972  0.0728 -0.0986
16442TIP3    H170817   5.921   6.712  12.151 -1.6459 -0.3960  0.7804
16442TIP3    H270818   5.908   6.781  12.285  1.4559  1.1646  0.3587
16443TIP3   OH270819   2.494   3.284   5.803  0.2447  0.4394  0.7644
16443TIP3    H170820   2.408   3.315   5.829 -0.8404 -2.2039  0.6289
16443TIP3    H270821   2.511   3.209   5.860  1.3797 -0.5646 -0.8124
16444TIP3   OH270822   3.824   1.332   3.214  0.6528  0.3897 -0.1290
16444TIP3    H170823   3.739   1.347   3.174  0.9560 -0.3938 -1.0971
16444TIP3    H270824   3.853   1.419   3.241  0.1252  0.8375 -0.9734
16445TIP3   OH270825   4.649   2.082   0.971  0.1081 -0.6012  0.2351
16445TIP3    H170826   4.707   2.119   1.038  0.3101 -1.0929  0.3327
16445TIP3    H270827   4.602   2.011   1.016 -0.1707 -0.5646  0.0084
16446TIP3   OH270828   4.302   0.993   5.655  0.1120 -0.3501 -0.6693
16446TIP3    H170829   4.254   0.941   5.720 -0.6269  2.9010  1.6615
16446TIP3    H270830   4.390   0.956   5.655 -0.7600 -2.5984 -0.4440
16447TIP3   OH270831   5.955   6.509   3.243  0.4140  0.1194 -0.0186
16447TIP3    H170832   6.048   6.483   3.241  0.0015 -1.3937 -1.5357
16447TIP3    H270833   5.938   6.529   3.335  2.1223 -0.0438  0.3660
16448TIP3   OH270834   4.684   0.767  12.802 -0.1429  0.4691 -0.3247
16448TIP3    H170835   4.767   0.728  12.832  0.4591  0.4613 -1.9318
16448TIP3    H270836   4.641   0.698  12.752 -0.8377  0.6893 -0.0470
16449TIP3   OH270837   5.717   4.198   4.977  0.1979 -0.0829 -0.8004
16449TIP3    H170838   5.781   4.131   4.952 -0.4176 -1.2585  0.6073
16449TIP3    H270839   5.719   4.199   5.073  0.1285  1.8984 -0.7794
16450TIP3   OH270840   5.621   0.268   3.439 -0.3057  0.5157  1.1310
16450TIP3    H170841   5.554   0.203   3.417  0.6516 -0.2930  0.4772
16450TIP3    H270842   5.703   0.230   3.406  0.1970  2.3768  0.0792
16451TIP3   OH270843   5.359   2.770  14.510 -0.0360 -0.4784  0.6791
16451TIP3    H170844   5.318   2.718  14.441 -0.0384 -0.2440  0.5032
16451TIP3    H270845   5.420   2.828  14.464 -0.8946  0.5100  0.7523
16452TIP3   OH270846   6.334   1.786  12.955  0.1717 -0.6013  0.3950
16452TIP3    H170847   6.398   1.809  13.022 -0.4251 -0.9735  1.1048
16452TIP3    H270848   6.351   1.694  12.936 -0.5040 -0.8606  0.9981
16453TIP3   OH270849   0.427   2.703   1.895 -0.3865  0.0418  0.0377
16453TIP3    H170850   0.418   2.738   1.983 -1.9085  1.7087 -0.7233
16453TIP3    H270851   0.340   2.670   1.873 -0.3806  0.8198 -1.2817
16454TIP3   OH270852   0.178   5.683  10.983 -0.6320 -0.1867 -0.0467
16454TIP3    H170853   0.159   5.593  11.008 -3.6915  0.6970  1.3370
16454TIP3    H270854   0.104   5.709  10.928 -0.2264  1.6745  0.2050
16455TIP3   OH270855   3.099   0.764   4.974  0.1782 -0.1226  0.6970
16455TIP3    H170856   3.085   0.854   5.004  0.6819 -0.2874  1.4519
16455TIP3    H270857   3.147   0.773   4.892 -0.2060  0.3090  0.5187
16456TIP3   OH270858   2.066   5.759   0.551 -0.1794 -0.1467  0.7593
16456TIP3    H170859   2.125   5.834   0.553 -2.2708  1.6016  0.0238
16456TIP3    H270860   2.104   5.701   0.485  0.3314  1.2941 -0.2729
16457TIP3   OH270861   1.385   6.267   2.416  0.1038  0.3112  0.4390
16457TIP3    H170862   1.419   6.284   2.503 -1.0790  0.2098  0.9430
16457TIP3    H270863   1.429   6.331   2.360 -0.3040  1.4673  1.3955
16458TIP3   OH270864   2.904   2.488   4.114  0.4981 -0.1031 -0.3652
16458TIP3    H170865   2.876   2.503   4.024 -1.4365  0.2502  0.2491
16458TIP3    H270866   2.993   2.456   4.106  1.0214  1.5886 -2.3215
16459TIP3   OH270867   0.699   0.798   4.411 -0.4509 -0.2109  0.3665
16459TIP3    H170868   0.779   0.843   4.384  0.2561  0.2276  2.9399
16459TIP3    H270869   0.631   0.866   4.410 -0.1600  0.0896  0.8710
16460TIP3   OH270870   4.546   4.934  13.294 -0.2080 -0.2769 -0.3390
16460TIP3    H170871   4.485   4.993  13.339 -0.6300 -0.6808 -0.3752
16460TIP3    H270872   4.490   4.869  13.252  0.2614 -0.8722 -0.0673
16461TIP3   OH270873   2.265   1.554  11.180 -0.0673  0.0948  0.2405
16461TIP3    H170874   2.283   1.631  11.233  0.5007 -0.2546  0.5690
16461TIP3    H270875   2.195   1.508  11.226 -1.6786  1.3015 -0.8805
16462TIP3   OH270876   1.053   2.443  17.107  0.1203 -0.1709  0.0834
16462TIP3    H170877   1.118   2.375  17.124 -0.2816 -0.2621  1.3814
16462TIP3    H270878   1.083   2.518  17.157 -0.8144 -0.2498  0.7857
16463TIP3   OH270879   0.602   2.923   2.252 -0.7281  0.4450 -0.3613
16463TIP3    H170880   0.528   2.981   2.271 -0.2011  1.2017 -0.5726
16463TIP3    H270881   0.671   2.953   2.311  0.8538  2.6584 -3.1342
16464TIP3   OH270882   1.434   1.719   4.814 -0.1906  0.2262  0.3246
16464TIP3    H170883   1.473   1.804   4.793 -0.6921  0.5022  0.5071
16464TIP3    H270884   1.483   1.656   4.761  3.6011 -0.0797  3.6499
16465TIP3   OH270885   3.420   6.639  11.406 -0.1050  0.9077 -0.2820
16465TIP3    H170886   3.394   6.681  11.324 -0.6638  1.2652  0.0708
16465TIP3    H270887   3.436   6.712  11.466 -0.3340  0.6334  0.1145
16466TIP3   OH270888   5.395   3.457  15.601 -0.7165 -0.3343 -0.3381
16466TIP3    H170889   5.307   3.481  15.571 -0.5987  1.6393  0.7741
16466TIP3    H270890   5.453   3.516  15.554 -0.2015  0.0991  0.8270
16467TIP3   OH270891   3.411   6.404   2.582  0.2454  0.0319  0.4051
16467TIP3    H170892   3.474   6.468   2.548  0.4436 -0.4214 -0.0984
16467TIP3    H270893   3.462   6.325   2.597 -0.0305 -0.0626  0.8668
16468TIP3   OH270894   0.020   2.032  13.049  0.0533  0.4624 -0.0958
16468TIP3    H170895  -0.070   2.032  13.016  0.7023 -1.0190 -2.0554
16468TIP3    H270896   0.011   2.045  13.144 -2.2500 -0.3154 -0.1477
16469TIP3   OH270897   1.590   6.730  11.779 -0.1986  0.7673 -0.2159
16469TIP3    H170898   1.604   6.816  11.741  2.0926 -0.3351 -2.1486
16469TIP3    H270899   1.676   6.703  11.811 -0.6918 -1.0909 -0.3389
16470TIP3   OH270900   4.046   3.434   3.603  0.7097  0.1956 -0.0844
16470TIP3    H170901   4.117   3.497   3.608  1.2861 -0.4044 -0.5769
16470TIP3    H270902   3.968   3.483   3.631  1.1020  1.1984 -0.6954
16471TIP3   OH270903   1.733   2.932  12.472 -0.2592 -0.0716 -0.1194
16471TIP3    H170904   1.700   2.995  12.535 -1.6313 -2.0406  1.2473
16471TIP3    H270905   1.828   2.948  12.470 -0.5310  1.7979  0.3766
16472TIP3   OH270906   4.970   3.228   6.347 -0.0518 -1.1309  1.2031
16472TIP3    H170907   5.047   3.171   6.337  0.3693 -0.2236 -1.4059
16472TIP3    H270908   4.896   3.172   6.321  0.1420 -1.0633  0.4791
16473TIP3   OH270909   6.575   0.487   2.612 -0.1603 -0.2894  0.1863
16473TIP3    H170910   6.626   0.468   2.691  0.2801  1.5658  0.3883
16473TIP3    H270911   6.603   0.574   2.586 -0.2894 -0.8569 -2.0519
16474TIP3   OH270912   3.005   3.708  13.478  0.3463  0.0089  0.1894
16474TIP3    H170913   3.042   3.763  13.546 -0.5017  0.0546  0.6345
16474TIP3    H270914   2.962   3.636  13.526 -0.9799  0.4851 -0.2335
16475TIP3   OH270915   3.557   1.282   4.760  0.4060  0.1712  0.2846
16475TIP3    H170916   3.628   1.227   4.795 -0.2351 -1.8386 -1.3083
16475TIP3    H270917   3.483   1.267   4.818  0.5640  0.2421  0.5029
16476TIP3   OH270918   3.855   0.571   5.625 -0.0502  0.1552  0.3417
16476TIP3    H170919   3.787   0.504   5.614  0.2266 -0.3130  1.3535
16476TIP3    H270920   3.816   0.634   5.686  0.7528 -0.6216  1.7014
16477TIP3   OH270921   3.443   5.660  10.899 -0.3688 -0.4928  0.6479
16477TIP3    H170922   3.416   5.752  10.903  1.8232  0.2308  0.0423
16477TIP3    H270923   3.512   5.652  10.966  0.9560 -1.1147 -0.7227
16478TIP3   OH270924   6.102   1.008   6.226 -0.0186 -0.0225 -0.1005
16478TIP3    H170925   6.036   0.953   6.269  1.0680 -0.4919  1.0506
16478TIP3    H270926   6.085   1.096   6.258  0.0642 -0.1845  0.3976
16479TIP3   OH270927   4.930   2.010   0.890  0.3319 -0.0999 -1.0518
16479TIP3    H170928   4.992   1.938   0.880 -0.0767 -0.5058 -0.7318
16479TIP3    H270929   4.977   2.075   0.942 -0.0641 -1.1206  0.6604
16480TIP3   OH270930   0.199   4.212   0.767  0.3467  0.1919  0.3279
16480TIP3    H170931   0.213   4.301   0.734  3.4368 -0.2186  0.2246
16480TIP3    H270932   0.190   4.223   0.862 -0.4442  0.6684  0.2099
16481TIP3   OH270933   1.827   0.471   0.129 -0.0044 -0.2213  0.4722
16481TIP3    H170934   1.836   0.384   0.168 -0.3800 -0.1417  0.7447
16481TIP3    H270935   1.747   0.506   0.167  0.1526  0.2533  0.3736
16482TIP3   OH270936   3.480   4.113  13.769 -0.2175 -0.5343  0.0187
16482TIP3    H170937   3.397   4.157  13.749 -0.5074 -0.2813  1.6528
16482TIP3    H270938   3.456   4.045  13.832  0.5458 -1.7368 -0.9344
16483TIP3   OH270939   6.124   5.309   3.438  0.1993 -0.0188  0.6735
16483TIP3    H170940   6.044   5.259   3.422  0.1409  0.2060  0.2850
16483TIP3    H270941   6.148   5.346   3.354  1.0530 -0.5863  0.6539
16484TIP3   OH270942   0.848   2.874   0.902 -0.5601 -0.0336  0.4501
16484TIP3    H170943   0.796   2.794   0.898 -0.9215  0.2486 -2.1103
16484TIP3    H270944   0.786   2.942   0.929 -0.5310 -0.3541  1.3891
16485TIP3   OH270945   6.266   2.813   0.264  0.2246  0.7421  0.2388
16485TIP3    H170946   6.296   2.775   0.181  0.5324  1.1214  0.1701
16485TIP3    H270947   6.228   2.739   0.312  1.7110  0.1265  0.5309
16486TIP3   OH270948   2.186   6.462  16.975 -0.1222 -0.2611 -0.3509
16486TIP3    H170949   2.131   6.384  16.977  0.1911 -0.4559  0.5655
16486TIP3    H270950   2.129   6.529  16.936 -0.4743 -0.8652 -0.8967
16487TIP3   OH270951   1.437   4.873   1.128 -0.4567 -0.5349 -0.4398
16487TIP3    H170952   1.476   4.955   1.099  1.0623 -0.9752  0.2447
16487TIP3    H270953   1.397   4.894   1.213 -1.6861 -0.1095 -1.0933
16488TIP3   OH270954   1.439   3.868  13.732 -0.1540  0.2900 -0.6116
16488TIP3    H170955   1.413   3.854  13.641  1.5311 -0.3985 -1.0113
16488TIP3    H270956   1.467   3.960  13.735  0.3005  0.1652 -0.9287
16489TIP3   OH270957   1.136   3.482  12.174 -0.0905  0.0489  0.0626
16489TIP3    H170958   1.078   3.414  12.208 -2.8900  2.0929 -0.2442
16489TIP3    H270959   1.095   3.564  12.202 -0.3897  1.8069 -4.6071
16490TIP3   OH270960   3.411   0.836   1.986  0.0172  0.2563  0.1750
16490TIP3    H170961   3.381   0.907   1.929 -0.5599 -0.9439 -1.1018
16490TIP3    H270962   3.393   0.756   1.935 -2.4116 -1.0609  2.8078
16491TIP3   OH270963   4.476   1.904   4.285 -0.2722 -0.4004  0.7036
16491TIP3    H170964   4.566   1.886   4.314 -0.0345  0.7225  0.6964
16491TIP3    H270965   4.470   1.861   4.199  0.3900 -0.1633  0.5270
16492TIP3   OH270966   4.736   3.789   4.308  0.2988  0.0873  0.4827
16492TIP3    H170967   4.697   3.843   4.239 -1.5942  0.5513  1.8279
16492TIP3    H270968   4.725   3.699   4.276 -0.6672  0.2853  0.2043
16493TIP3   OH270969   6.556   2.785   1.538 -0.0561 -0.5554  0.0216
16493TIP3    H170970   6.510   2.869   1.537  1.4993  0.4878  3.0959
16493TIP3    H270971   6.489   2.721   1.560 -0.8266  0.2847  0.1590
16494TIP3   OH270972   6.797   5.072   0.535  0.2438 -1.2000  0.0267
16494TIP3    H170973   6.802   5.105   0.445  1.7163  0.6054  0.7028
16494TIP3    H270974   6.810   4.977   0.526  0.3392 -1.0670 -1.6553
16495TIP3   OH270975   5.325   3.080   4.582 -0.0038 -0.5999  0.1044
16495TIP3    H170976   5.380   3.075   4.660 -0.2694  0.4836  0.3806
16495TIP3    H270977   5.255   3.017   4.597  0.5798 -1.2334  0.2148
16496TIP3   OH270978   4.907   1.141   4.282  0.9841  0.2683 -0.0855
16496TIP3    H170979   4.882   1.128   4.373  1.7421  2.1187  0.4476
16496TIP3    H270980   5.001   1.123   4.280  0.5603 -2.1997 -1.0902
16497TIP3   OH270981   4.776   0.314   3.358  0.4726  0.5216  0.0285
16497TIP3    H170982   4.782   0.219   3.365  1.2147  0.5224 -0.4629
16497TIP3    H270983   4.857   0.346   3.397  0.5802  0.9100 -0.4981
16498TIP3   OH270984   4.142   3.556  13.193 -0.5075  0.0140 -0.3583
16498TIP3    H170985   4.091   3.563  13.112  0.1458  1.5206 -0.6786
16498TIP3    H270986   4.075   3.550  13.262 -1.0850 -0.3898 -0.9419
16499TIP3   OH270987   5.899   2.823  16.584 -0.0417  0.2524 -0.5396
16499TIP3    H170988   5.824   2.851  16.531 -0.2093 -0.6395 -0.8004
16499TIP3    H270989   5.867   2.823  16.674 -0.3317 -0.0347 -0.6414
16500TIP3   OH270990   5.711   1.416   5.285  0.1130 -0.0515 -0.3083
16500TIP3    H170991   5.701   1.506   5.255 -0.0321  0.1665  0.3666
16500TIP3    H270992   5.742   1.425   5.375 -1.0844 -0.6582  0.1818
16501TIP3   OH270993   2.712   5.193   3.004  0.0560  0.3430  0.1248
16501TIP3    H170994   2.750   5.121   3.055  0.4766  0.5248  0.0714
16501TIP3    H270995   2.788   5.244   2.974 -0.2302  0.6952 -0.0051
16502TIP3   OH270996   5.820   5.097  13.310  0.4011 -0.2472 -0.2298
16502TIP3    H170997   5.755   5.167  13.310  0.6503 -0.0035  0.6192
16502TIP3    H270998   5.834   5.077  13.217 -0.2400  0.2917 -0.4496
16503TIP3   OH270999   3.545   6.767   4.765  0.3568 -0.3468  0.3301
16503TIP3    H171000   3.540   6.768   4.670 -0.6534 -1.9303  0.3258
16503TIP3    H271001   3.597   6.844   4.788  0.7489 -0.0363 -1.4964
16504TIP3   OH271002   4.584   1.529   1.729 -0.6100  0.2435 -0.4022
16504TIP3    H171003   4.600   1.446   1.775 -1.0058  0.5303  0.2641
16504TIP3    H271004   4.633   1.520   1.647  1.6725  0.4520  0.8433
16505TIP3   OH271005   2.504   2.045  10.739  0.0404 -0.0859  0.4359
16505TIP3    H171006   2.502   1.961  10.694 -0.4140 -0.6072  1.4230
16505TIP3    H271007   2.548   2.028  10.822  1.7035  1.0635 -0.1522
16506TIP3   OH271008   4.100   5.504  13.864  0.3594  0.5677 -0.5128
16506TIP3    H171009   4.145   5.430  13.906 -1.9988 -0.3823  0.4924
16506TIP3    H271010   4.020   5.465  13.827 -0.6491  2.5227 -0.4992
16507TIP3   OH271011   5.007   0.582   0.471  0.1412  0.0411 -0.0625
16507TIP3    H171012   5.013   0.646   0.542  1.1070  0.6546 -0.6712
16507TIP3    H271013   4.943   0.518   0.502 -1.3601  1.6236  0.3140
16508TIP3   OH271014   5.973   6.774  16.181  0.2652  0.2541 -0.5305
16508TIP3    H171015   5.954   6.684  16.155  1.1201 -0.4906  1.2245
16508TIP3    H271016   5.889   6.819  16.175 -0.3469 -0.8674 -0.6603
16509TIP3   OH271017   4.606   4.717  12.015  0.3184 -0.1270 -0.1060
16509TIP3    H171018   4.690   4.678  11.991  0.2029  0.1776 -1.0652
16509TIP3    H271019   4.628   4.805  12.045  0.4121 -0.3212  0.4043
16510TIP3   OH271020   0.065   6.651  12.590 -0.2186 -0.0047 -0.2280
16510TIP3    H171021   0.068   6.637  12.496  1.6231 -0.6650 -0.1251
16510TIP3    H271022  -0.007   6.596  12.620  0.5696 -1.5487 -1.0365
16511TIP3   OH271023   2.507   2.365   0.773  0.0263  0.1548 -0.5384
16511TIP3    H171024   2.474   2.301   0.835 -1.0092  2.3613  1.3229
16511TIP3    H271025   2.431   2.389   0.720 -0.1727  1.4167  0.2726
16512TIP3   OH271026   4.460   4.501  14.259 -0.2594 -0.0717  0.3717
16512TIP3    H171027   4.508   4.580  14.285  0.1061 -0.5896  1.3108
16512TIP3    H271028   4.529   4.438  14.238 -0.5519 -0.2012 -0.2226
16513TIP3   OH271029   3.378   0.348  11.949  0.3143 -0.4517 -0.0123
16513TIP3    H171030   3.397   0.332  12.041 -1.1486 -3.0599 -0.0609
16513TIP3    H271031   3.385   0.443  11.939 -2.4140  0.3219  3.5063
16514TIP3   OH271032   0.093   2.201  10.591 -0.0594 -0.1785 -0.2795
16514TIP3    H171033   0.111   2.168  10.679  0.8159  0.3587 -0.2443
16514TIP3    H271034   0.176   2.192  10.545 -0.1125  0.8759 -0.6135
16515TIP3   OH271035   3.996   3.339   6.118  0.1550 -0.0454  0.0953
16515TIP3    H171036   3.969   3.248   6.124 -0.1111  0.0619  0.5166
16515TIP3    H271037   3.935   3.387   6.174 -0.6807  0.5983 -1.2922
16516TIP3   OH271038   5.845   4.278   5.354 -0.2682  0.4658  0.0136
16516TIP3    H171039   5.803   4.362   5.373 -0.9794 -0.1001  1.0390
16516TIP3    H271040   5.772   4.219   5.334  0.2031  0.0085 -0.3777
16517TIP3   OH271041   3.044   3.709   5.173  0.6205  0.1541  0.1178
16517TIP3    H171042   3.084   3.689   5.089  0.3028  2.2462 -0.6099
16517TIP3    H271043   3.109   3.685   5.238  1.1427 -0.8724 -0.7661
16518TIP3   OH271044   5.800   2.067   4.123 -0.1731  0.0949 -0.1554
16518TIP3    H171045   5.789   1.972   4.133  0.0010  0.1010  0.1300
16518TIP3    H271046   5.727   2.105   4.172 -0.0493  0.1107  0.0191
16519TIP3   OH271047   2.372   2.925   5.584  0.1752 -0.1921 -0.0336
16519TIP3    H171048   2.453   2.875   5.594  1.2041  1.5295  0.6730
16519TIP3    H271049   2.319   2.899   5.659 -1.0374 -3.1194 -1.7211
16520TIP3   OH271050   3.936   4.128  10.320  0.3952 -0.0370 -0.7368
16520TIP3    H171051   3.913   4.120  10.227  1.4762 -0.7346 -0.9576
16520TIP3    H271052   3.983   4.047  10.340  0.7944  0.4242  0.2383
16521TIP3   OH271053   2.231   5.845  17.086  0.1065 -0.0383 -0.3297
16521TIP3    H171054   2.187   5.782  17.143 -0.7369  0.1604 -0.7511
16521TIP3    H271055   2.262   5.913  17.145  0.4732 -0.5339  0.0562
16522TIP3   OH271056   0.968   2.566   0.862 -0.0609  0.2117  0.1414
16522TIP3    H171057   0.958   2.471   0.872  0.3093 -0.2719 -2.9959
16522TIP3    H271058   0.888   2.602   0.900 -0.4025 -1.3728  1.0428
16523TIP3   OH271059   0.474   2.583  14.473 -0.0520 -0.5193 -0.7641
16523TIP3    H171060   0.463   2.622  14.387  1.5285  0.7635 -0.4285
16523TIP3    H271061   0.417   2.635  14.530  3.7783  3.2266  0.1507
16524TIP3   OH271062   1.290   4.453  15.216  0.7730 -0.1594  0.3459
16524TIP3    H171063   1.240   4.504  15.152 -1.5518 -2.5455  0.0792
16524TIP3    H271064   1.357   4.409  15.164 -1.1878 -2.1920 -0.6243
16525TIP3   OH271065   5.986   2.267  13.029  0.4008  0.3572 -0.3463
16525TIP3    H171066   5.972   2.361  13.016 -0.0683  0.0567 -2.1781
16525TIP3    H271067   5.903   2.236  13.067  0.4879  0.6270  0.0811
16526TIP3   OH271068   4.935   4.718   2.945  0.6429  0.1595 -0.2467
16526TIP3    H171069   4.934   4.765   2.862  0.4535 -0.4229 -0.5746
16526TIP3    H271070   4.858   4.662   2.943 -0.8797  2.0041  1.4264
16527TIP3   OH271071   3.580   6.674  13.547 -0.5891  0.0829 -0.2038
16527TIP3    H171072   3.489   6.702  13.559 -0.3295  0.5682  0.7747
16527TIP3    H271073   3.631   6.753  13.563  0.0651 -0.4809  0.6095
16528TIP3   OH271074   6.837   5.957   5.738  0.4606 -0.0699  0.0640
16528TIP3    H171075   6.782   5.940   5.815 -1.3726 -0.0936 -1.1770
16528TIP3    H271076   6.787   6.019   5.686  2.0227  0.5567 -0.7558
16529TIP3   OH271077   0.458   6.243   4.618  0.0174 -0.0585  0.0192
16529TIP3    H171078   0.434   6.316   4.560  0.2941  0.2035  0.2302
16529TIP3    H271079   0.481   6.286   4.701  2.5628 -0.1566 -0.5567
16530TIP3   OH271080   6.198   0.480   2.841  0.1531  0.4150  0.2618
16530TIP3    H171081   6.113   0.463   2.802 -0.0755 -2.4649  1.7513
16530TIP3    H271082   6.200   0.425   2.920  2.6348  1.8759  1.3365
16531TIP3   OH271083   4.497   2.514  10.456  0.8051 -0.1461 -0.2202
16531TIP3    H171084   4.581   2.490  10.495  0.2517 -0.3307  0.9317
16531TIP3    H271085   4.445   2.545  10.530  0.2708  1.1674 -1.1111
16532TIP3   OH271086   3.080   1.901  11.563 -0.0357  0.1138 -0.1487
16532TIP3    H171087   3.091   1.952  11.483 -1.9513  1.3115  0.2958
16532TIP3    H271088   3.106   1.812  11.538  2.6873  1.0754 -1.1276
16533TIP3   OH271089   0.083   2.228   3.219  0.2562  0.9205  0.1617
16533TIP3    H171090   0.154   2.201   3.162 -0.0881  1.4203 -0.5166
16533TIP3    H271091   0.003   2.210   3.169 -0.1283 -0.1299  1.1207
16534TIP3   OH271092   6.626   3.256   1.627  0.0444  0.0512 -0.3353
16534TIP3    H171093   6.700   3.215   1.673 -0.6458 -1.4850 -0.5363
16534TIP3    H271094   6.601   3.329   1.684  2.2892  1.2178 -0.7325
16535TIP3   OH271095   1.829   0.852  14.122 -0.5559  0.1540  0.3942
16535TIP3    H171096   1.865   0.804  14.197 -0.6351 -0.2031  0.2030
16535TIP3    H271097   1.886   0.928  14.114  0.8550 -0.9541 -0.5772
16536TIP3   OH271098   4.755   1.895   4.336  0.0978 -0.0644  0.6532
16536TIP3    H171099   4.783   1.965   4.278 -0.3455  0.0517  0.5752
16536TIP3    H271100   4.819   1.825   4.323 -0.4555 -0.3757 -0.6124
16537TIP3   OH271101   4.946   0.974   5.787  0.1290 -0.2529 -0.3380
16537TIP3    H171102   5.031   1.020   5.788 -0.9211  1.7876  0.0958
16537TIP3    H271103   4.929   0.953   5.879 -1.1785  2.0716  0.0168
16538TIP3   OH271104   3.075   3.535   3.051  0.3301  0.0765 -0.1425
16538TIP3    H171105   3.110   3.624   3.053  0.9582 -0.1709 -0.0441
16538TIP3    H271106   3.044   3.519   3.140  0.8046 -0.0324  0.0058
16539TIP3   OH271107   0.498   5.466   3.823  0.0153 -0.4187  0.1834
16539TIP3    H171108   0.456   5.426   3.747  1.7860  0.5242 -1.3706
16539TIP3    H271109   0.569   5.406   3.845  0.6184  0.1864 -0.0676
16540TIP3   OH271110   1.397   1.354  12.018  0.0658  0.0646 -0.0539
16540TIP3    H171111   1.380   1.436  12.064  1.2827  0.3786 -0.1193
16540TIP3    H271112   1.487   1.362  11.987 -0.2863 -0.6898 -1.3510
16541TIP3   OH271113   6.791   2.680   1.089 -0.1576 -0.3793  0.3209
16541TIP3    H171114   6.827   2.595   1.064 -1.2204 -0.6206 -0.4479
16541TIP3    H271115   6.762   2.668   1.179 -1.2012 -1.1580 -0.0946
16542TIP3   OH271116   1.241   3.258   2.778 -0.1141 -0.1349 -0.3855
16542TIP3    H171117   1.190   3.179   2.763 -0.8809  0.4887 -1.1522
16542TIP3    H271118   1.199   3.300   2.853  0.8839 -0.9173  0.6448
16543TIP3   OH271119   4.514   2.108  15.302 -0.0536 -0.2634  0.2404
16543TIP3    H171120   4.518   2.146  15.215 -0.1030 -2.2599 -0.6827
16543TIP3    H271121   4.597   2.061  15.312 -0.8179 -1.6388  0.4529
16544TIP3   OH271122   4.960   5.674  11.877  0.3666 -0.6352 -0.2934
16544TIP3    H171123   4.985   5.600  11.933  3.2724  0.4054 -0.0335
16544TIP3    H271124   4.898   5.724  11.930  1.0483 -1.0684  0.9821
16545TIP3   OH271125   5.587   6.724  11.413  0.7819  0.4891  0.1540
16545TIP3    H171126   5.670   6.767  11.435  0.2830  0.2533  2.8537
16545TIP3    H271127   5.604   6.679  11.331  3.0469  1.1972  0.1651
16546TIP3   OH271128   5.842   2.896  11.977 -0.0940 -0.2016  0.0248
16546TIP3    H171129   5.875   2.949  11.906 -0.4640 -1.3206 -1.0194
16546TIP3    H271130   5.790   2.827  11.934 -0.0050 -1.1295  1.3347
16547TIP3   OH271131   1.371   0.218  13.718  0.6094  0.0273 -0.2763
16547TIP3    H171132   1.424   0.269  13.656  2.0117 -0.2175  0.6857
16547TIP3    H271133   1.434   0.166  13.767 -0.5271 -0.2829  0.9250
16548TIP3   OH271134   0.203   2.953   4.030  0.1512 -0.2157 -0.0370
16548TIP3    H171135   0.243   2.881   4.078 -0.4176  0.6363  1.7879
16548TIP3    H271136   0.127   2.914   3.987 -1.1551 -0.4298  2.3113
16549TIP3   OH271137   3.436   0.841   0.557  0.3052 -0.8137 -0.1840
16549TIP3    H171138   3.493   0.908   0.519 -0.2377 -0.5516 -0.5592
16549TIP3    H271139   3.364   0.834   0.494 -0.2736 -0.8498  0.4757
16550TIP3   OH271140   3.679   5.355  12.829 -0.8093  0.0834  0.0811
16550TIP3    H171141   3.724   5.425  12.877 -1.2891 -0.3235  1.1515
16550TIP3    H271142   3.745   5.323  12.768 -0.2415  0.7522  0.3240
16551TIP3   OH271143   6.670   4.149   0.660  0.5170  0.1133 -0.0263
16551TIP3    H171144   6.668   4.205   0.582  0.2484  1.3770  0.8681
16551TIP3    H271145   6.757   4.162   0.697  1.0758 -1.3781 -0.7064
16552TIP3   OH271146   6.457   5.416   5.971 -0.0086  0.1434 -0.9216
16552TIP3    H171147   6.394   5.485   5.993 -1.6154 -1.6503  0.4889
16552TIP3    H271148   6.512   5.408   6.049  0.0972 -0.2345 -1.0324
16553TIP3   OH271149   4.984   3.740   5.357 -0.9493  0.6186  0.5621
16553TIP3    H171150   4.943   3.825   5.341  0.6761  1.1524 -1.1210
16553TIP3    H271151   5.062   3.740   5.301  0.0205 -1.3070  1.8003
16554TIP3   OH271152   5.211   0.660  12.789 -0.2411  0.4704  0.0702
16554TIP3    H171153   5.266   0.592  12.750  0.6934  1.5865 -0.6240
16554TIP3    H271154   5.224   0.650  12.883  0.9490  0.5028 -0.0686
16555TIP3   OH271155   4.414   4.216   4.891  0.6294  0.0802  0.0603
16555TIP3    H171156   4.320   4.230   4.888  0.4991 -0.7033  0.2852
16555TIP3    H271157   4.436   4.220   4.984  0.5008 -1.6474  0.1879
16556TIP3   OH271158   2.621   1.622  11.746  0.1020  0.3082 -0.1010
16556TIP3    H171159   2.573   1.696  11.783  0.5429  0.6139 -0.1377
16556TIP3    H271160   2.553   1.557  11.726 -0.3622  0.9523 -0.6521
16557TIP3   OH271161   3.880   1.762  13.974  0.1447  0.4467  0.3743
16557TIP3    H171162   3.832   1.791  13.897  0.0687 -0.3873  0.0963
16557TIP3    H271163   3.853   1.823  14.043  0.3575  1.3137 -0.2914
16558TIP3   OH271164   4.472   0.298  13.600 -0.1792 -0.5607  0.0452
16558TIP3    H171165   4.531   0.289  13.525  0.7925 -1.5210  0.8879
16558TIP3    H271166   4.530   0.320  13.673 -1.2067  1.1969  0.3783
16559TIP3   OH271167   6.142   1.381  14.590 -0.3441 -0.9472 -0.0340
16559TIP3    H171168   6.167   1.470  14.616  1.2165 -1.1512 -0.6904
16559TIP3    H271169   6.048   1.385  14.576 -0.5676  0.1891  1.5004
16560TIP3   OH271170   0.520   0.386  14.761  0.4801 -0.0935  0.2625
16560TIP3    H171171   0.517   0.446  14.686  1.7304 -0.4929 -0.1442
16560TIP3    H271172   0.517   0.443  14.838  1.8483  0.5446 -0.1212
16561TIP3   OH271173   4.348   1.006   0.813 -0.2989  0.1776  0.2094
16561TIP3    H171174   4.317   1.035   0.899 -0.7737 -0.2403  0.1859
16561TIP3    H271175   4.372   1.086   0.767  0.9540  0.3577  1.0971
16562TIP3   OH271176   5.265   4.679   0.393  0.3750  0.2978  0.5109
16562TIP3    H171177   5.185   4.700   0.344  1.0552 -2.2133 -1.9233
16562TIP3    H271178   5.239   4.608   0.452  0.3996  0.8876  1.2579
16563TIP3   OH271179   3.808   5.892  15.569 -0.6913 -0.5477  0.4405
16563TIP3    H171180   3.831   5.882  15.662  0.3868  2.2183  0.5618
16563TIP3    H271181   3.839   5.811  15.529  1.6321 -0.5909  2.0528
16564TIP3   OH271182   3.027   4.098  14.670  0.0362  0.3058 -0.0645
16564TIP3    H171183   3.084   4.049  14.611  0.6448  0.1980  0.5888
16564TIP3    H271184   2.978   4.031  14.718 -1.5032  0.4117 -1.4106
16565TIP3   OH271185   5.536   0.714   3.631  0.2543  0.1608 -0.4697
16565TIP3    H171186   5.493   0.632   3.609  1.3165 -0.5587  0.0669
16565TIP3    H271187   5.476   0.782   3.600 -0.4165 -0.8106 -1.3438
16566TIP3   OH271188   4.263   4.490  12.433  0.7324 -0.1110  0.1789
16566TIP3    H171189   4.301   4.507  12.519 -1.3528  0.0526  1.1477
16566TIP3    H271190   4.242   4.396  12.434 -0.4447  0.1402  0.3744
16567TIP3   OH271191   0.355   6.622  14.073  0.5721 -0.2678 -0.4484
16567TIP3    H171192   0.446   6.647  14.053  0.5267 -0.1820 -0.5493
16567TIP3    H271193   0.359   6.528  14.087  0.6688 -0.2722 -0.4992
16568TIP3   OH271194   1.122   5.982   4.299 -0.7857 -0.4074 -0.3503
16568TIP3    H171195   1.075   5.986   4.216 -0.6348 -1.2758 -0.4897
16568TIP3    H271196   1.056   5.955   4.363 -1.1980  1.4536  0.0776
16569TIP3   OH271197   3.688   2.258  10.522 -0.0010  0.3084  0.1338
16569TIP3    H171198   3.649   2.213  10.597  1.1356 -1.9402 -0.5442
16569TIP3    H271199   3.631   2.333  10.507 -1.6072 -0.5040  1.7716
16570TIP3   OH271200   2.800   3.914   1.270  0.2586  0.0147  0.0897
16570TIP3    H171201   2.870   3.979   1.281  2.0638 -1.8590  0.2597
16570TIP3    H271202   2.809   3.856   1.345 -1.6295 -0.2000  0.1996
16571TIP3   OH271203   4.744   2.804  13.769 -0.1010  0.0896 -0.2343
16571TIP3    H171204   4.718   2.712  13.777  0.3555 -0.1469 -1.3615
16571TIP3    H271205   4.727   2.841  13.856 -1.8610 -0.6403 -0.2185
16572TIP3   OH271206   6.706   1.345   0.940 -0.3441 -0.2053  0.2379
16572TIP3    H171207   6.619   1.376   0.966  0.5941  0.9095  2.2874
16572TIP3    H271208   6.749   1.323   1.022  0.9373 -1.8851 -0.8130
16573TIP3   OH271209   4.192   1.987   5.791 -0.7225  0.0456 -0.0628
16573TIP3    H171210   4.113   1.946   5.825 -1.9333  1.4535 -1.0750
16573TIP3    H271211   4.174   2.081   5.795  1.1151  0.4275  0.1645
16574TIP3   OH271212   4.709   3.953   4.510 -0.2986 -0.5513  0.0147
16574TIP3    H171213   4.737   3.895   4.439  1.0664  0.0091  0.0653
16574TIP3    H271214   4.760   4.033   4.498 -1.4597  0.3025  0.5022
16575TIP3   OH271215   1.518   1.109   2.179 -0.3320 -0.2005  0.0134
16575TIP3    H171216   1.536   1.201   2.158 -1.4551  0.0065 -0.0956
16575TIP3    H271217   1.423   1.101   2.173 -0.1241 -2.1191 -3.1502
16576TIP3   OH271218   0.116   2.077  16.946 -0.7727  0.2724  0.3870
16576TIP3    H171219   0.049   2.143  16.966 -0.2263  0.8463  0.3592
16576TIP3    H271220   0.161   2.113  16.870  0.3983  0.5203  1.1733
16577TIP3   OH271221   0.740   0.638  15.615 -0.1252 -0.4003 -0.4601
16577TIP3    H171222   0.795   0.709  15.648  2.3253 -2.4524  0.1791
16577TIP3    H271223   0.667   0.633  15.676  2.1887 -1.4788  2.4399
16578TIP3   OH271224   3.857   6.704   3.144  0.3647  0.5069  0.0084
16578TIP3    H171225   3.826   6.730   3.057 -0.7762 -0.8590 -0.0306
16578TIP3    H271226   3.906   6.623   3.130 -2.9948 -1.8997  0.9540
16579TIP3   OH271227   3.883   3.551  14.267  0.0395  0.1010 -0.0151
16579TIP3    H171228   3.858   3.522  14.179 -1.0618  0.8325  0.0277
16579TIP3    H271229   3.801   3.550  14.317  0.6373 -0.2265  0.9865
16580TIP3   OH271230   5.376   0.294   4.196  0.3666  0.0618  0.1645
16580TIP3    H171231   5.325   0.273   4.275 -2.1941 -2.8695 -1.9783
16580TIP3    H271232   5.450   0.234   4.199  1.2033  1.1122  1.0804
16581TIP3   OH271233   1.476   2.491  12.148 -0.3667  0.1701  0.5616
16581TIP3    H171234   1.555   2.453  12.188 -1.2987 -1.3515  1.0394
16581TIP3    H271235   1.411   2.489  12.218 -1.5596 -1.0104 -0.5443
16582TIP3   OH271236   2.936   0.846  12.080 -0.3599 -0.3903  0.6666
16582TIP3    H171237   2.929   0.758  12.118 -1.2116 -1.3907 -1.6157
16582TIP3    H271238   2.945   0.830  11.986 -3.0579  1.9675 -0.1244
16583TIP3   OH271239   1.404   5.003   3.298  0.3916 -0.2219 -0.2925
16583TIP3    H171240   1.382   4.950   3.221 -0.0185 -0.2690 -0.1428
16583TIP3    H271241   1.356   4.963   3.370 -0.5587  0.8331 -0.3215
16584TIP3   OH271242   0.390   4.567   4.120 -0.0765 -0.7471  0.1412
16584TIP3    H171243   0.388   4.479   4.157 -0.0393 -1.2845 -1.0918
16584TIP3    H271244   0.316   4.570   4.059  0.9181 -0.5281 -1.1092
16585TIP3   OH271245   5.394   3.795   1.170  0.3889 -0.1822  0.1456
16585TIP3    H171246   5.365   3.839   1.250  0.2802 -1.6403  0.9488
16585TIP3    H271247   5.407   3.866   1.107 -0.7681  0.8873  1.0591
16586TIP3   OH271248   1.714   4.182  12.111  0.1384  0.3849 -0.2605
16586TIP3    H171249   1.782   4.142  12.165  0.1248  1.0334  0.2420
16586TIP3    H271250   1.665   4.107  12.076 -0.5084 -0.0373  1.4572
16587TIP3   OH271251   2.847   1.224  11.614 -0.0058  0.6933 -0.0955
16587TIP3    H171252   2.815   1.245  11.526  0.0845 -1.6813 -0.7526
16587TIP3    H271253   2.943   1.228  11.605  0.0049  0.3723 -0.1418
16588TIP3   OH271254   1.825   0.805  12.029  0.0579 -0.2144  0.5591
16588TIP3    H171255   1.756   0.785  11.965  0.9753 -0.1712 -0.4691
16588TIP3    H271256   1.893   0.848  11.977  0.7239  0.0326  1.6249
16589TIP3   OH271257   1.939   5.587  13.218  0.5547 -0.1199 -0.0367
16589TIP3    H171258   1.892   5.634  13.149 -1.8865 -2.5943 -0.2047
16589TIP3    H271259   2.019   5.638  13.231 -0.1231  1.8879 -2.8351
16590TIP3   OH271260   5.176   1.338   5.435  0.4152  0.2758 -0.2841
16590TIP3    H171261   5.181   1.433   5.445  1.1752  0.0323  2.0778
16590TIP3    H271262   5.254   1.316   5.383  0.1464  0.9312 -0.9894
16591TIP3   OH271263   0.292   0.936   1.104 -0.3302 -0.3958  0.1092
16591TIP3    H171264   0.252   0.912   1.187 -2.0934  1.8975  0.0340
16591TIP3    H271265   0.366   0.992   1.127 -0.8706  0.3092  0.1610
16592TIP3   OH271266   0.404   1.166  13.198 -0.1660 -0.3649 -0.2138
16592TIP3    H171267   0.332   1.175  13.136  0.0986  0.4337 -0.4128
16592TIP3    H271268   0.454   1.090  13.167 -0.7940 -0.7879 -0.1933
16593TIP3   OH271269   2.209   4.527  13.976  0.4128 -0.3031 -0.2526
16593TIP3    H171270   2.138   4.542  13.913  0.6787  1.6970 -0.1403
16593TIP3    H271271   2.279   4.585  13.947  0.7911  0.1724  1.5183
16594TIP3   OH271272   5.566   0.362   1.100  0.2108  0.0855  0.2031
16594TIP3    H171273   5.591   0.367   1.008  2.5241 -0.8031  0.7092
16594TIP3    H271274   5.580   0.271   1.124 -0.8357  0.1913  1.3266
16595TIP3   OH271275   2.689   0.533  11.861 -0.2340 -0.0740  0.4776
16595TIP3    H171276   2.689   0.546  11.766  3.4243  0.9757  0.4558
16595TIP3    H271277   2.635   0.604  11.895  1.9088  2.2584 -0.7148
16596TIP3   OH271278   0.759   3.783   4.128  0.4348 -0.3837  0.1234
16596TIP3    H171279   0.717   3.809   4.046  2.0595  0.2228 -0.5811
16596TIP3    H271280   0.848   3.820   4.121  0.4303  0.1720  2.4211
16597TIP3   OH271281   5.653   3.103  14.545  0.4795  0.2438  0.3338
16597TIP3    H171282   5.632   3.119  14.453  1.2319  0.9646  0.2707
16597TIP3    H271283   5.709   3.026  14.544  0.8833  0.5320  0.1276
16598TIP3   OH271284   1.351   3.013   3.985  0.1465 -0.1938 -0.3503
16598TIP3    H171285   1.394   2.928   3.982  0.9488  0.2264 -2.2570
16598TIP3    H271286   1.273   2.998   4.038  0.9234 -1.7856  0.4209
16599TIP3   OH271287   3.031   2.148  10.746 -0.0017  0.0877 -0.5509
16599TIP3    H171288   2.961   2.192  10.698 -1.0105  0.2205  0.9601
16599TIP3    H271289   3.084   2.219  10.782 -0.5608  0.0491  0.3704
16600TIP3   OH271290   1.934   0.384   3.875 -0.4930 -0.1236 -0.1884
16600TIP3    H171291   1.902   0.337   3.952 -1.2522  1.1780  0.3141
16600TIP3    H271292   1.958   0.315   3.814  0.8310 -1.2083  1.4662
16601TIP3   OH271293   0.558   6.731   5.154  0.2644 -0.5131 -0.1025
16601TIP3    H171294   0.596   6.782   5.225  1.7888  0.1654 -1.3397
16601TIP3    H271295   0.465   6.722   5.178  0.4294  0.9074  1.2505
16602TIP3   OH271296   6.281   0.802  11.110 -0.2861  0.8648 -0.2534
16602TIP3    H171297   6.278   0.729  11.173 -0.4218  0.8276 -0.3029
16602TIP3    H271298   6.238   0.874  11.156  2.5953  1.9108  1.0593
16603TIP3   OH271299   0.913   5.146  12.423  0.5412  0.2844  0.3585
16603TIP3    H171300   0.984   5.119  12.481  0.4145  0.8959  0.8118
16603TIP3    H271301   0.954   5.207  12.361  0.4633  0.4720  0.4880
16604TIP3   OH271302   6.322   3.557  12.948  0.2233  0.9574  0.4023
16604TIP3    H171303   6.379   3.579  13.022 -2.9650 -0.2626  3.5135
16604TIP3    H271304   6.244   3.611  12.962 -1.4416 -1.0310 -0.6805
16605TIP3   OH271305   1.522   2.903  12.157  0.3677  0.2454  0.0083
16605TIP3    H171306   1.585   2.971  12.132 -2.0388  2.4426 -0.4446
16605TIP3    H271307   1.498   2.862  12.074 -0.9381  1.4369 -0.2370
16606TIP3   OH271308   6.031   0.271  15.570  0.0891 -0.3100 -0.5705
16606TIP3    H171309   6.088   0.194  15.559  1.3806  0.5707 -0.2109
16606TIP3    H271310   6.075   0.340  15.521  1.8603  1.6320  3.2825
16607TIP3   OH271311   1.996   2.244   2.970 -0.1932  0.0777 -0.2901
16607TIP3    H171312   1.965   2.168   2.920  0.4423 -0.7261  0.5000
16607TIP3    H271313   1.917   2.296   2.987 -0.5036  0.0478 -1.5828
16608TIP3   OH271314   6.434   5.978  13.113 -0.9424  0.1096  0.1803
16608TIP3    H171315   6.465   6.066  13.092 -0.4048 -0.1231 -0.0213
16608TIP3    H271316   6.478   5.957  13.196 -0.3067 -0.3404 -0.2598
16609TIP3   OH271317   4.719   0.317   2.765  0.4256  0.1030 -0.0541
16609TIP3    H171318   4.670   0.311   2.847  0.9205 -0.0517  0.2324
16609TIP3    H271319   4.719   0.411   2.744 -0.1483  0.0841 -0.1539
16610TIP3   OH271320   1.710   5.665  11.372  0.0553 -0.3297  0.2109
16610TIP3    H171321   1.782   5.729  11.377  1.5273 -1.7376 -1.5960
16610TIP3    H271322   1.632   5.716  11.392  1.3849  1.5980  0.8081
16611TIP3   OH271323   3.472   2.633  13.272  0.6346  0.3657 -0.2818
16611TIP3    H171324   3.501   2.718  13.304 -2.0134  1.3802 -0.3123
16611TIP3    H271325   3.388   2.650  13.230 -0.0614 -2.2989 -0.1777
16612TIP3   OH271326   6.394   5.732   1.907  0.5063 -0.1229  0.2564
16612TIP3    H171327   6.447   5.677   1.964  2.6469  1.9092  0.3699
16612TIP3    H271328   6.380   5.813   1.957  0.8485  0.9703 -1.3208
16613TIP3   OH271329   4.157   3.805  16.652  0.1266 -0.4526  0.4179
16613TIP3    H171330   4.121   3.760  16.576 -0.1878  2.1526 -1.1059
16613TIP3    H271331   4.169   3.736  16.717 -2.0401 -2.3947 -1.0573
16614TIP3   OH271332   4.425   3.523  16.061 -0.0017 -0.3920 -0.5970
16614TIP3    H171333   4.396   3.587  15.996  1.9723  0.3932 -0.7587
16614TIP3    H271334   4.350   3.514  16.120 -0.7986  1.0774 -1.3228
16615TIP3   OH271335   6.112   1.246   6.359  0.7452 -0.5883  0.3755
16615TIP3    H171336   6.081   1.307   6.292 -1.2963  0.1432  1.8850
16615TIP3    H271337   6.208   1.249   6.352  0.6044 -0.1162 -2.0796
16616TIP3   OH271338   4.100   2.036  14.887 -0.6830 -0.0056 -0.5138
16616TIP3    H171339   4.182   2.042  14.838  1.0789 -1.6849  1.9823
16616TIP3    H271340   4.095   2.117  14.938 -0.6050  0.1221 -0.7105
16617TIP3   OH271341   4.283   5.291  13.406 -0.1972 -0.6535 -0.5564
16617TIP3    H171342   4.319   5.203  13.403 -2.4762 -1.6703  0.0156
16617TIP3    H271343   4.326   5.332  13.482  2.3536 -0.4927 -1.9663
16618TIP3   OH271344   6.771   2.669  15.093 -0.2836  0.0896  0.5804
16618TIP3    H171345   6.864   2.647  15.090  0.1835  1.8146  1.1127
16618TIP3    H271346   6.731   2.615  15.026  1.0557 -0.9057  0.5530
16619TIP3   OH271347   2.442   5.756  16.627 -0.6670 -0.0685  0.3616
16619TIP3    H171348   2.416   5.727  16.714 -2.5823  1.8405  0.4882
16619TIP3    H271349   2.472   5.846  16.639 -1.2654  0.3334 -0.9723
16620TIP3   OH271350   2.442   5.631  13.445 -0.0838  0.1715  0.0707
16620TIP3    H171351   2.494   5.696  13.491  1.0010 -0.1509 -0.6473
16620TIP3    H271352   2.408   5.574  13.514  0.6131  0.3326  0.5601
16621TIP3   OH271353   1.646   5.441   1.147  0.2677  0.2756  0.1272
16621TIP3    H171354   1.689   5.519   1.111 -0.1476  0.7726  0.6771
16621TIP3    H271355   1.584   5.476   1.211 -0.1225 -0.4993  0.1800
16622TIP3   OH271356   4.326   4.493   2.865 -0.2294  0.0940 -0.4358
16622TIP3    H171357   4.379   4.556   2.817  0.0321 -0.1396 -0.4513
16622TIP3    H271358   4.347   4.409   2.826 -0.1415 -0.0771 -0.0241
16623TIP3   OH271359   3.668   1.754  15.486 -0.2306  0.5612  0.2738
16623TIP3    H171360   3.594   1.734  15.543  0.7570 -2.3322  0.6837
16623TIP3    H271361   3.698   1.669  15.453  3.3174  1.4842  0.6328
16624TIP3   OH271362   4.357   1.455  13.425  0.3704 -0.0772  0.4350
16624TIP3    H171363   4.419   1.390  13.458  1.4814  0.2930 -0.8043
16624TIP3    H271364   4.274   1.408  13.419  1.0659 -1.2974 -0.0729
16625TIP3   OH271365   4.341   0.546   5.121  0.5308  0.3916  0.4006
16625TIP3    H171366   4.320   0.605   5.050  1.6320  0.2616 -0.0633
16625TIP3    H271367   4.259   0.501   5.141 -0.1372  1.5166  0.2519
16626TIP3   OH271368   3.954   0.754   2.054 -0.4988  0.5606 -0.4981
16626TIP3    H171369   3.861   0.755   2.036 -1.0926  2.3885  2.0740
16626TIP3    H271370   3.963   0.699   2.132  0.8023 -0.6824 -1.4655
16627TIP3   OH271371   1.606   0.988  12.742 -0.5528 -0.1369  0.2637
16627TIP3    H171372   1.688   0.940  12.752 -0.4875 -0.2804 -0.8426
16627TIP3    H271373   1.625   1.056  12.677 -0.9003  0.8107  1.1312
16628TIP3   OH271374   5.601   2.569  12.979 -0.1729  0.0002 -0.1491
16628TIP3    H171375   5.585   2.539  13.069  1.1016 -0.7732 -0.1559
16628TIP3    H271376   5.536   2.521  12.927 -0.5021 -0.0260  0.2752
16629TIP3   OH271377   4.412   4.590  16.013 -0.0370  0.2710  0.0153
16629TIP3    H171378   4.338   4.635  16.054 -0.7325  0.0652 -0.9730
16629TIP3    H271379   4.479   4.658  16.003 -0.0827  0.4573  0.9166
16630TIP3   OH271380   5.730   5.815   2.986  0.5010 -0.0562  0.1660
16630TIP3    H171381   5.690   5.903   2.986  2.6339  0.9978 -1.5025
16630TIP3    H271382   5.730   5.789   2.895 -0.7430 -2.1852  0.7143
16631TIP3   OH271383   1.875   4.060  12.299 -0.2915 -0.3202 -0.1542
16631TIP3    H171384   1.952   4.068  12.355  0.2893 -1.2505 -0.7904
16631TIP3    H271385   1.822   3.992  12.340 -1.3625  1.1089  0.9165
16632TIP3   OH271386   0.803   2.183   1.343  0.6074 -0.0348 -0.1568
16632TIP3    H171387   0.859   2.140   1.408  1.8873  2.0715  0.2180
16632TIP3    H271388   0.784   2.269   1.381 -3.9303 -0.9671  0.2933
16633TIP3   OH271389   6.696   4.790  11.468  0.4139  0.0262  0.4600
16633TIP3    H171390   6.692   4.778  11.563  0.6377 -1.0244  0.3508
16633TIP3    H271391   6.678   4.883  11.455 -3.0920 -0.3935  1.2771
16634TIP3   OH271392   2.090   0.710   1.068 -0.0388  0.4467  0.2503
16634TIP3    H171393   2.005   0.705   1.111  0.3938 -0.3772  1.0337
16634TIP3    H271394   2.108   0.804   1.062 -1.9348  0.7826 -1.8875
16635TIP3   OH271395   1.877   3.048   5.854 -0.2380  0.1533  0.6380
16635TIP3    H171396   1.844   2.979   5.911 -1.4915  1.3800  1.4840
16635TIP3    H271397   1.890   3.006   5.770  0.2409 -1.3783  1.4403
16636TIP3   OH271398   1.926   2.709   4.347  0.0861 -0.8564  0.4235
16636TIP3    H171399   1.961   2.706   4.436  0.4301  0.4354  0.3519
16636TIP3    H271400   1.889   2.796   4.338  2.8500  0.2447 -1.6883
16637TIP3   OH271401   5.646   0.124  11.696  0.0432  0.4775  0.1675
16637TIP3    H171402   5.712   0.119  11.765 -0.4174  0.7712  0.6370
16637TIP3    H271403   5.650   0.038  11.652  0.5725  0.4135  0.3315
16638TIP3   OH271404   5.525   3.461   4.220  0.7514  0.0984 -0.4221
16638TIP3    H171405   5.447   3.464   4.165 -0.1831 -3.1541  0.5068
16638TIP3    H271406   5.589   3.411   4.168  1.5762  1.1038 -0.4117
16639TIP3   OH271407   4.989   0.410   2.411  0.2214  0.2980 -0.7236
16639TIP3    H171408   4.955   0.488   2.454 -1.4747 -1.3725  1.1729
16639TIP3    H271409   4.913   0.372   2.367  0.6619 -1.0611 -0.3525
16640TIP3   OH271410   6.153   2.638  13.975 -0.0676  0.1045 -0.1449
16640TIP3    H171411   6.216   2.620  14.046 -0.8185  1.8421  1.0406
16640TIP3    H271412   6.070   2.606  14.008 -0.4250  0.9342 -0.2149
16641TIP3   OH271413   4.823   6.510  14.789  0.4680 -0.2816 -0.1149
16641TIP3    H171414   4.847   6.602  14.786  0.2244 -0.1335  1.7020
16641TIP3    H271415   4.727   6.509  14.785  0.4923 -0.5205 -0.9079
16642TIP3   OH271416   6.003   1.517  11.811 -0.2536  0.6514  0.1866
16642TIP3    H171417   5.992   1.445  11.873  2.4177 -0.3732 -0.3918
16642TIP3    H271418   5.929   1.575  11.828 -0.9937 -0.8558  2.5606
16643TIP3   OH271419   4.274   6.420   3.657  0.4710  0.2210 -0.5841
16643TIP3    H171420   4.234   6.504   3.678  0.2685  0.0847 -0.4163
16643TIP3    H271421   4.347   6.442   3.600  0.1323  0.4722 -0.9306
16644TIP3   OH271422   0.645   4.316  16.108  0.6724 -0.0558 -0.1008
16644TIP3    H171423   0.554   4.317  16.139  0.1071 -2.2436 -1.4895
16644TIP3    H271424   0.697   4.310  16.189 -0.5210 -1.0815  0.6231
16645TIP3   OH271425   6.004   0.334  14.163 -0.0999 -0.3487 -0.2091
16645TIP3    H171426   5.915   0.341  14.127  0.1276  0.6148 -0.5995
16645TIP3    H271427   6.015   0.240  14.179 -1.2475 -0.4676 -0.0040
16646TIP3   OH271428   3.476   0.911  15.496  0.3370  0.2922  0.1595
16646TIP3    H171429   3.526   0.950  15.424 -0.4237 -0.4476 -0.7973
16646TIP3    H271430   3.497   0.965  15.572 -0.9801  2.8338 -1.1671
16647TIP3   OH271431   6.139   3.989  12.355  0.0662  0.8541 -0.0673
16647TIP3    H171432   6.173   3.904  12.330  1.0804  1.3337 -0.3956
16647TIP3    H271433   6.075   4.011  12.288  0.5884  0.8098 -0.5897
16648TIP3   OH271434   3.516   4.872  13.515 -0.2367 -0.0186 -0.2889
16648TIP3    H171435   3.492   4.795  13.567 -1.2059  0.1053 -0.5374
16648TIP3    H271436   3.567   4.927  13.575  0.2329 -0.7189 -0.0309
16649TIP3   OH271437   3.111   6.096   4.612  0.3740  0.5688  0.3823
16649TIP3    H171438   3.099   6.059   4.524 -0.0797  0.9931  0.2634
16649TIP3    H271439   3.028   6.139   4.632 -0.2044 -1.0527  1.7525
16650TIP3   OH271440   0.395   4.558   5.309  0.4747 -0.3082  0.2763
16650TIP3    H171441   0.354   4.483   5.266 -0.7802  1.1558 -1.2175
16650TIP3    H271442   0.332   4.584   5.376  0.5569 -0.1146  0.2778
16651TIP3   OH271443   2.214   6.568   3.517 -0.0882 -0.4575 -0.3711
16651TIP3    H171444   2.203   6.580   3.611 -0.3351 -0.6231 -0.3775
16651TIP3    H271445   2.308   6.561   3.504 -0.0846 -1.0062 -0.0630
16652TIP3   OH271446   0.963   4.665   6.141  0.1175  0.4544  0.5262
16652TIP3    H171447   0.890   4.615   6.176 -1.0608  0.9765 -1.0245
16652TIP3    H271448   1.001   4.709   6.217 -1.0114 -0.0512  1.4157
16653TIP3   OH271449   5.112   5.357   2.876 -0.2104 -0.2109  0.4886
16653TIP3    H171450   5.042   5.299   2.906 -0.2596  0.8443  2.5978
16653TIP3    H271451   5.193   5.311   2.899 -0.2009 -0.6388 -0.3518
16654TIP3   OH271452   4.632   2.743   4.348 -0.0370 -0.0788 -0.3343
16654TIP3    H171453   4.635   2.654   4.381  3.4999 -0.5744 -1.5457
16654TIP3    H271454   4.572   2.789   4.407 -0.3717 -2.7478  1.5708
16655TIP3   OH271455   4.168   2.739  11.255  0.7246 -0.4445  0.0798
16655TIP3    H171456   4.182   2.741  11.160  0.9232 -1.1792  0.0852
16655TIP3    H271457   4.250   2.705  11.291  0.3581 -0.9769  0.4414
16656TIP3   OH271458   2.385   6.786  16.183  0.3173 -0.2656 -0.0909
16656TIP3    H171459   2.384   6.873  16.224 -1.3477  0.0205 -0.6660
16656TIP3    H271460   2.366   6.725  16.254  3.0203 -0.3772  0.6412
16657TIP3   OH271461   2.560   1.055   4.012  0.1955  0.2968  0.1256
16657TIP3    H171462   2.517   1.055   4.097 -0.5205  0.4116 -0.2182
16657TIP3    H271463   2.487   1.051   3.949  0.7169 -0.0184 -0.4730
16658TIP3   OH271464   4.181   0.058   3.029 -0.0419 -0.4748  0.2632
16658TIP3    H171465   4.130   0.138   3.039  0.5196 -0.0626 -0.1000
16658TIP3    H271466   4.187   0.022   3.118 -0.6454 -0.3366  0.3620
16659TIP3   OH271467   1.420   5.909   5.218 -0.0137 -0.4407 -0.4963
16659TIP3    H171468   1.474   5.865   5.152  1.2944  0.3993 -0.0035
16659TIP3    H271469   1.480   5.929   5.290 -0.8338  1.0734 -0.1908
16660TIP3   OH271470   0.603   2.664  14.741 -0.1882  0.1771  0.2217
16660TIP3    H171471   0.520   2.662  14.693 -0.8338 -0.5380  1.3281
16660TIP3    H271472   0.583   2.711  14.822  0.8424  1.2103 -0.0976
16661TIP3   OH271473   0.096   0.660   4.015  0.3968  0.2494  0.4328
16661TIP3    H171474   0.040   0.643   4.091  0.5985 -1.0447  0.3123
16661TIP3    H271475   0.040   0.707   3.954 -0.2209 -0.0322  0.7736
16662TIP3   OH271476   6.256   1.673   1.409  0.2401 -0.1600  0.3225
16662TIP3    H171477   6.330   1.728   1.434  0.0823  0.2215 -0.0357
16662TIP3    H271478   6.188   1.734   1.383  0.9102 -0.4959 -2.5809
16663TIP3   OH271479   2.719   1.839   4.639 -0.1389 -0.1454  0.1523
16663TIP3    H171480   2.786   1.843   4.708  0.0056  0.8389 -0.0297
16663TIP3    H271481   2.767   1.808   4.562  0.8559  3.2479 -0.7620
16664TIP3   OH271482   4.816   2.765  11.427  0.2649  0.2697 -0.0224
16664TIP3    H171483   4.721   2.773  11.434  0.1886 -0.9161  0.5485
16664TIP3    H271484   4.835   2.775  11.334 -0.6785 -1.7650 -0.4792
16665TIP3   OH271485   6.571   2.452   3.346 -0.1176  0.2338  0.3049
16665TIP3    H171486   6.627   2.528   3.331 -1.1515  1.3685  1.9080
16665TIP3    H271487   6.625   2.391   3.395  0.9207 -0.3899 -1.5168
16666TIP3   OH271488   6.548   6.197   1.207  0.6210 -0.3341 -0.0368
16666TIP3    H171489   6.473   6.138   1.197  0.3177  0.0152  0.1429
16666TIP3    H271490   6.516   6.265   1.266  1.3739 -0.6697  0.7753
16667TIP3   OH271491   0.443   6.326  14.209  0.2120  0.3653  0.0929
16667TIP3    H171492   0.524   6.282  14.235  0.8270  0.3014 -1.7948
16667TIP3    H271493   0.374   6.277  14.253  1.0677 -0.7798  0.1911
16668TIP3   OH271494   3.489   3.676  12.953  0.3994 -0.0109  0.2992
16668TIP3    H171495   3.424   3.634  12.898  0.4511 -0.2429  0.4148
16668TIP3    H271496   3.468   3.770  12.947  1.3140  0.1276 -1.2835
16669TIP3   OH271497   0.983   5.528  10.249 -0.5694  0.2848 -0.2266
16669TIP3    H171498   1.076   5.537  10.269 -0.7672 -0.7075  1.2460
16669TIP3    H271499   0.941   5.602  10.293 -0.6156  0.0206  0.1768
16670TIP3   OH271500   4.468   6.556  12.166  0.0652 -0.1531 -0.4328
16670TIP3    H171501   4.458   6.617  12.093 -1.6996  0.4903  0.2895
16670TIP3    H271502   4.435   6.472  12.132 -0.5559  0.0945 -0.4595
16671TIP3   OH271503   4.525   4.556  13.901 -0.2352  0.4973 -0.5969
16671TIP3    H171504   4.592   4.501  13.860 -1.2073 -1.4425  0.2891
16671TIP3    H271505   4.574   4.625  13.944  1.0488  0.3360 -1.7243
16672TIP3   OH271506   5.283   0.865  13.722  0.1678 -0.2222 -0.3644
16672TIP3    H171507   5.327   0.936  13.768  0.2112 -1.0415  0.9067
16672TIP3    H271508   5.191   0.889  13.724  0.0499 -0.7055  1.0383
16673TIP3   OH271509   3.577   4.382   4.658  0.7500  0.3080  0.0707
16673TIP3    H171510   3.595   4.474   4.638  2.9793  0.2410  1.4303
16673TIP3    H271511   3.505   4.385   4.722  0.3213  1.0356 -0.4248
16674TIP3   OH271512   3.865   6.290   2.621  0.6820  0.7163  1.0248
16674TIP3    H171513   3.808   6.301   2.697 -1.5701  0.1598 -0.4722
16674TIP3    H271514   3.856   6.372   2.573 -0.9847 -0.2510 -0.4842
16675TIP3   OH271515   2.741   4.430   1.199  0.2090  0.1467  0.3900
16675TIP3    H171516   2.716   4.369   1.130 -0.7014 -1.1386  1.8099
16675TIP3    H271517   2.685   4.507   1.184  1.6170  0.8706 -1.6218
16676TIP3   OH271518   1.317   0.864  13.203  0.2833  0.2675 -0.1697
16676TIP3    H171519   1.408   0.878  13.230  0.8424  0.1525 -1.8621
16676TIP3    H271520   1.266   0.909  13.270  1.5043 -0.7283  1.5140
16677TIP3   OH271521   0.367   2.859  15.591 -0.1812  0.8990  0.4292
16677TIP3    H171522   0.365   2.881  15.498  1.0345  0.5105  0.2932
16677TIP3    H271523   0.314   2.779  15.597  0.9606  0.0491 -0.2117
16678TIP3   OH271524   6.289   1.936   5.229 -0.1253  0.0350 -0.2402
16678TIP3    H171525   6.209   1.988   5.222 -0.7923 -0.7752  1.0045
16678TIP3    H271526   6.264   1.850   5.192  0.5082  0.1145 -0.8733
16679TIP3   OH271527   1.029   0.968   4.387 -0.2119 -0.2497 -0.1476
16679TIP3    H171528   1.115   0.927   4.377  0.3597  0.8234  0.1162
16679TIP3    H271529   0.993   0.928   4.466  0.3802 -0.1698  0.1708
16680TIP3   OH271530   4.251   4.166  13.375  0.0116  0.3499 -0.1614
16680TIP3    H171531   4.322   4.106  13.351 -0.7243 -1.0136  0.8979
16680TIP3    H271532   4.294   4.251  13.384  1.4012 -0.3141 -0.1976
16681TIP3   OH271533   5.492   3.741   5.138 -0.1013 -0.0770  0.7045
16681TIP3    H171534   5.578   3.751   5.096 -0.7725  1.5003 -0.4036
16681TIP3    H271535   5.487   3.648   5.161  0.1887 -1.2189 -3.1016
16682TIP3   OH271536   6.188   0.169   4.688  0.2104 -0.1975  0.2278
16682TIP3    H171537   6.280   0.171   4.713 -0.1675 -1.8857  2.0090
16682TIP3    H271538   6.152   0.252   4.720  1.0397  0.3545 -0.2438
16683TIP3   OH271539   5.298   6.197   0.928 -0.1662  0.3198  0.1635
16683TIP3    H171540   5.263   6.220   1.014 -0.1078  0.0576  0.2584
16683TIP3    H271541   5.393   6.207   0.938  0.3193 -3.7209  1.4245
16684TIP3   OH271542   4.301   3.519   0.890 -0.2196  0.7900 -0.3864
16684TIP3    H171543   4.355   3.479   0.822 -1.8871 -1.0229 -0.7331
16684TIP3    H271544   4.246   3.448   0.922 -1.3182  2.1993  1.0220
16685TIP3   OH271545   4.378   0.213  15.845  0.0556 -0.3320  0.2985
16685TIP3    H171546   4.458   0.197  15.795  2.1874  1.5160  2.8463
16685TIP3    H271547   4.353   0.302  15.822 -0.3855 -0.3454  0.7200
16686TIP3   OH271548   2.001   4.577  16.538 -0.3863 -0.1399  0.2576
16686TIP3    H171549   2.082   4.539  16.570 -0.1981  0.2082  0.2069
16686TIP3    H271550   1.999   4.555  16.445 -0.0073  0.4289  0.1094
16687TIP3   OH271551   3.524   2.363  12.316 -0.0115  0.1884 -0.3422
16687TIP3    H171552   3.549   2.367  12.223 -2.2081 -0.7820 -1.0433
16687TIP3    H271553   3.569   2.438  12.356 -0.5630  1.8450 -2.6077
16688TIP3   OH271554   1.802   2.578   1.269  0.3603  0.2758 -0.4435
16688TIP3    H171555   1.740   2.626   1.324  1.5998  0.8329  0.5301
16688TIP3    H271556   1.816   2.495   1.314  2.5325  1.3335  0.9971
16689TIP3   OH271557   3.630   1.277   4.160 -0.3802  0.1972 -0.1379
16689TIP3    H171558   3.684   1.273   4.081  1.7948 -1.1735  1.3213
16689TIP3    H271559   3.625   1.187   4.190  0.7057  0.9064  2.4386
16690TIP3   OH271560   6.351   4.668  10.591  0.3024 -0.4944  0.3388
16690TIP3    H171561   6.440   4.634  10.584  0.2071 -0.5143 -0.9456
16690TIP3    H271562   6.356   4.756  10.552 -0.4264 -0.8459 -0.5691
16691TIP3   OH271563   2.369   4.396  11.986 -0.2686 -0.7526  0.0272
16691TIP3    H171564   2.430   4.356  12.048 -0.0361  1.2589  1.2078
16691TIP3    H271565   2.358   4.486  12.019 -2.0844 -0.3722 -1.4719
16692TIP3   OH271566   5.033   5.591   3.118  0.1159 -0.1583 -0.0956
16692TIP3    H171567   5.048   5.684   3.102  1.2508  0.0115  1.6297
16692TIP3    H271568   4.944   5.586   3.152  0.5786  0.5709  1.3412
16693TIP3   OH271569   0.035   3.878   5.979 -0.2593  0.1211  0.5645
16693TIP3    H171570  -0.008   3.827   5.911 -0.0995  1.9255 -0.9556
16693TIP3    H271571   0.129   3.864   5.964 -0.2267 -0.3523  1.1473
16694TIP3   OH271572   6.518   1.198   0.514 -0.1752 -0.3691 -0.6080
16694TIP3    H171573   6.443   1.184   0.571 -0.8695  2.4880 -0.6732
16694TIP3    H271574   6.594   1.197   0.572 -0.2860 -2.3129 -0.4141
16695TIP3   OH271575   0.028   5.568   0.494  0.7485 -0.3296  0.1587
16695TIP3    H171576  -0.065   5.592   0.498  0.2014 -2.0597 -1.0831
16695TIP3    H271577   0.071   5.646   0.460 -0.8045 -0.5837 -2.6907
16696TIP3   OH271578   3.657   0.253  11.769  0.1347 -0.4283 -0.1940
16696TIP3    H171579   3.636   0.232  11.860  0.1955 -0.4090 -0.1753
16696TIP3    H271580   3.572   0.260  11.726  0.0898  0.0075 -0.0387
16697TIP3   OH271581   1.879   6.670  11.911 -0.6647 -0.4287  0.6886
16697TIP3    H171582   1.970   6.699  11.922 -0.7356 -1.1778  4.1865
16697TIP3    H271583   1.885   6.594  11.853  1.0405 -0.9311  1.4709
16698TIP3   OH271584   0.624   4.887  10.844  0.2382 -0.0380 -0.4210
16698TIP3    H171585   0.693   4.908  10.906 -1.1441  0.7315  0.9254
16698TIP3    H271586   0.652   4.805  10.804  1.5595 -0.1302  0.6232
16699TIP3   OH271587   0.700   2.289   1.975 -0.2258 -0.1893 -0.4523
16699TIP3    H171588   0.689   2.220   1.909  2.7387 -0.0147 -1.2657
16699TIP3    H271589   0.735   2.363   1.926  1.6785  0.0841  1.2155
16700TIP3   OH271590   6.691   6.471   4.608  0.2399  0.6936  0.2498
16700TIP3    H171591   6.651   6.411   4.545 -0.6864 -0.6891  2.0265
16700TIP3    H271592   6.784   6.451   4.605  0.2422  0.8178 -0.8127
16701TIP3   OH271593   0.185   3.577  16.926  0.1816 -0.0767  0.4151
16701TIP3    H171594   0.114   3.549  16.983  0.0270 -0.7086 -0.0723
16701TIP3    H271595   0.260   3.589  16.984  0.0911 -0.9439  0.7211
16702TIP3   OH271596   5.134   1.893   3.232  0.5231 -0.0915  0.2053
16702TIP3    H171597   5.094   1.861   3.314 -2.6754 -0.1443 -1.2346
16702TIP3    H271598   5.108   1.985   3.227  0.4204 -0.1736 -0.8868
16703TIP3   OH271599   4.009   0.600  14.140 -0.1685  0.3745  0.3491
16703TIP3    H171600   3.957   0.548  14.201 -1.5005 -0.4547 -1.3770
16703TIP3    H271601   3.978   0.690  14.153  0.6264  0.4477  1.8820
16704TIP3   OH271602   0.901   4.222  13.886  0.2155 -0.3938 -0.7731
16704TIP3    H171603   0.984   4.266  13.866  0.1077  0.0581 -0.2596
16704TIP3    H271604   0.874   4.260  13.970 -0.7478 -0.1847 -1.1656
16705TIP3   OH271605   0.692   3.117  16.300  0.0624  0.3477 -0.0726
16705TIP3    H171606   0.753   3.184  16.328 -0.8289  0.6042  1.3414
16705TIP3    H271607   0.703   3.113  16.205  2.0168  0.6028  0.1070
16706TIP3   OH271608   0.794   5.023  15.519  0.4526  0.2637  0.6057
16706TIP3    H171609   0.786   5.116  15.501  0.1891  0.4919  1.8056
16706TIP3    H271610   0.728   5.006  15.587  1.4154 -0.5066  1.3779
16707TIP3   OH271611   0.400   3.002  14.863  0.7342 -0.4623  0.2140
16707TIP3    H171612   0.392   3.074  14.926 -1.6408 -0.0331 -0.4741
16707TIP3    H271613   0.398   2.923  14.917  0.7371 -0.0625  0.8045
16708TIP3   OH271614   2.337   5.994   0.184  0.5028  0.3477 -0.1411
16708TIP3    H171615   2.312   6.086   0.195 -2.0508 -0.4409  1.8241
16708TIP3    H271616   2.432   5.996   0.174  0.7167  3.1154  1.3997
16709TIP3   OH271617   5.633   6.291   3.988 -0.1229  0.3218 -0.2614
16709TIP3    H171618   5.588   6.224   3.937  0.7186 -1.3716  1.1160
16709TIP3    H271619   5.691   6.333   3.925 -1.3600  0.4421 -1.3661
16710TIP3   OH271620   3.770   1.070  15.302  0.5056 -0.3477 -0.2824
16710TIP3    H171621   3.796   1.004  15.237 -0.4312 -1.7512  0.7141
16710TIP3    H271622   3.828   1.052  15.377 -0.6016 -0.9044  0.4652
16711TIP3   OH271623   0.776   4.191  11.906 -0.3078 -0.2787  0.7534
16711TIP3    H171624   0.821   4.187  11.822 -2.4001 -0.3114 -0.4345
16711TIP3    H271625   0.758   4.100  11.928 -0.1131 -0.2469  1.0449
16712TIP3   OH271626   1.944   1.303  12.370 -0.2575 -0.0355 -0.2467
16712TIP3    H171627   2.013   1.369  12.374  0.7342 -0.8661 -2.5044
16712TIP3    H271628   1.882   1.337  12.305 -1.0937 -0.1473  0.4640
16713TIP3   OH271629   3.374   5.411  11.191 -0.3196  1.0913  0.2968
16713TIP3    H171630   3.360   5.333  11.245  0.4051  0.3399 -0.5686
16713TIP3    H271631   3.468   5.428  11.196 -0.4719  1.9538  0.5098
16714TIP3   OH271632   1.654   6.241  12.429  0.2453  0.3421  0.2477
16714TIP3    H171633   1.691   6.183  12.363  0.9934  1.7662 -0.6228
16714TIP3    H271634   1.717   6.241  12.501  0.9402  1.1470 -0.3501
16715TIP3   OH271635   4.290   1.340  12.667 -0.4096  0.6479  0.6113
16715TIP3    H171636   4.321   1.250  12.659  0.1234  0.8461  0.3936
16715TIP3    H271637   4.310   1.365  12.757  0.1678  0.8102  0.4405
16716TIP3   OH271638   3.698   1.822   3.925 -0.4723 -0.2740  0.0869
16716TIP3    H171639   3.787   1.852   3.905 -0.9711  1.2292  0.0179
16716TIP3    H271640   3.707   1.774   4.008  0.4210 -0.2680  0.0017
16717TIP3   OH271641   4.567   0.269  16.954 -0.0053 -0.4015  0.1129
16717TIP3    H171642   4.543   0.343  17.010  0.3080 -0.4066  0.2601
16717TIP3    H271643   4.633   0.305  16.895  0.2272 -0.5868  0.2554
16718TIP3   OH271644   3.484   6.393   5.407  0.7441 -0.3505  0.6640
16718TIP3    H171645   3.448   6.479   5.387  0.0981 -0.7715 -0.0022
16718TIP3    H271646   3.498   6.351   5.322 -0.4500 -1.5160  1.0001
16719TIP3   OH271647   5.994   0.153   2.323  0.8578  0.4445  0.1735
16719TIP3    H171648   6.014   0.160   2.417 -2.4326 -3.5448  1.5043
16719TIP3    H271649   5.948   0.234   2.302  1.2888  1.2481  2.1024
16720TIP3   OH271650   5.729   2.654   1.359 -0.8629  0.5973 -0.0414
16720TIP3    H171651   5.701   2.735   1.402 -0.3260  0.9633 -0.3782
16720TIP3    H271652   5.734   2.590   1.431  1.5429  1.5790  0.7796
16721TIP3   OH271653   1.882   3.744   3.998  0.2843  0.0622  0.3159
16721TIP3    H171654   1.795   3.780   4.013  0.0852 -0.0192 -0.5814
16721TIP3    H271655   1.940   3.797   4.053  0.0872  2.2074 -1.4157
16722TIP3   OH271656   5.994   5.174   4.650  0.1789 -0.5743 -0.2094
16722TIP3    H171657   5.997   5.266   4.624 -1.2638 -0.5438 -0.3393
16722TIP3    H271658   6.017   5.175   4.743 -1.8910  0.2167  0.3653
16723TIP3   OH271659   1.923   3.614   4.743 -0.0241 -0.1547 -0.4994
16723TIP3    H171660   1.938   3.694   4.692 -0.4804 -0.4047 -1.0345
16723TIP3    H271661   1.872   3.558   4.685 -0.9047 -0.2861  0.3728
16724TIP3   OH271662   1.455   0.879  14.125  0.2024 -1.0981 -0.3757
16724TIP3    H171663   1.516   0.943  14.162  1.2961 -2.3114 -0.0423
16724TIP3    H271664   1.452   0.808  14.188 -0.3363 -1.7803 -1.1442
16725TIP3   OH271665   4.142   0.736   2.763  0.0092  0.5670  0.2044
16725TIP3    H171666   4.189   0.791   2.700  0.7510 -0.0975  0.1566
16725TIP3    H271667   4.206   0.669   2.788 -1.0091 -0.5604 -0.0961
16726TIP3   OH271668   6.186   6.154  15.844 -0.0558 -0.0294 -0.8285
16726TIP3    H171669   6.246   6.144  15.770  1.3318  1.9465 -0.0604
16726TIP3    H271670   6.217   6.091  15.909  1.0917  0.8109 -0.5313
16727TIP3   OH271671   2.430   3.339  14.375 -0.1255  0.4879 -0.6817
16727TIP3    H171672   2.511   3.313  14.419 -0.2923 -0.3960 -0.8792
16727TIP3    H271673   2.411   3.267  14.315 -0.9478  0.7879 -0.7957
16728TIP3   OH271674   0.984   5.197   0.710  0.6016 -0.6475  0.2707
16728TIP3    H171675   0.955   5.115   0.672  0.9088  0.1123 -1.7505
16728TIP3    H271676   1.080   5.191   0.710  0.6227 -0.3434  0.2180
16729TIP3   OH271677   6.338   2.373  13.535  0.1830  0.1193 -0.5013
16729TIP3    H171678   6.274   2.303  13.523 -0.1333  0.3995 -0.4711
16729TIP3    H271679   6.408   2.333  13.587 -0.3362  0.0242  0.1411
16730TIP3   OH271680   0.102   3.134  15.729 -0.9013 -0.0640 -0.9343
16730TIP3    H171681   0.140   3.082  15.800  0.0267 -0.1768 -1.4944
16730TIP3    H271682   0.036   3.077  15.690  0.9912 -1.3923 -2.3745
16731TIP3   OH271683   2.754   5.966   0.705  0.0136  0.1780  0.2941
16731TIP3    H171684   2.752   5.979   0.800  0.0455  0.9205  0.1994
16731TIP3    H271685   2.745   5.871   0.694  2.0891 -0.1656  1.1097
16732TIP3   OH271686   5.509   3.665   2.525  0.4375 -0.4280 -0.3855
16732TIP3    H171687   5.461   3.584   2.511 -1.3995  0.6777 -0.8103
16732TIP3    H271688   5.518   3.672   2.620 -2.7713  0.6443 -0.0364
16733TIP3   OH271689   3.935   5.366   4.170 -0.1430 -0.4582  0.1792
16733TIP3    H171690   3.940   5.270   4.166 -2.2386 -0.6199  0.2722
16733TIP3    H271691   3.872   5.389   4.101  0.6240  0.8967 -0.0901
16734TIP3   OH271692   0.498   5.799  16.359  0.0844  0.0791 -0.1158
16734TIP3    H171693   0.569   5.773  16.418 -0.7858 -0.3010  0.7843
16734TIP3    H271694   0.474   5.719  16.313 -1.1524 -0.3105  1.1160
16735TIP3   OH271695   6.512   1.768   6.514 -0.0914  0.3513  0.0341
16735TIP3    H171696   6.553   1.793   6.597 -0.6057 -0.4880  0.5550
16735TIP3    H271697   6.542   1.833   6.452 -1.3564  2.2621  1.3190
16736TIP3   OH271698   0.102   2.318  14.242 -0.2993  0.4745 -0.0001
16736TIP3    H171699   0.050   2.242  14.216  0.3626 -0.3616  1.0307
16736TIP3    H271700   0.040   2.390  14.246 -0.8782  0.0693 -1.3276
16737TIP3   OH271701   5.764   4.535   5.386  0.2617  0.5865 -0.1703
16737TIP3    H171702   5.787   4.530   5.479 -0.1747 -0.5930 -0.1083
16737TIP3    H271703   5.833   4.588   5.347  1.3787 -0.3057  0.5373
16738TIP3   OH271704   6.221   5.318  13.839 -0.4626 -0.0380 -0.4063
16738TIP3    H171705   6.135   5.356  13.859 -0.9662  0.0873 -2.5889
16738TIP3    H271706   6.243   5.352  13.753  2.5797  1.2301  0.7120
16739TIP3   OH271707   1.531   3.391  16.596 -0.0324 -0.5169  0.0732
16739TIP3    H171708   1.505   3.465  16.542 -0.4569 -0.1331  0.7929
16739TIP3    H271709   1.618   3.414  16.628  0.8986 -1.4251 -1.6474
16740TIP3   OH271710   6.557   3.584  12.175  0.0626 -0.4219  0.0040
16740TIP3    H171711   6.508   3.653  12.219  1.5962 -0.2752  1.5558
16740TIP3    H271712   6.590   3.625  12.095  0.1500  0.3553  0.4346
16741TIP3   OH271713   5.263   6.814   0.008 -0.8176  0.1633 -0.0852
16741TIP3    H171714   5.183   6.803  -0.044 -1.4360  2.4971  0.2431
16741TIP3    H271715   5.332   6.830  -0.057 -0.7573 -1.0103 -0.3311
16742TIP3   OH271716   3.164   1.115  16.710  0.5608  0.1939  0.5071
16742TIP3    H171717   3.182   1.067  16.790 -1.4058 -1.4193  0.0743
16742TIP3    H271718   3.249   1.147  16.680  1.5645 -0.7941  2.2237
16743TIP3   OH271719   1.606   1.052  14.249 -0.5459  0.3221  0.3283
16743TIP3    H171720   1.557   1.119  14.298  0.5827  1.7389 -0.3978
16743TIP3    H271721   1.666   1.015  14.313  0.8583  2.0973  0.1309
16744TIP3   OH271722   5.923   4.583  13.650 -0.3878 -0.3809 -0.1672
16744TIP3    H171723   5.930   4.663  13.597 -0.5479 -0.3480 -0.1387
16744TIP3    H271724   5.964   4.515  13.595 -1.4257 -0.5516 -0.7693
16745TIP3   OH271725   1.963   3.210  12.486  0.1479  0.3784 -0.1864
16745TIP3    H171726   2.014   3.225  12.565 -0.0440 -0.9407  0.2145
16745TIP3    H271727   1.936   3.298  12.457  2.4793  1.0939 -0.3400
16746TIP3   OH271728   1.680   0.353   4.011 -0.3441 -0.3370  0.8887
16746TIP3    H171729   1.591   0.338   3.980  0.0496 -2.3114  0.5750
16746TIP3    H271730   1.673   0.353   4.106 -1.1386  3.0321  0.9777
16747TIP3   OH271731   4.475   2.947   3.146  0.2826 -0.5883 -0.0353
16747TIP3    H171732   4.391   2.952   3.192  0.1081 -3.0248  0.0681
16747TIP3    H271733   4.452   2.920   3.057  0.9003 -0.4077 -0.2558
16748TIP3   OH271734   0.456   6.780  12.595 -0.1237 -0.1167  0.6192
16748TIP3    H171735   0.518   6.799  12.665  1.3256  1.8129 -1.0755
16748TIP3    H271736   0.385   6.842  12.608  1.6389  2.4886 -1.3050
16749TIP3   OH271737   5.841   0.219   1.504 -0.5013 -0.0610 -0.0675
16749TIP3    H171738   5.838   0.303   1.550 -1.0168 -0.3428  0.4148
16749TIP3    H271739   5.853   0.154   1.573 -0.5714 -0.4255 -0.3960
16750TIP3   OH271740   6.766   0.996  14.846 -0.2600 -0.1295 -0.0739
16750TIP3    H171741   6.723   0.963  14.768 -0.2990 -0.3364  0.0360
16750TIP3    H271742   6.849   1.033  14.814 -0.5936  0.4343 -0.3092
16751TIP3   OH271743   3.198   6.073   0.323  0.1539 -1.1353  0.0415
16751TIP3    H171744   3.159   6.028   0.398  0.8155 -0.1351  0.9953
16751TIP3    H271745   3.291   6.079   0.343  0.1489  0.3000 -0.2342
16752TIP3   OH271746   2.897   5.416   5.515  0.1183  0.7071 -0.0961
16752TIP3    H171747   2.820   5.361   5.500  0.1978  0.2132  1.1692
16752TIP3    H271748   2.971   5.363   5.484  0.2765 -0.2795  1.8026
16753TIP3   OH271749   1.579   5.841   2.496 -0.1720  0.6606  0.2855
16753TIP3    H171750   1.650   5.793   2.453 -0.8798 -0.6169  0.5213
16753TIP3    H271751   1.540   5.893   2.426  0.6198  0.9353  0.0315
16754TIP3   OH271752   6.461   5.148  16.310  0.1105  0.1142  0.7241
16754TIP3    H171753   6.551   5.148  16.279  0.0508 -0.2285  0.5428
16754TIP3    H271754   6.445   5.238  16.339  0.3226  0.3186  0.2094
16755TIP3   OH271755   1.382   2.467   2.524 -0.3180  0.4151 -0.4307
16755TIP3    H171756   1.301   2.416   2.528 -1.1276  1.4827 -2.0200
16755TIP3    H271757   1.364   2.546   2.574 -0.1503  0.5125 -0.5225
16756TIP3   OH271758   5.377   1.833  15.377 -0.0651  0.2344  0.0962
16756TIP3    H171759   5.358   1.789  15.459  0.6140 -1.8575 -0.8067
16756TIP3    H271760   5.422   1.914  15.403  1.7177 -1.1970  1.7539
16757TIP3   OH271761   2.386   3.779   5.743  0.2982  0.0270  0.1585
16757TIP3    H171762   2.310   3.740   5.786  1.4216 -1.9193  0.5038
16757TIP3    H271763   2.384   3.871   5.769 -3.1125  0.6102 -1.5947
16758TIP3   OH271764   0.181   0.654   0.187  0.1399  0.6507  0.2324
16758TIP3    H171765   0.150   0.673   0.098 -1.7605 -3.0249 -0.1105
16758TIP3    H271766   0.105   0.666   0.243 -0.0359 -1.4401  0.5508
16759TIP3   OH271767   5.160   4.103  11.681  0.1614 -0.1249 -0.6387
16759TIP3    H171768   5.204   4.023  11.710  1.0641  0.7136  0.4075
16759TIP3    H271769   5.171   4.164  11.754  0.5818  1.3617 -1.8954
16760TIP3   OH271770   6.845   5.840   2.656 -0.2403  0.0662 -0.4434
16760TIP3    H171771   6.760   5.830   2.699  0.8544  0.4623  2.0087
16760TIP3    H271772   6.870   5.752   2.630 -2.0867  0.1383 -2.7993
16761TIP3   OH271773   3.200   3.139   4.905  0.2165 -0.2312 -0.3967
16761TIP3    H171774   3.125   3.182   4.946 -0.8565 -0.9397 -1.5303
16761TIP3    H271775   3.276   3.183   4.941 -0.7350  0.3819  0.9428
16762TIP3   OH271776   1.334   2.266   3.868 -0.7177 -0.1773  0.0479
16762TIP3    H171777   1.370   2.293   3.953  2.0308  1.8224 -1.5918
16762TIP3    H271778   1.314   2.348   3.824 -0.7516 -1.1144 -1.7641
16763TIP3   OH271779   6.361   0.728  15.846  0.0001 -0.8241 -0.0577
16763TIP3    H171780   6.413   0.747  15.767  1.0917  1.2911  1.0803
16763TIP3    H271781   6.402   0.651  15.884 -0.1312 -1.4765 -1.1901
16764TIP3   OH271782   2.578   4.612  16.946  0.1659  0.4252  0.2784
16764TIP3    H171783   2.593   4.518  16.959  0.3669  0.1806 -1.4907
16764TIP3    H271784   2.490   4.616  16.908  0.1897  0.9580  0.2847
16765TIP3   OH271785   5.791   4.067  14.353 -0.1694  0.5346  0.0144
16765TIP3    H171786   5.774   3.981  14.392 -0.7677  0.7002  0.1230
16765TIP3    H271787   5.727   4.125  14.394 -1.2510  0.5912 -1.6645
16766TIP3   OH271788   5.469   3.889   1.511 -0.1100 -0.3409  0.1357
16766TIP3    H171789   5.517   3.834   1.449  0.1708  1.0311 -0.9096
16766TIP3    H271790   5.397   3.926   1.460 -0.0768  0.5516  0.7115
16767TIP3   OH271791   4.119   2.436   3.448  0.5454  0.5123 -0.1105
16767TIP3    H171792   4.073   2.513   3.481  1.4978  0.3721  1.6951
16767TIP3    H271793   4.075   2.361   3.488  0.9653  0.2574 -0.1103
16768TIP3   OH271794   5.669   0.719  12.658  0.3437  0.0034 -0.1365
16768TIP3    H171795   5.693   0.774  12.733  0.8698  0.1896 -0.4418
16768TIP3    H271796   5.573   0.727  12.653  0.3682  0.5213  0.1058
16769TIP3   OH271797   3.224   2.884   0.804 -0.0852 -0.3784  0.2668
16769TIP3    H171798   3.250   2.879   0.895  1.9323  0.8370 -0.1875
16769TIP3    H271799   3.260   2.805   0.764  0.5104 -0.0798  0.2025
16770TIP3   OH271800   0.662   6.711   3.933  0.4635 -0.5381  0.3973
16770TIP3    H171801   0.677   6.633   3.986 -0.1429 -1.1130 -0.2563
16770TIP3    H271802   0.644   6.677   3.845  2.8689  0.4200 -0.5578
16771TIP3   OH271803   5.961   3.388   2.860 -0.4533  0.1791 -0.0550
16771TIP3    H171804   6.030   3.325   2.842  0.2842  0.2628  2.2272
16771TIP3    H271805   5.999   3.473   2.837 -1.5804 -0.0853 -3.5106
16772TIP3   OH271806   0.634   0.642  12.455  0.2877 -0.2485  0.2508
16772TIP3    H171807   0.691   0.588  12.399  0.3333 -0.8954  0.9084
16772TIP3    H271808   0.555   0.588  12.466 -0.0718  0.2463  0.1152
16773TIP3   OH271809   2.327   6.587   5.086 -0.6874 -0.7662 -0.3359
16773TIP3    H171810   2.271   6.603   5.011 -2.2393 -0.6747  0.7797
16773TIP3    H271811   2.338   6.492   5.088 -0.8226 -0.7872 -0.5555
16774TIP3   OH271812   0.201   1.775  16.340 -0.0599 -0.1304  0.2921
16774TIP3    H171813   0.145   1.749  16.267  0.0616  0.4246 -0.0087
16774TIP3    H271814   0.176   1.718  16.412 -0.4501 -0.4245 -0.0752
16775TIP3   OH271815   0.189   2.677  15.266 -0.7537  0.0828  0.0012
16775TIP3    H171816   0.112   2.704  15.316 -0.7495  1.0950 -0.5178
16775TIP3    H271817   0.250   2.750  15.274  0.1310 -0.6803  0.3410
16776TIP3   OH271818   6.360   0.140   0.834  0.6005  0.5631  0.5508
16776TIP3    H171819   6.323   0.162   0.919  1.8608  1.8956  0.7775
16776TIP3    H271820   6.312   0.061   0.807 -1.0462  1.1275  1.6730
16777TIP3   OH271821   1.114   6.132  11.562  0.0998  0.2252  0.2283
16777TIP3    H171822   1.117   6.134  11.657 -0.6316  0.5791  0.2492
16777TIP3    H271823   1.123   6.040  11.539 -2.1195 -0.1756  0.7447
16778TIP3   OH271824   4.538   3.357   2.630 -0.1500  0.1058 -0.2471
16778TIP3    H171825   4.605   3.289   2.638 -1.5560 -1.3655 -0.5443
16778TIP3    H271826   4.486   3.349   2.710  1.0500  2.4669  0.8793
16779TIP3   OH271827   5.635   1.470  16.840  0.1720 -0.4440  0.2849
16779TIP3    H171828   5.622   1.541  16.778  2.0672  1.9447  2.4311
16779TIP3    H271829   5.726   1.441  16.825  0.7699  0.3985  2.0787
16780TIP3   OH271830   6.146   1.440  12.311 -0.3534  0.4804 -0.2473
16780TIP3    H171831   6.081   1.398  12.368  0.5434 -0.1803  0.3236
16780TIP3    H271832   6.191   1.503  12.368 -0.2012  0.6182 -0.5179
16781TIP3   OH271833   4.897   1.188  15.073 -0.4074  0.2138 -0.4288
16781TIP3    H171834   4.881   1.160  15.162 -1.8848  0.7147 -0.5129
16781TIP3    H271835   4.921   1.108  15.026 -0.5142 -0.2017  0.2205
16782TIP3   OH271836   6.686   2.181  11.214 -0.1467  0.1270 -0.6452
16782TIP3    H171837   6.725   2.193  11.128 -1.0268  0.6035 -0.9845
16782TIP3    H271838   6.657   2.090  11.215  3.0095 -1.0315  0.4900
16783TIP3   OH271839   1.442   4.755  14.962 -0.0858  0.0755 -0.5987
16783TIP3    H171840   1.354   4.720  14.959 -0.4624  0.7334  1.1374
16783TIP3    H271841   1.499   4.681  14.942 -0.9064 -1.2338  1.5973
16784TIP3   OH271842   1.930   6.049   4.797 -0.8090 -0.7008 -0.4961
16784TIP3    H171843   1.916   5.967   4.845 -2.5810 -0.2385 -0.1446
16784TIP3    H271844   1.986   6.101   4.855  0.6534 -1.7676 -0.8872
16785TIP3   OH271845   0.653   0.536   4.005 -0.2971  0.0089  0.2640
16785TIP3    H171846   0.595   0.468   4.038  0.6030  0.9931  4.5935
16785TIP3    H271847   0.629   0.614   4.056  2.5521  1.3108 -0.1919
16786TIP3   OH271848   4.268   5.089  13.166 -0.3740 -0.8403  0.3165
16786TIP3    H171849   4.343   5.031  13.153 -0.9022 -1.6339  0.7290
16786TIP3    H271850   4.204   5.062  13.100  0.1298  0.6144 -0.8223
16787TIP3   OH271851   5.604   5.778   6.432  0.2838 -0.1136 -0.0076
16787TIP3    H171852   5.553   5.771   6.513 -0.7701 -0.2228 -0.6646
16787TIP3    H271853   5.685   5.731   6.450 -0.2176 -0.7001  0.7668
16788TIP3   OH271854   1.605   6.751   4.794 -0.2263 -0.4338  0.0034
16788TIP3    H171855   1.647   6.821   4.744  0.1274  0.8227  1.9431
16788TIP3    H271856   1.676   6.691   4.818  0.0454  0.2550  0.9927
16789TIP3   OH271857   1.212   4.521  12.798 -0.2013  0.8377  0.5504
16789TIP3    H171858   1.245   4.460  12.733 -2.0550  1.4898 -1.1048
16789TIP3    H271859   1.289   4.568  12.829  0.7803  0.2142 -0.8825
16790TIP3   OH271860   0.804   5.820  15.674 -0.7207  0.4214  0.5883
16790TIP3    H171861   0.711   5.842  15.671 -1.0347 -0.2297  3.0919
16790TIP3    H271862   0.820   5.772  15.593 -2.5810  0.5175  0.1232
16791TIP3   OH271863   0.806   0.821  14.006  0.5827 -0.6384  0.8170
16791TIP3    H171864   0.719   0.852  14.032  0.1302  0.4078 -1.6716
16791TIP3    H271865   0.859   0.900  13.998  1.5173 -1.1846  1.4030
16792TIP3   OH271866   3.366   5.139   3.826  0.3947 -0.3214  0.5814
16792TIP3    H171867   3.274   5.162   3.812  0.3822 -1.4019 -1.5080
16792TIP3    H271868   3.392   5.190   3.903 -1.2778  1.8159 -0.1856
16793TIP3   OH271869   2.838   3.705  16.705 -0.1999  0.1180  0.1264
16793TIP3    H171870   2.879   3.791  16.717 -0.9546  0.9456 -2.5611
16793TIP3    H271871   2.910   3.642  16.718  1.0124  1.3139 -0.5611
16794TIP3   OH271872   0.893   0.301   1.419 -0.5878  0.7428  0.4127
16794TIP3    H171873   0.840   0.381   1.423  0.1411  1.2875 -0.3754
16794TIP3    H271874   0.832   0.233   1.389 -1.0234  1.1825  0.2813
16795TIP3   OH271875   6.383   1.146   3.818  0.2731 -0.0457 -0.1815
16795TIP3    H171876   6.299   1.137   3.862  0.2953 -0.6754 -0.2589
16795TIP3    H271877   6.440   1.188   3.883  0.1210 -0.3523  0.1525
16796TIP3   OH271878   5.312   0.996   3.902 -0.0969 -0.0358 -0.9069
16796TIP3    H171879   5.308   1.040   3.817  3.3263 -1.1830 -1.8329
16796TIP3    H271880   5.321   0.903   3.880 -1.1549 -0.5953  0.8251
16797TIP3   OH271881   2.143   4.005   4.393  0.5641  0.5511  0.6710
16797TIP3    H171882   2.123   4.091   4.356  1.1151 -0.7600 -3.1424
16797TIP3    H271883   2.239   4.000   4.391  0.5015 -0.7530 -0.9281
16798TIP3   OH271884   1.507   3.835  15.460 -0.3793  0.2018  0.0950
16798TIP3    H171885   1.594   3.815  15.494 -0.4185  0.8481  0.5821
16798TIP3    H271886   1.447   3.808  15.530 -0.4731  1.3049  0.4541
16799TIP3   OH271887   0.568   2.847   3.117 -0.2740  0.1039  1.0624
16799TIP3    H171888   0.663   2.832   3.119 -0.3744 -1.2738 -0.8305
16799TIP3    H271889   0.556   2.910   3.046 -0.8237 -0.6656  0.4456
16800TIP3   OH271890   4.899   0.110   0.564 -0.6366 -0.6306 -0.1100
16800TIP3    H171891   4.956   0.060   0.505  0.0944  1.0468 -0.8942
16800TIP3    H271892   4.875   0.048   0.633 -1.1188 -2.5234 -1.8890
16801TIP3   OH271893   4.897   2.015   4.970  0.7657  0.1243 -0.0483
16801TIP3    H171894   4.822   2.058   4.929  0.2321 -1.0116 -0.3336
16801TIP3    H271895   4.921   1.946   4.908  1.0694 -0.4984  0.7405
16802TIP3   OH271896   1.696   5.605  14.837 -0.6192  0.0384 -0.4597
16802TIP3    H171897   1.625   5.656  14.798 -1.3120  0.4387  1.2091
16802TIP3    H271898   1.651   5.542  14.894  0.2876 -1.4734 -1.3267
16803TIP3   OH271899   1.856   0.951   3.335 -0.1229 -0.4471 -0.0718
16803TIP3    H171900   1.782   0.891   3.342  0.0818 -0.6570  0.2949
16803TIP3    H271901   1.854   0.981   3.243  1.1036 -2.7169 -0.9095
16804TIP3   OH271902   1.571   2.040   2.460 -0.3054  0.4201  0.5364
16804TIP3    H171903   1.574   2.132   2.435 -1.5248  0.4461  0.4137
16804TIP3    H271904   1.646   2.028   2.518  0.8032  1.0885 -0.7287
16805TIP3   OH271905   4.844   2.007  15.921  0.3836  0.1226 -0.2718
16805TIP3    H171906   4.802   1.968  15.844 -0.1844  0.6523 -0.2391
16805TIP3    H271907   4.832   1.942  15.990  0.4114 -0.1180 -0.4936
16806TIP3   OH271908   5.311   6.701  11.621 -0.1988  0.1683  0.1156
16806TIP3    H171909   5.257   6.772  11.655  0.2762  0.8883 -0.6098
16806TIP3    H271910   5.369   6.743  11.558 -1.1909 -1.1603 -1.7520
16807TIP3   OH271911   1.193   4.942  12.341 -0.1326 -0.3731 -0.0797
16807TIP3    H171912   1.177   4.979  12.427  1.2732  0.9609 -0.3471
16807TIP3    H271913   1.238   4.859  12.357  0.8908  0.2734  0.4802
16808TIP3   OH271914   3.883   1.172   4.003  0.5389  0.0692 -0.2822
16808TIP3    H171915   3.831   1.237   3.957 -0.5760  0.4069  1.3518
16808TIP3    H271916   3.961   1.219   4.032  0.5320  0.2382 -0.5397
16809TIP3   OH271917   6.027   2.456  12.718  0.6515  0.4263  0.5353
16809TIP3    H171918   6.113   2.416  12.731  0.6686  0.3910  0.3082
16809TIP3    H271919   6.030   2.535  12.772  0.8587  0.4705  0.4620
16810TIP3   OH271920   1.426   3.569  13.157 -0.0930  0.4790  0.0473
16810TIP3    H171921   1.420   3.473  13.159  1.2956  0.3711 -0.0617
16810TIP3    H271922   1.513   3.587  13.122 -0.8133  1.8037 -1.1816
16811TIP3   OH271923   3.794   3.491   5.054 -0.3478  0.0784 -0.0534
16811TIP3    H171924   3.790   3.468   5.146 -0.8100 -1.8739 -0.5123
16811TIP3    H271925   3.876   3.540   5.045  1.6197 -2.7773  0.8344
16812TIP3   OH271926   5.785   1.053   1.441 -0.4507  0.2585 -0.7376
16812TIP3    H171927   5.810   1.055   1.349  0.0011 -0.7846 -0.6444
16812TIP3    H271928   5.775   1.145   1.465  1.1141  0.6236 -1.3694
16813TIP3   OH271929   4.189   5.851  15.956  0.1744  0.2520 -0.0887
16813TIP3    H171930   4.270   5.899  15.978  1.2809 -1.4217 -0.3654
16813TIP3    H271931   4.150   5.903  15.886  1.1854  0.9043 -0.1970
16814TIP3   OH271932   0.191   1.197  16.495 -0.4484 -0.5277  0.2385
16814TIP3    H171933   0.156   1.207  16.406 -1.0711 -1.3858  0.3750
16814TIP3    H271934   0.168   1.279  16.538  0.4464  0.1750 -0.5713
16815TIP3   OH271935   1.596   1.527  16.247  0.1084 -0.5426  0.0480
16815TIP3    H171936   1.521   1.572  16.210  1.1098  0.0441 -1.3664
16815TIP3    H271937   1.670   1.586  16.230  0.7828 -0.6400  2.2345
16816TIP3   OH271938   1.756   5.656   1.038  0.8901  0.5181  0.3114
16816TIP3    H171939   1.821   5.687   0.975  0.7187  0.4032  0.0759
16816TIP3    H271940   1.705   5.734   1.059 -0.8324  0.0608 -1.8064
16817TIP3   OH271941   6.212   1.204   2.243 -0.2718 -0.1564  0.1604
16817TIP3    H171942   6.191   1.169   2.330  1.8407  2.4179  1.8887
16817TIP3    H271943   6.159   1.284   2.236  2.1520  1.6258  0.7891
16818TIP3   OH271944   4.673   5.433   0.219  0.5770 -0.1902  0.2075
16818TIP3    H171945   4.681   5.489   0.296  3.3845  2.0791 -1.5178
16818TIP3    H271946   4.601   5.471   0.169  1.0207  0.5479  0.1111
16819TIP3   OH271947   2.342   2.015   4.889 -0.2055 -0.1535  0.0593
16819TIP3    H171948   2.350   2.104   4.922  1.7044  0.2063 -1.1831
16819TIP3    H271949   2.373   2.020   4.798 -0.4988 -1.9973 -0.1910
16820TIP3   OH271950   1.939   5.091   1.768 -0.1755 -0.1223 -0.2840
16820TIP3    H171951   1.922   5.017   1.827 -1.4046  0.6035  0.3251
16820TIP3    H271952   1.973   5.159   1.826  2.0099 -0.5346 -1.0157
16821TIP3   OH271953   3.282   0.779   0.075  0.4114  0.0064 -0.5333
16821TIP3    H171954   3.255   0.725   0.150  0.2781  0.5901 -0.1513
16821TIP3    H271955   3.200   0.805   0.033  0.2695  2.1807  0.9089
16822TIP3   OH271956   5.523   6.480   1.366  0.1164  0.2900 -0.1218
16822TIP3    H171957   5.614   6.458   1.343 -0.0104  0.5297 -0.8814
16822TIP3    H271958   5.482   6.501   1.282 -1.3066 -2.2120 -0.1423
16823TIP3   OH271959   0.578   5.761  15.938  0.0276  0.8139 -0.5376
16823TIP3    H171960   0.511   5.783  15.874  0.8279  3.2626 -0.6425
16823TIP3    H271961   0.643   5.711  15.888 -1.1001 -0.5633 -0.6947
16824TIP3   OH271962   4.079   4.055  16.608  0.0380 -0.3031 -0.7915
16824TIP3    H171963   3.992   4.036  16.642  0.2947 -1.4672 -0.7522
16824TIP3    H271964   4.135   3.987  16.646  0.8051 -0.0757 -1.4921
16825TIP3   OH271965   1.554   4.612  13.316 -0.7196 -0.6240  0.1631
16825TIP3    H171966   1.643   4.639  13.295 -1.0588  1.8305  1.4316
16825TIP3    H271967   1.561   4.519  13.337  2.0310 -0.0364  2.5348
16826TIP3   OH271968   2.354   6.685  10.818 -0.3655 -0.0085  0.3980
16826TIP3    H171969   2.385   6.775  10.823  1.0582 -0.4421 -0.1557
16826TIP3    H271970   2.366   6.660  10.727 -3.7355  0.2097 -0.2320
16827TIP3   OH271971   1.335   0.958   3.539  0.2276 -0.3209  0.1031
16827TIP3    H171972   1.310   0.990   3.625  1.4631 -0.5907  0.5932
16827TIP3    H271973   1.258   0.911   3.508 -0.3438  0.0393  0.9262
16828TIP3   OH271974   5.046   1.815  13.447 -0.1265 -0.2361  0.1677
16828TIP3    H171975   5.045   1.853  13.535 -0.0197  0.5140 -0.1435
16828TIP3    H271976   5.107   1.871  13.399  0.7021 -1.3311 -0.0807
16829TIP3   OH271977   2.122   3.733   2.819 -0.2450  0.4571  0.2371
16829TIP3    H171978   2.208   3.702   2.848 -0.2646 -1.9043 -1.9009
16829TIP3    H271979   2.140   3.779   2.737 -1.0436 -0.9064 -0.7452
16830TIP3   OH271980   1.194   3.292  15.289  0.4905  0.6936  0.8865
16830TIP3    H171981   1.179   3.240  15.211  2.1808  0.7632  0.4754
16830TIP3    H271982   1.118   3.275  15.345 -0.4108  0.1156 -0.4726
16831TIP3   OH271983   0.347   2.762  12.821  0.1112 -0.0982  0.4680
16831TIP3    H171984   0.361   2.845  12.865  1.6724 -0.3419  0.4792
16831TIP3    H271985   0.426   2.712  12.838 -0.1917 -1.0455 -0.7556
16832TIP3   OH271986   0.240   3.519   3.948 -0.1481 -0.1046  0.1719
16832TIP3    H171987   0.212   3.480   3.865 -0.4738  2.7102 -1.1703
16832TIP3    H271988   0.329   3.488   3.960 -0.0537 -0.5105 -1.2845
16833TIP3   OH271989   3.974   5.727  13.053  0.2403  0.0817 -0.4668
16833TIP3    H171990   3.955   5.770  12.969  0.1020  0.0855 -0.4327
16833TIP3    H271991   4.019   5.794  13.104  2.7285 -0.6885 -1.4890
16834TIP3   OH271992   4.438   0.980  14.654 -0.1728  0.0315 -0.1484
16834TIP3    H171993   4.438   0.901  14.709 -0.4770 -0.6289 -1.0695
16834TIP3    H271994   4.365   0.968  14.594  0.6614  0.3183 -1.2642
16835TIP3   OH271995   0.402   5.613  12.536  0.1481 -0.0578 -0.1508
16835TIP3    H171996   0.445   5.634  12.619  0.9300  0.5554 -0.6913
16835TIP3    H271997   0.474   5.587  12.479 -0.2049  0.8175 -1.0241
16836TIP3   OH271998   2.507   3.029   5.937 -0.6905  0.6600 -0.0576
16836TIP3    H171999   2.551   3.052   6.019  0.6496 -0.7639 -0.3235
16836TIP3    H272000   2.511   2.933   5.935 -1.3789  0.6530 -1.4262
16837TIP3   OH272001   4.792   3.195   4.148 -0.5093 -0.4152  0.4640
16837TIP3    H172002   4.743   3.261   4.196  1.6583  2.5374 -1.0398
16837TIP3    H272003   4.829   3.138   4.215  1.1385  2.5952  2.3075
16838TIP3   OH272004   4.715   2.728   5.414  0.7072 -0.0593  0.1441
16838TIP3    H172005   4.661   2.676   5.354  1.7311 -0.1341 -0.7304
16838TIP3    H272006   4.754   2.663   5.472  1.2052 -0.1769 -0.3181
16839TIP3   OH272007   3.528   6.505  12.031 -0.6510  0.1477  0.5279
16839TIP3    H172008   3.511   6.569  12.100 -0.5154  0.5753  0.1646
16839TIP3    H272009   3.550   6.557  11.954 -1.8413 -0.2796 -0.1384
16840TIP3   OH272010   5.597   1.389   2.551 -0.2857  0.1353 -0.2300
16840TIP3    H172011   5.674   1.345   2.586  0.7699  2.1854  0.1442
16840TIP3    H272012   5.557   1.325   2.492  0.6298 -1.6333  1.0041
16841TIP3   OH272013   6.207   0.017   1.635  0.0124  0.8155 -0.1277
16841TIP3    H172014   6.248  -0.046   1.576 -0.3076  0.0682  0.4414
16841TIP3    H272015   6.236  -0.007   1.722 -0.2621  1.3390  0.1185
16842TIP3   OH272016   4.574   0.010   2.851  0.4999 -0.1271  0.1566
16842TIP3    H172017   4.649   0.052   2.893  2.2475 -1.7336 -1.1820
16842TIP3    H272018   4.537  -0.046   2.919 -0.4741  1.8041  1.2816
16843TIP3   OH272019   1.172   2.987   1.939 -0.7464 -0.0063  0.3810
16843TIP3    H172020   1.098   2.969   1.997 -1.8013  0.7350 -0.6910
16843TIP3    H272021   1.207   2.901   1.916 -1.0273 -0.3421  1.2094
16844TIP3   OH272022   3.056   3.738  15.515  0.3754 -0.3199  0.5142
16844TIP3    H172023   3.020   3.809  15.461  1.2935 -0.2967 -0.0879
16844TIP3    H272024   2.989   3.722  15.581 -0.9320 -0.5551 -0.8154
16845TIP3   OH272025   1.837   1.544  14.440 -0.1267  0.6198  0.2714
16845TIP3    H172026   1.822   1.492  14.519  3.1722  0.4499  0.9642
16845TIP3    H272027   1.850   1.479  14.371 -2.2351  0.7566 -0.3192
16846TIP3   OH272028   6.340   3.048   2.264 -0.0792 -0.2176  0.0687
16846TIP3    H172029   6.289   3.123   2.295  1.3832  1.9128 -2.2761
16846TIP3    H272030   6.408   3.036   2.330 -1.0306 -0.3049  1.0653
16847TIP3   OH272031   6.338   2.935   5.237 -0.0905  0.1661  0.4753
16847TIP3    H172032   6.304   2.845   5.235  0.5864 -0.0818 -0.2988
16847TIP3    H272033   6.432   2.925   5.251  0.1822  0.6905 -0.8313
16848TIP3   OH272034   0.280   5.121  16.979 -0.0607  0.4385 -0.5665
16848TIP3    H172035   0.270   5.026  16.967 -1.9174  0.6627 -1.3131
16848TIP3    H272036   0.249   5.158  16.896  2.7598  1.6773 -1.1700
16849TIP3   OH272037   3.861   3.497   6.292 -0.3425  0.1134 -0.2663
16849TIP3    H172038   3.821   3.495   6.379 -2.1696 -1.6075 -1.0897
16849TIP3    H272039   3.843   3.586   6.260  0.1442  0.6861  0.9819
16850TIP3   OH272040   1.062   1.976   2.638 -0.3692  0.1322 -0.1709
16850TIP3    H172041   1.081   1.908   2.703 -0.5064  0.0380 -0.2285
16850TIP3    H272042   1.127   1.961   2.569 -0.2208  0.2350 -0.0560
16851TIP3   OH272043   0.775   0.159   3.778 -0.8823  0.1525 -0.0951
16851TIP3    H172044   0.770   0.128   3.687 -1.0594 -1.4011  0.4318
16851TIP3    H272045   0.696   0.212   3.789  0.0846  1.9919 -1.4107
16852TIP3   OH272046   6.809   2.527  16.372  0.0590  0.1959 -0.2534
16852TIP3    H172047   6.820   2.473  16.451 -0.2311 -2.7449 -2.0774
16852TIP3    H272048   6.743   2.592  16.397 -1.0457 -1.4993  1.5585
16853TIP3   OH272049   3.794   3.434   5.317  0.0908 -0.4445 -0.0242
16853TIP3    H172050   3.828   3.356   5.361 -0.6947 -1.0402 -0.4395
16853TIP3    H272051   3.699   3.420   5.314 -0.2461  1.2805  1.3043
16854TIP3   OH272052   4.023   0.464   5.408  0.4246 -0.3457 -0.0053
16854TIP3    H172053   3.956   0.467   5.475 -1.2419  0.9538 -1.6329
16854TIP3    H272054   4.076   0.542   5.423  0.0266 -0.0323 -0.2419
16855TIP3   OH272055   2.960   6.037   5.071 -0.5073 -0.4057 -0.4911
16855TIP3    H172056   3.054   6.049   5.081 -0.5064 -0.3581 -0.5506
16855TIP3    H272057   2.948   6.022   4.977 -0.4959 -1.0027 -0.4015
16856TIP3   OH272058   3.979   6.735  15.832  0.0057 -0.5188 -0.0626
16856TIP3    H172059   4.072   6.716  15.818  0.1843 -0.7093  1.2979
16856TIP3    H272060   3.973   6.758  15.924 -1.0401  1.1004 -0.5006
16857TIP3   OH272061   3.178   6.547  11.837  0.0553 -0.2240 -0.3999
16857TIP3    H172062   3.220   6.469  11.801 -0.1826 -0.8651  0.6670
16857TIP3    H272063   3.110   6.570  11.774  0.2232 -0.7922 -0.7895
16858TIP3   OH272064   3.506   0.681   1.618 -0.1087 -0.5552  0.4229
16858TIP3    H172065   3.523   0.709   1.528 -1.9482  4.8735  1.3932
16858TIP3    H272066   3.436   0.616   1.610 -1.0192  0.5876 -2.1239
16859TIP3   OH272067   2.976   2.635   0.665  0.2462 -0.6100  0.2670
16859TIP3    H172068   3.005   2.653   0.754 -0.5200  1.9844  0.0758
16859TIP3    H272069   2.880   2.631   0.672  0.2308 -1.7878 -0.2628
16860TIP3   OH272070   3.230   2.523   6.562 -0.2715 -0.5901  0.3279
16860TIP3    H172071   3.154   2.558   6.515 -1.8762 -0.8993  2.5699
16860TIP3    H272072   3.237   2.432   6.532 -1.2044 -0.7504  0.5801
16861TIP3   OH272073   1.680   4.732  12.579 -0.2567 -0.8677  0.5617
16861TIP3    H172074   1.634   4.755  12.660 -0.0076 -0.9796  0.7366
16861TIP3    H272075   1.612   4.697  12.522 -0.4753 -0.5655  0.6341
16862TIP3   OH272076   2.034   2.582   6.134 -0.4012 -0.1685 -0.1533
16862TIP3    H172077   2.002   2.656   6.187  0.9907  2.4333 -2.6755
16862TIP3    H272078   2.113   2.553   6.179 -1.3780 -0.7495  1.2925
16863TIP3   OH272079   0.923   2.487   1.523 -0.4304 -0.2273  0.7294
16863TIP3    H172080   0.990   2.432   1.483  0.8683  1.7355  0.0435
16863TIP3    H272081   0.841   2.460   1.481  0.4568 -0.2958 -1.0462
16864TIP3   OH272082   4.681   1.947   1.852 -0.5852 -0.3392 -0.0147
16864TIP3    H172083   4.653   1.947   1.760 -1.3771 -0.9332  0.2200
16864TIP3    H272084   4.600   1.954   1.902 -0.0659  2.1557  0.6506
16865TIP3   OH272085   4.380   2.470  12.552 -0.0767  0.1737  0.6411
16865TIP3    H172086   4.341   2.450  12.637 -0.9798  2.4014  0.8108
16865TIP3    H272087   4.460   2.517  12.572  0.1743 -0.0886  0.2605
16866TIP3   OH272088   1.782   3.028  10.615 -0.3613  0.1665  0.4492
16866TIP3    H172089   1.700   3.020  10.566  1.2451 -1.0627 -2.2794
16866TIP3    H272090   1.772   3.109  10.665 -3.0257  0.3157 -0.1554
16867TIP3   OH272091   0.267   3.229  13.443  0.4363 -0.1723 -0.4362
16867TIP3    H172092   0.196   3.260  13.500  0.7466  1.3510 -0.8532
16867TIP3    H272093   0.342   3.220  13.502  0.8041  1.5693 -0.5984
16868TIP3   OH272094   0.539   2.421   5.126  0.1613  0.5564 -0.6596
16868TIP3    H172095   0.602   2.427   5.197  0.8415 -0.5055 -1.1426
16868TIP3    H272096   0.583   2.460   5.050 -0.6509  1.9082 -0.4703
16869TIP3   OH272097   1.846   0.571  15.140  0.3726  0.1953 -0.1668
16869TIP3    H172098   1.814   0.506  15.077  1.5266 -1.8659  1.2515
16869TIP3    H272099   1.788   0.562  15.215 -0.6288  2.2254 -0.6251
16870TIP3   OH272100   2.007   4.557   3.905 -0.3868  0.0784  0.6908
16870TIP3    H172101   1.936   4.531   3.846 -0.8921  0.8035  0.9582
16870TIP3    H272102   1.987   4.648   3.928  1.2787  0.7018 -0.1677
16871TIP3   OH272103   3.735   1.504  12.050 -0.2400 -0.3880  0.1859
16871TIP3    H172104   3.682   1.430  12.021 -0.1327 -0.1566 -0.6331
16871TIP3    H272105   3.816   1.496  11.999 -0.4022  0.5322 -0.2246
16872TIP3   OH272106   3.399   2.840  13.803  0.1024  0.4643 -0.3931
16872TIP3    H172107   3.421   2.928  13.832 -0.7471  1.1246 -1.6271
16872TIP3    H272108   3.448   2.828  13.722  1.6034 -0.9187  0.6541
16873TIP3   OH272109   2.302   3.734   2.115 -0.4180 -0.1742 -0.2817
16873TIP3    H172110   2.228   3.783   2.149 -0.8775 -1.0160 -0.0469
16873TIP3    H272111   2.375   3.796   2.115 -1.2393  0.8191 -1.0324
16874TIP3   OH272112   4.599   3.503   1.474 -1.0096 -0.4992 -0.0711
16874TIP3    H172113   4.577   3.490   1.566 -0.6230  0.8271  0.2336
16874TIP3    H272114   4.634   3.419   1.445  1.7548 -0.1709  1.8669
16875TIP3   OH272115   5.041   2.437   5.163 -0.3407 -0.7207  0.5662
16875TIP3    H172116   4.963   2.382   5.157 -0.3986 -0.6349  0.5245
16875TIP3    H272117   5.061   2.459   5.072 -1.2969  0.7015  0.6633
16876TIP3   OH272118   4.063   6.121  11.539  0.3170  0.0806  0.2022
16876TIP3    H172119   4.037   6.213  11.543  0.7497  0.1767  1.4741
16876TIP3    H272120   4.107   6.105  11.623  0.0643 -1.3407  0.0983
16877TIP3   OH272121   5.081   4.552  15.490 -1.0584 -0.2268  0.5784
16877TIP3    H172122   5.111   4.552  15.581  2.4012  0.6844 -0.4087
16877TIP3    H272123   5.082   4.644  15.464 -1.2564 -0.5359 -0.5926
16878TIP3   OH272124   5.707   3.490   1.516 -0.1262 -0.3305  0.5555
16878TIP3    H172125   5.762   3.412   1.507 -0.1722 -0.2394 -0.6105
16878TIP3    H272126   5.651   3.471   1.592  1.6454 -0.3288  1.9361
16879TIP3   OH272127   2.020   5.867  12.839 -0.7783 -0.2592 -0.3535
16879TIP3    H172128   2.000   5.776  12.820  0.0984 -0.6811  0.6629
16879TIP3    H272129   2.093   5.864  12.902 -0.4967  1.1365 -0.5650
16880TIP3   OH272130   2.163   3.839  16.634  0.0373  0.6901 -0.1697
16880TIP3    H172131   2.158   3.773  16.703  1.4246  0.6768 -0.0590
16880TIP3    H272132   2.256   3.847  16.614 -0.2927  1.0140 -1.7404
16881TIP3   OH272133   2.976   1.673  11.202  0.3772 -0.2524  0.2144
16881TIP3    H172134   3.013   1.617  11.271  0.6271  2.9480  2.9358
16881TIP3    H272135   3.052   1.710  11.158  0.2512 -0.3171 -0.0603
16882TIP3   OH272136   4.762   4.343  12.261  0.0274 -0.1370 -0.2322
16882TIP3    H172137   4.746   4.430  12.298 -0.2326 -1.3129  2.7934
16882TIP3    H272138   4.836   4.355  12.202 -0.9736  2.3619 -1.1417
16883TIP3   OH272139   0.529   5.698  11.377  0.4197  0.3098  0.0650
16883TIP3    H172140   0.445   5.652  11.369 -0.4718  1.7422  0.7406
16883TIP3    H272141   0.517   5.779  11.327  1.8508 -0.0215 -0.8730
16884TIP3   OH272142   5.384   0.442   3.178  0.0448  0.3976 -0.4348
16884TIP3    H172143   5.455   0.495   3.214 -0.2123  1.2521 -1.1663
16884TIP3    H272144   5.320   0.505   3.147 -1.0051 -0.3607  0.1219
16885TIP3   OH272145   3.594   2.097  11.464 -0.0708 -0.0045  0.0995
16885TIP3    H172146   3.643   2.179  11.477 -0.6868  0.3180  0.4038
16885TIP3    H272147   3.548   2.082  11.546  0.7060 -1.1246  0.3505
16886TIP3   OH272148   1.225   1.142  14.332 -0.1462 -0.2960 -0.5216
16886TIP3    H172149   1.193   1.175  14.416 -0.9043  0.4938 -1.1062
16886TIP3    H272150   1.222   1.047  14.341  0.0453 -0.2201  0.4379
16887TIP3   OH272151   0.477   4.931   5.543 -0.2455  0.6692  0.0027
16887TIP3    H172152   0.400   4.959   5.592  0.5694  0.7146  1.3134
16887TIP3    H272153   0.455   4.949   5.452 -1.5652  1.1927  0.3928
16888TIP3   OH272154   0.887   3.922  14.041  0.6785 -0.0675 -0.1553
16888TIP3    H172155   0.821   3.979  14.001  1.6299  0.3591 -1.1649
16888TIP3    H272156   0.848   3.896  14.125  0.2482  2.1537  0.4022
16889TIP3   OH272157   3.412   0.949   2.995  0.3798 -0.0153  0.4706
16889TIP3    H172158   3.409   0.923   3.087  0.1692  0.3561  0.5737
16889TIP3    H272159   3.376   1.038   2.995  0.8178  0.1634  0.0923
16890TIP3   OH272160   2.566   5.214  14.522 -0.3517 -0.2032  0.3212
16890TIP3    H172161   2.650   5.173  14.501  0.2244  1.3439 -0.6072
16890TIP3    H272162   2.503   5.169  14.465 -0.4495 -2.3015  1.9929
16891TIP3   OH272163   3.899   6.618  14.825 -0.0924  0.6790  0.4002
16891TIP3    H172164   3.985   6.577  14.828 -0.5047 -0.1847  0.7695
16891TIP3    H272165   3.842   6.551  14.786 -0.8233  0.8143  1.2066
16892TIP3   OH272166   2.797   0.853  14.644  0.1368  0.2227  0.2333
16892TIP3    H172167   2.851   0.788  14.689  0.4110  1.5166  1.8763
16892TIP3    H272168   2.740   0.888  14.713 -2.2028 -0.4316 -1.2379
16893TIP3   OH272169   5.776   2.619  16.130 -0.0730 -0.6284  0.0984
16893TIP3    H172170   5.835   2.547  16.152  1.3308  0.7736  1.1115
16893TIP3    H272171   5.834   2.686  16.094 -0.8184  1.2137  2.1227
16894TIP3   OH272172   5.000   6.230   2.945 -0.1824  0.1583 -0.3064
16894TIP3    H172173   5.004   6.266   2.856 -5.3769 -1.3992 -1.4822
16894TIP3    H272174   4.997   6.136   2.933 -1.2788 -0.0754  1.4528
16895TIP3   OH272175   1.630   3.661   0.118  0.4062  0.3275  0.4582
16895TIP3    H172176   1.581   3.607   0.179  0.0473  0.8267  0.6149
16895TIP3    H272177   1.613   3.621   0.032 -1.3005  1.2102  0.3424
16896TIP3   OH272178   3.068   0.706  15.442  0.2609  0.0401  0.6104
16896TIP3    H172179   3.062   0.710  15.346 -0.1819  1.4893  0.6759
16896TIP3    H272180   3.144   0.651  15.459  1.1417  0.8275 -0.5960
16897TIP3   OH272181   4.177   4.929  14.472 -0.6169 -0.0455 -0.0329
16897TIP3    H172182   4.113   5.001  14.469 -0.1270  0.3599 -1.8536
16897TIP3    H272183   4.145   4.867  14.407  0.9823  0.3146 -1.2104
16898TIP3   OH272184   5.860   1.143   3.782  0.0998 -0.0838  0.3311
16898TIP3    H172185   5.910   1.188   3.713 -0.5597  1.0921  0.6090
16898TIP3    H272186   5.807   1.211   3.822 -0.8618 -1.0967  0.8301
16899TIP3   OH272187   0.305   6.445   2.434  0.1393 -0.1745  0.1519
16899TIP3    H172188   0.212   6.424   2.422  0.0148 -1.0688  2.1404
16899TIP3    H272189   0.333   6.481   2.350 -1.3024 -2.4819 -1.4406
16900TIP3   OH272190   6.231   0.876  13.578 -0.4928 -0.5695 -1.1551
16900TIP3    H172191   6.286   0.897  13.502 -0.0168  0.1402 -0.6240
16900TIP3    H272192   6.199   0.960  13.609 -0.3984 -0.8198 -0.3566
16901TIP3   OH272193   5.388   5.032  12.416  0.0259 -0.2798 -0.3055
16901TIP3    H172194   5.465   4.976  12.405  0.1407 -0.1481 -0.1602
16901TIP3    H272195   5.338   4.989  12.486  0.1792 -0.1286 -0.1024
16902TIP3   OH272196   0.053   4.039   4.415  0.0163 -0.6658  0.2941
16902TIP3    H172197   0.028   4.060   4.505  0.0711 -0.0408  0.1645
16902TIP3    H272198  -0.025   4.061   4.363  0.0170 -0.9393  0.1734
16903TIP3   OH272199   2.977   1.766   4.450 -0.3956  0.2289  0.3512
16903TIP3    H172200   2.955   1.733   4.363  0.5306 -1.1843  0.6166
16903TIP3    H272201   3.072   1.754   4.458 -0.7910 -2.3303  2.5601
16904TIP3   OH272202   6.017   3.541  11.781  0.0393 -0.0229  0.1847
16904TIP3    H172203   6.052   3.626  11.810 -2.6746  0.4325  2.5954
16904TIP3    H272204   5.934   3.562  11.738  0.4823 -1.3378 -1.4097
16905TIP3   OH272205   3.916   2.063  11.602  0.1368  0.7261  0.0021
16905TIP3    H172206   3.891   2.068  11.694  0.4026  1.0870  0.0561
16905TIP3    H272207   3.906   2.152  11.570 -0.6789  0.4617 -0.5114
16906TIP3   OH272208   5.679   0.142   1.276  0.5690  0.4390  0.4012
16906TIP3    H172209   5.695   0.184   1.360  0.1349  1.0660  0.1743
16906TIP3    H272210   5.595   0.097   1.288 -0.7909  2.5894 -0.4422
16907TIP3   OH272211   2.320   0.432  16.525  0.2640 -0.3350 -0.5347
16907TIP3    H172212   2.264   0.373  16.575  0.2892 -0.2097 -0.3600
16907TIP3    H272213   2.260   0.480  16.468 -0.2096  1.9495  1.7389
16908TIP3   OH272214   5.922   1.444  13.649 -0.6719  0.1418 -0.3345
16908TIP3    H172215   5.958   1.426  13.736  1.0208  3.4310 -0.1842
16908TIP3    H272216   5.961   1.378  13.592  1.0631  0.0761  0.8403
16909TIP3   OH272217   4.430   5.186  16.588 -0.4093 -0.0735 -0.1727
16909TIP3    H172218   4.338   5.163  16.572 -0.2276 -0.6935 -0.3719
16909TIP3    H272219   4.441   5.178  16.683 -0.6182  0.2419 -0.1206
16910TIP3   OH272220   2.284   5.736   4.045 -0.1790  0.1435  0.6600
16910TIP3    H172221   2.274   5.831   4.046 -3.3893 -0.0645  2.6015
16910TIP3    H272222   2.301   5.712   4.136  0.9774 -1.1575  0.1353
16911TIP3   OH272223   0.785   4.888   1.386 -0.4061  0.1816 -0.1997
16911TIP3    H172224   0.819   4.841   1.309 -0.5918 -1.4433  0.6666
16911TIP3    H272225   0.840   4.966   1.392 -0.2487  0.2515 -1.8512
16912TIP3   OH272226   3.216   2.758  16.588  0.3039 -0.8398 -0.3161
16912TIP3    H172227   3.277   2.822  16.551  2.2049 -1.1469  2.0332
16912TIP3    H272228   3.181   2.800  16.666 -0.5178 -1.6642 -0.2222
16913TIP3   OH272229   1.472   6.159   4.154 -0.3539 -0.3534  0.2938
16913TIP3    H172230   1.528   6.167   4.077 -0.8573 -1.9010 -0.2745
16913TIP3    H272231   1.384   6.148   4.119 -0.4520 -2.1804  1.0257
16914TIP3   OH272232   2.220   2.642  16.988 -0.5573 -0.1103 -0.7258
16914TIP3    H172233   2.290   2.631  16.924  0.1041  0.1934 -0.0629
16914TIP3    H272234   2.176   2.723  16.962  2.5313  2.6115  1.7525
16915TIP3   OH272235   1.235   3.177  12.108  0.2558 -0.0736  0.2365
16915TIP3    H172236   1.160   3.189  12.051 -0.1683 -2.5156  0.1889
16915TIP3    H272237   1.291   3.115  12.061  2.2540  1.4919  0.3713
16916TIP3   OH272238   3.239   0.137   5.816  0.1016 -0.1054  0.0869
16916TIP3    H172239   3.155   0.130   5.862 -0.2519  1.3959 -0.2945
16916TIP3    H272240   3.222   0.195   5.742  1.4743  0.2518  0.0196
16917TIP3   OH272241   5.645   3.756  11.236  0.1377 -0.4471 -0.0380
16917TIP3    H172242   5.625   3.850  11.225  0.9040 -0.2403  0.2923
16917TIP3    H272243   5.716   3.754  11.301 -1.0583 -1.3590  1.2985
16918TIP3   OH272244   2.813   5.554   1.244 -0.2217 -0.0316 -0.0291
16918TIP3    H172245   2.735   5.515   1.205 -0.4611  0.1674  0.2428
16918TIP3    H272246   2.785   5.583   1.331 -0.1497  1.0769 -0.3608
16919TIP3   OH272247   4.111   3.092   4.322  0.3348 -0.3483 -0.4305
16919TIP3    H172248   4.091   3.059   4.234 -1.6977 -1.5329  0.4055
16919TIP3    H272249   4.206   3.105   4.322  0.2784  0.6380 -3.0864
16920TIP3   OH272250   1.237   2.541  14.999 -0.1244 -0.1926 -0.3228
16920TIP3    H172251   1.283   2.583  15.071  0.1292 -1.4104  0.2546
16920TIP3    H272252   1.190   2.612  14.956  0.6852  0.7483  0.3037
16921TIP3   OH272253   0.134   1.815   1.514  0.6634 -0.1900  0.3029
16921TIP3    H172254   0.208   1.829   1.455  1.3374 -1.0768  0.9199
16921TIP3    H272255   0.096   1.732   1.486  0.6193 -0.3139  0.7164
16922TIP3   OH272256   3.069   0.798   0.583 -0.5047 -0.2056  0.0001
16922TIP3    H172257   3.121   0.719   0.589  0.2645  0.2777 -0.2190
16922TIP3    H272258   2.987   0.776   0.627  0.1705 -0.7310  1.0294
16923TIP3   OH272259   3.378   4.554  10.497  0.4920  0.1840  0.0683
16923TIP3    H172260   3.339   4.499  10.565 -1.4208  1.4325  0.0598
16923TIP3    H272261   3.467   4.572  10.529 -0.2078  0.3843  2.0454
16924TIP3   OH272262   3.855   2.673   4.392 -0.4881 -0.3345 -0.2714
16924TIP3    H172263   3.876   2.734   4.322  1.1876 -1.4048 -0.7714
16924TIP3    H272264   3.900   2.709   4.469 -1.3302  0.1951 -0.0068
16925TIP3   OH272265   3.672   6.089   5.338 -0.0728  0.4073  0.5290
16925TIP3    H172266   3.582   6.115   5.319  0.1057  0.7118  0.0990
16925TIP3    H272267   3.670   6.062   5.430 -0.5305  0.7333  0.6165
16926TIP3   OH272268   2.201   4.761   3.770  0.1008 -0.3292  0.7250
16926TIP3    H172269   2.162   4.786   3.854 -0.2889 -0.5411  0.6088
16926TIP3    H272270   2.273   4.823   3.758  0.2161 -0.3528  1.2603
16927TIP3   OH272271   4.255   4.753   2.692  0.3165 -0.1399 -0.4635
16927TIP3    H172272   4.176   4.748   2.745  0.9585 -1.8184  0.3845
16927TIP3    H272273   4.223   4.766   2.602 -0.8504  0.4261  0.0094
16928TIP3   OH272274   3.582   2.645   3.170  0.0134 -0.1109 -0.2038
16928TIP3    H172275   3.565   2.553   3.148 -1.8986  0.3922 -0.9990
16928TIP3    H272276   3.504   2.672   3.218  0.3854  1.2298 -0.3362
16929TIP3   OH272277   0.272   0.139  11.608  0.3176  0.2951 -0.2741
16929TIP3    H172278   0.367   0.127  11.611  0.6197  2.1810 -0.7569
16929TIP3    H272279   0.236   0.051  11.621  2.1423 -0.6985 -1.5016
16930TIP3   OH272280   5.670   6.139  12.263  0.1135 -0.6357 -0.2461
16930TIP3    H172281   5.747   6.150  12.207  0.2167  1.2658  0.2102
16930TIP3    H272282   5.613   6.080  12.214  0.2947  0.7525 -2.2667
16931TIP3   OH272283   2.704   4.188   2.070 -0.0783 -0.5329 -0.1680
16931TIP3    H172284   2.754   4.236   2.136 -0.2465  0.6603 -0.8969
16931TIP3    H272285   2.666   4.115   2.119 -1.0027  0.8574  1.3024
16932TIP3   OH272286   3.087   5.874  16.810  0.3526  0.2325  0.2949
16932TIP3    H172287   3.118   5.784  16.795  1.3290  0.3670  1.3719
16932TIP3    H272288   3.007   5.864  16.861  0.0566 -0.0347 -0.2056
16933TIP3   OH272289   6.172   2.507   5.550  0.7320  0.4822 -0.2089
16933TIP3    H172290   6.166   2.596   5.584  2.1323  1.1116 -1.4857
16933TIP3    H272291   6.205   2.455   5.624 -1.5040  0.6784  0.9980
16934TIP3   OH272292   0.818   1.688  16.175  0.6315 -0.2251 -0.5737
16934TIP3    H172293   0.796   1.780  16.157 -3.3344 -0.9994 -0.5411
16934TIP3    H272294   0.736   1.649  16.205  1.7155 -4.1915 -2.0877
16935TIP3   OH272295   3.048   4.392   3.742 -0.2587  0.7181 -0.4436
16935TIP3    H172296   3.106   4.344   3.681  0.5541  0.9770  0.1115
16935TIP3    H272297   3.101   4.404   3.820 -1.5334 -0.2445  0.6076
16936TIP3   OH272298   0.668   6.775   3.198  0.7036 -0.2191 -0.2338
16936TIP3    H172299   0.682   6.681   3.203  1.8216 -0.0662 -0.2485
16936TIP3    H272300   0.720   6.804   3.123  0.3147  0.4010 -0.2736
16937TIP3   OH272301   4.663   5.863  12.484 -0.1751 -0.0627 -0.1671
16937TIP3    H172302   4.705   5.827  12.561  1.5976  0.9112 -0.6256
16937TIP3    H272303   4.571   5.839  12.493  0.1967 -0.9335  1.6611
16938TIP3   OH272304   1.156   1.354   1.440 -0.5785  0.5102 -0.2165
16938TIP3    H172305   1.180   1.274   1.487  2.3582  1.3159 -0.1362
16938TIP3    H272306   1.065   1.371   1.465 -1.2213 -2.6283 -0.0680
16939TIP3   OH272307   5.129   1.618  15.543 -0.1413  0.3157 -0.0500
16939TIP3    H172308   5.180   1.687  15.586 -1.8488  1.2982  0.4561
16939TIP3    H272309   5.080   1.577  15.614  1.6983 -2.2845 -0.1298
16940TIP3   OH272310   1.173   2.305  13.442 -0.0531 -0.0368  0.0311
16940TIP3    H172311   1.146   2.214  13.459 -0.0462 -0.0536 -0.0503
16940TIP3    H272312   1.101   2.341  13.390 -1.6935  0.9766  2.7714
16941TIP3   OH272313   6.073   4.463  15.872 -0.1086 -0.1754 -0.5573
16941TIP3    H172314   5.996   4.518  15.862 -0.5110 -0.1995  1.7353
16941TIP3    H272315   6.042   4.389  15.926  1.4798 -0.1942  0.3824
16942TIP3   OH272316   5.185   6.809  10.932 -0.2829 -0.2495  0.2840
16942TIP3    H172317   5.099   6.827  10.971 -0.9273 -0.8992 -0.8026
16942TIP3    H272318   5.171   6.820  10.838  0.8504 -0.3053  0.1012
16943TIP3   OH272319   5.444   0.000   1.369 -0.0811 -0.8015 -0.4171
16943TIP3    H172320   5.378   0.020   1.437 -1.1895 -0.0184 -1.6755
16943TIP3    H272321   5.402   0.025   1.287  1.5987 -0.8237 -1.3232
16944TIP3   OH272322   6.040   3.032   2.754  0.2984 -0.9742 -0.4880
16944TIP3    H172323   5.984   2.964   2.716 -1.5774 -0.5416  1.2794
16944TIP3    H272324   6.012   3.038   2.846  0.9396  1.5973 -0.3641
16945TIP3   OH272325   0.440   2.732   2.367  0.2612 -0.8099  0.2374
16945TIP3    H172326   0.515   2.768   2.321  0.0569 -0.2923  0.2997
16945TIP3    H272327   0.365   2.758   2.314  0.2738 -3.7765 -1.4203
16946TIP3   OH272328   6.742   5.298   3.969 -0.5226  0.1673  0.1026
16946TIP3    H172329   6.745   5.294   4.064  0.3010  2.1962  0.2084
16946TIP3    H272330   6.672   5.359   3.949 -0.8430 -0.4115 -0.6192
16947TIP3   OH272331   3.288   1.840  12.360  0.0573 -0.7340  0.4063
16947TIP3    H172332   3.264   1.933  12.361 -0.4344 -0.8533  0.1458
16947TIP3    H272333   3.205   1.794  12.350  0.2814 -1.2129  0.7355
16948TIP3   OH272334   3.973   2.989   3.612 -0.1768 -0.0634 -0.4531
16948TIP3    H172335   3.895   3.043   3.624 -1.4115 -1.3119 -2.2462
16948TIP3    H272336   4.038   3.048   3.574 -1.5017  0.2221 -2.3985
16949TIP3   OH272337   5.634   0.646   6.590 -0.3133  0.0449 -0.3606
16949TIP3    H172338   5.648   0.637   6.685 -1.4089 -3.1421 -0.3783
16949TIP3    H272339   5.722   0.637   6.553  0.0515  0.7003  0.2988
16950TIP3   OH272340   0.084   6.578   4.820 -0.7255 -0.0426  0.0977
16950TIP3    H172341   0.113   6.514   4.755  1.1446  0.6695  0.1817
16950TIP3    H272342   0.043   6.526   4.889  0.5227 -1.1363  0.0460
16951TIP3   OH272343   6.477   6.723   4.496  0.1181  0.6648 -0.3254
16951TIP3    H172344   6.539   6.795   4.488  0.7762 -0.0038 -1.6300
16951TIP3    H272345   6.442   6.730   4.585  1.4730  1.5373  0.1607
16952TIP3   OH272346   5.260   5.816   4.247  0.4394 -0.0896  0.0365
16952TIP3    H172347   5.282   5.893   4.300  0.7209  0.2224 -0.5262
16952TIP3    H272348   5.169   5.796   4.270  0.4411  0.2713  0.3603
16953TIP3   OH272349   5.416   3.011   1.356  0.3490  0.4060 -0.5052
16953TIP3    H172350   5.327   3.006   1.389  0.1995  0.9246 -0.8300
16953TIP3    H272351   5.426   2.933   1.301 -0.1065  0.6684 -0.9621
16954TIP3   OH272352   0.245   1.390  10.694 -0.0970  0.1406  0.0881
16954TIP3    H172353   0.236   1.470  10.642 -1.0074  1.5245  2.2465
16954TIP3    H272354   0.157   1.353  10.697 -0.2241  0.4979  1.2298
16955TIP3   OH272355   4.208   5.825  15.509  0.2587 -0.1133 -0.1701
16955TIP3    H172356   4.229   5.842  15.417 -0.1210  1.6751  0.0360
16955TIP3    H272357   4.202   5.730  15.515  0.5747 -0.2793 -1.9306
16956TIP3   OH272358   5.795   0.634   5.188 -0.2808  0.3037  0.0512
16956TIP3    H172359   5.807   0.721   5.225  1.9295  0.1980 -0.2444
16956TIP3    H272360   5.818   0.574   5.259 -0.8089 -0.0074 -0.0409
16957TIP3   OH272361   1.557   4.854   6.269  0.1360  0.4253  0.0842
16957TIP3    H172362   1.484   4.917   6.266  0.7079  1.1249  0.4827
16957TIP3    H272363   1.533   4.787   6.205  0.7398  2.4570 -2.4764
16958TIP3   OH272364   2.007   1.935   2.023  0.3066 -0.1715 -0.0365
16958TIP3    H172365   2.025   1.865   1.961 -1.1991 -1.5163  0.9659
16958TIP3    H272366   1.912   1.932   2.035  0.3131  1.5016  0.6805
16959TIP3   OH272367   4.445   3.157   1.622  0.2744 -0.4672 -0.0155
16959TIP3    H172368   4.436   3.075   1.669  0.7072 -2.3567 -2.9877
16959TIP3    H272369   4.540   3.172   1.617  0.2742 -0.6984 -0.8829
16960TIP3   OH272370   3.584   1.431  16.318 -0.4329  0.7692 -0.1581
16960TIP3    H172371   3.664   1.380  16.308 -1.6835 -1.2706 -0.1811
16960TIP3    H272372   3.592   1.502  16.253  0.8031 -0.1210 -1.0048
16961TIP3   OH272373   1.863   5.317   2.747  0.5789 -0.6454 -0.1884
16961TIP3    H172374   1.790   5.283   2.798  0.5116 -0.0021  0.1562
16961TIP3    H272375   1.929   5.248   2.749 -0.5456 -1.8225 -1.6726
16962TIP3   OH272376   0.672   4.312   5.279 -0.1503 -0.8220 -0.1868
16962TIP3    H172377   0.632   4.308   5.193 -0.2139  0.1087 -0.2040
16962TIP3    H272378   0.599   4.310   5.341 -0.0915 -1.9105 -0.1197
16963TIP3   OH272379   4.249   3.948  14.357 -0.0587 -0.7427 -0.5085
16963TIP3    H172380   4.243   4.038  14.326 -1.2240 -0.8242 -0.5719
16963TIP3    H272381   4.341   3.935  14.377  0.0545  0.5835 -0.1249
16964TIP3   OH272382   3.028   6.510  15.327  0.2975 -0.1345 -0.6462
16964TIP3    H172383   3.002   6.418  15.323  0.6594 -0.3025  0.3427
16964TIP3    H272384   3.057   6.522  15.418 -0.6858  1.2183 -0.4781
16965TIP3   OH272385   2.307   1.995  16.824  0.2613 -0.3107  0.2095
16965TIP3    H172386   2.264   2.073  16.859  0.0184 -0.5531  0.4567
16965TIP3    H272387   2.287   1.997  16.730 -1.0413 -0.8713  0.4444
16966TIP3   OH272388   6.055   4.380  12.286 -0.4119  0.8289 -0.2370
16966TIP3    H172389   6.137   4.430  12.285 -1.3658  2.4762 -0.7605
16966TIP3    H272390   6.061   4.322  12.210  0.2964  0.9077 -0.2425
16967TIP3   OH272391   5.748   0.202  13.383 -0.1055 -0.4470 -0.2224
16967TIP3    H172392   5.734   0.117  13.423  1.5300 -0.3522  0.6444
16967TIP3    H272393   5.757   0.262  13.457  1.1668  0.0380 -0.7341
16968TIP3   OH272394   6.266   5.163  17.023  0.2699 -0.3176  0.1541
16968TIP3    H172395   6.243   5.224  16.953  2.3005  0.3892  0.0358
16968TIP3    H272396   6.287   5.218  17.098  1.7446 -0.8630  0.1746
16969TIP3   OH272397   0.770   3.979  11.455  0.5238  0.2003 -0.1358
16969TIP3    H172398   0.792   3.927  11.532  0.3019  0.2034 -0.0689
16969TIP3    H272399   0.852   3.989  11.407  0.9200  1.1833  0.7032
16970TIP3   OH272400   0.229   3.277   3.368 -0.0276  0.0657 -0.1284
16970TIP3    H172401   0.275   3.213   3.422 -0.7992  0.4147  0.9793
16970TIP3    H272402   0.140   3.242   3.359  0.2403 -0.2771 -1.6906
16971TIP3   OH272403   6.331   1.711  11.807  0.1193 -0.1567 -0.2790
16971TIP3    H172404   6.367   1.650  11.743  0.6340  0.5680 -0.6915
16971TIP3    H272405   6.240   1.724  11.780  0.5195  0.6772 -1.2899
16972TIP3   OH272406   0.222   5.080  11.073  0.0564 -0.4272  0.2468
16972TIP3    H172407   0.246   4.996  11.112  1.4173  0.0668  0.5310
16972TIP3    H272408   0.161   5.057  11.003  0.6697 -1.6789  0.0900
16973TIP3   OH272409   2.717   5.083   4.536  0.1395  0.4161 -0.4894
16973TIP3    H172410   2.774   5.089   4.459 -0.8132 -1.0750 -1.3683
16973TIP3    H272411   2.733   5.164   4.584  3.5975 -0.2656 -0.2516
16974TIP3   OH272412   3.806   5.933   1.739  0.3624 -0.0422 -0.4867
16974TIP3    H172413   3.727   5.946   1.687 -0.8586  1.6828  1.6664
16974TIP3    H272414   3.808   5.839   1.756 -0.1661 -0.3812 -2.0842
16975TIP3   OH272415   4.788   1.583  12.695 -0.1039  0.0758 -0.0427
16975TIP3    H172416   4.696   1.604  12.713  0.0431  1.2215 -0.4875
16975TIP3    H272417   4.785   1.530  12.615 -0.3333  0.9663 -0.6406
16976TIP3   OH272418   1.075   6.778  16.343 -0.2617 -1.3171 -0.2776
16976TIP3    H172419   1.074   6.866  16.382  0.9189 -1.6273  0.5069
16976TIP3    H272420   1.152   6.777  16.287 -1.1311 -1.3706 -1.5157
16977TIP3   OH272421   4.742   1.059   4.509  0.7916  0.0458  0.2007
16977TIP3    H172422   4.708   1.095   4.591  2.5455  0.1074  0.9407
16977TIP3    H272423   4.734   0.964   4.519 -0.8880  0.0738 -0.4493
16978TIP3   OH272424   2.240   2.479   3.769  0.2777  0.1913  0.1872
16978TIP3    H172425   2.320   2.530   3.761 -0.0280  0.5158 -1.0314
16978TIP3    H272426   2.202   2.479   3.681  0.1650 -1.9663  0.1641
16979TIP3   OH272427   0.445   2.559  10.924  0.3679 -0.0976 -0.0622
16979TIP3    H172428   0.377   2.544  10.858 -0.8864  0.9085  0.9401
16979TIP3    H272429   0.526   2.534  10.880 -0.5931 -1.0562 -1.4126
16980TIP3   OH272430   0.010   6.821  15.848 -0.0548 -0.1131 -0.0059
16980TIP3    H172431  -0.033   6.750  15.895 -1.6244 -0.8694 -2.4001
16980TIP3    H272432   0.001   6.797  15.755  1.5560  2.0082 -0.7882
16981TIP3   OH272433   3.525   4.021   2.464  0.4135  0.0349 -0.0459
16981TIP3    H172434   3.598   3.959   2.454  0.7392  0.5286 -0.8205
16981TIP3    H272435   3.455   3.969   2.504  1.3346 -0.3334  1.1479
16982TIP3   OH272436   6.010   3.303  16.349 -0.1023  0.2825  0.6918
16982TIP3    H172437   5.922   3.325  16.381  0.6962  1.1505  2.3959
16982TIP3    H272438   6.060   3.383  16.360  1.0433 -0.3574  0.2386
16983TIP3   OH272439   2.695   4.560  16.454 -0.1598 -0.5649  0.3752
16983TIP3    H172440   2.761   4.514  16.401 -0.6779  0.2996 -1.0943
16983TIP3    H272441   2.719   4.540  16.544  2.1206 -0.2782 -0.0952
16984TIP3   OH272442   1.662   3.370   5.242 -0.5861  0.1360  0.5205
16984TIP3    H172443   1.721   3.444   5.249  0.3095 -0.4906 -0.1288
16984TIP3    H272444   1.662   3.330   5.330  0.3785 -0.1630  0.3927
16985TIP3   OH272445   5.823   2.141   1.507  0.0558 -0.0760 -0.4572
16985TIP3    H172446   5.779   2.155   1.424 -0.8703  1.8405  0.2875
16985TIP3    H272447   5.917   2.144   1.486 -0.1625  0.1869 -1.4345
16986TIP3   OH272448   4.491   6.511  12.619 -0.1530 -0.0892 -0.4021
16986TIP3    H172449   4.580   6.480  12.635 -0.6468 -1.2459  0.2337
16986TIP3    H272450   4.436   6.434  12.633 -1.3122  0.7633 -0.1165
16987TIP3   OH272451   3.498   3.620  11.149  1.1910  0.2572  0.0913
16987TIP3    H172452   3.499   3.712  11.172  0.0398 -0.0727  1.5649
16987TIP3    H272453   3.406   3.600  11.130  1.4770 -0.5069 -0.5855
16988TIP3   OH272454   2.995   5.444   2.638  0.2895  0.0224 -0.1194
16988TIP3    H172455   3.078   5.449   2.685 -0.1526 -1.1470  0.8154
16988TIP3    H272456   3.016   5.474   2.549  1.3274  1.4004  0.5570
16989TIP3   OH272457   5.776   5.510  11.448  0.5798  0.2424 -0.2037
16989TIP3    H172458   5.837   5.510  11.522  2.1274 -1.8219 -1.3799
16989TIP3    H272459   5.833   5.520  11.371 -0.6908 -0.6282 -1.2780
16990TIP3   OH272460   2.978   1.282   0.797  0.2753 -0.2928  0.2807
16990TIP3    H172461   2.959   1.350   0.861 -0.0239 -0.7146  0.6413
16990TIP3    H272462   2.917   1.211   0.818  0.1909 -0.4463 -0.4474
16991TIP3   OH272463   3.534   1.425   6.554  0.4429  0.1240  0.2711
16991TIP3    H172464   3.593   1.479   6.502 -0.9680  0.9270 -0.5957
16991TIP3    H272465   3.471   1.391   6.490  0.0967 -0.8777  1.1128
16992TIP3   OH272466   2.888   2.336  14.711 -0.1048  0.0439  0.2474
16992TIP3    H172467   2.854   2.299  14.793 -1.3393  0.5466 -0.0238
16992TIP3    H272468   2.856   2.278  14.643  3.0165 -1.8770  0.2110
16993TIP3   OH272469   6.508   2.752   4.095  0.5405  0.5524  0.7764
16993TIP3    H172470   6.434   2.705   4.133  0.8598  0.7029  1.6101
16993TIP3    H272471   6.575   2.685   4.080 -0.4210  0.0613 -1.8141
16994TIP3   OH272472   3.103   4.198   4.924 -0.1430  0.3940 -0.2456
16994TIP3    H172473   3.051   4.229   4.998  0.9058 -0.0771  0.6975
16994TIP3    H272474   3.099   4.270   4.861 -0.4239  1.1015  0.5652
16995TIP3   OH272475   4.049   1.981   1.023  0.7246 -0.1434 -0.0201
16995TIP3    H172476   4.021   1.939   0.942  0.0312 -1.0596  0.6590
16995TIP3    H272477   4.000   2.063   1.026  2.6883  1.1565 -1.7518
16996TIP3   OH272478   3.259   1.208   3.037 -0.3009  0.6543 -0.1006
16996TIP3    H172479   3.254   1.155   3.116  1.1532  0.2232 -0.2710
16996TIP3    H272480   3.177   1.258   3.036 -0.7723 -0.0627  1.1426
16997TIP3   OH272481   5.719   5.646  13.867 -0.1150  0.3393 -0.7829
16997TIP3    H172482   5.787   5.705  13.899 -0.4193  0.5757 -0.5629
16997TIP3    H272483   5.749   5.558  13.891 -0.0529  0.4687 -0.3841
16998TIP3   OH272484   2.173   0.768  13.721 -0.7312  0.2595 -0.0624
16998TIP3    H172485   2.196   0.680  13.749 -0.9436  0.1848 -0.1254
16998TIP3    H272486   2.246   0.795  13.665  0.0215  0.6534  1.0614
16999TIP3   OH272487   5.301   3.238   2.519 -0.3034 -0.0676 -0.0929
16999TIP3    H172488   5.337   3.151   2.499  0.8440 -0.5653  3.4209
16999TIP3    H272489   5.216   3.220   2.559  0.8643  0.0983  2.7160
17000TIP3   OH272490   3.552   6.725   0.106  0.1134 -0.1735  0.2210
17000TIP3    H172491   3.489   6.696   0.040  0.3151 -1.5513  0.6013
17000TIP3    H272492   3.531   6.674   0.184  0.3344  0.9246  1.0228
17001TIP3   OH272493   6.116   1.409  16.089  0.9050  0.2678 -0.3851
17001TIP3    H172494   6.117   1.417  16.185  0.6259 -2.9290 -0.0290
17001TIP3    H272495   6.207   1.421  16.063  1.2408 -0.3564  0.4659
17002TIP3   OH272496   4.514   4.307   5.161 -0.1999  0.6490 -0.4074
17002TIP3    H172497   4.509   4.275   5.251  0.0623 -1.1576 -1.0117
17002TIP3    H272498   4.605   4.334   5.149 -0.2322  0.8752 -0.1532
17003TIP3   OH272499   5.450   1.622   0.020  0.1496  0.2433 -0.3858
17003TIP3    H172500   5.430   1.648   0.110  0.5989 -0.2939 -0.1292
17003TIP3    H272501   5.535   1.661   0.001 -0.5981  1.6113 -1.1052
17004TIP3   OH272502   5.711   3.039  10.877 -0.2667 -0.0730  0.2429
17004TIP3    H172503   5.718   3.048  10.782 -1.4690 -3.3682 -0.2837
17004TIP3    H272504   5.801   3.045  10.909  0.2367  0.3353 -1.1768
17005TIP3   OH272505   2.449   6.522  12.852  0.3412  0.5983 -0.0291
17005TIP3    H172506   2.513   6.574  12.804 -0.3827  2.6403  1.0752
17005TIP3    H272507   2.366   6.569  12.840 -0.5324 -0.7872  0.3231
17006TIP3   OH272508   3.949   2.972  14.741  0.3607  1.0371 -0.3049
17006TIP3    H172509   3.946   2.878  14.762 -0.3918  0.9273 -0.8720
17006TIP3    H272510   3.973   3.014  14.824  1.0193  0.3288 -0.1160
17007TIP3   OH272511   1.899   4.546  13.291  0.4610 -0.2949 -0.1144
17007TIP3    H172512   1.867   4.470  13.242 -0.7473  0.9242 -1.2825
17007TIP3    H272513   1.983   4.567  13.251 -0.2158  0.2914 -1.2764
17008TIP3   OH272514   3.282   0.545  14.085 -0.2550  0.1167 -0.0095
17008TIP3    H172515   3.250   0.458  14.108 -0.4016  0.1541 -0.0762
17008TIP3    H272516   3.249   0.602  14.154  1.2549 -0.1548  0.9928
17009TIP3   OH272517   1.162   1.829  15.982  0.1973 -0.9240  0.8015
17009TIP3    H172518   1.146   1.839  15.888 -0.8025 -0.5789  0.9955
17009TIP3    H272519   1.146   1.736  15.999  1.5141 -1.2327  0.4390
17010TIP3   OH272520   0.758   2.312   3.070  0.5509 -0.7111  0.0932
17010TIP3    H172521   0.709   2.387   3.104  0.8669 -0.7805  0.7158
17010TIP3    H272522   0.699   2.272   3.006  0.9445  0.9297 -1.3797
17011TIP3   OH272523   0.425   4.355   4.525  0.3127  0.4556  0.0670
17011TIP3    H172524   0.389   4.267   4.522 -0.7028  0.7403  2.2877
17011TIP3    H272525   0.368   4.403   4.586  2.5820  1.8136  1.2660
17012TIP3   OH272526   2.457   0.776  16.124 -0.1358  0.0371  0.3079
17012TIP3    H172527   2.368   0.794  16.094  0.0699  0.2515 -0.1883
17012TIP3    H272528   2.513   0.808  16.053  0.3069 -1.0215  0.1668
17013TIP3   OH272529   1.737   0.135   0.581  0.0651 -0.3761  0.1700
17013TIP3    H172530   1.688   0.105   0.505 -0.3698 -1.1245  0.7290
17013TIP3    H272531   1.674   0.131   0.653 -0.0281  1.9829  0.2713
17014TIP3   OH272532   6.849   3.407   1.539 -0.4621 -0.0053  0.4038
17014TIP3    H172533   6.842   3.501   1.520  0.2232 -0.1508 -0.6920
17014TIP3    H272534   6.763   3.372   1.514  0.0534 -0.0112 -1.5777
17015TIP3   OH272535   4.680   3.819  13.854  0.0999  0.2698  0.3220
17015TIP3    H172536   4.696   3.741  13.800 -1.6774 -0.2585  0.4916
17015TIP3    H272537   4.605   3.795  13.908  0.0967  1.7901  1.0311
17016TIP3   OH272538   2.473   0.677  14.039  0.2028  0.0618 -0.0506
17016TIP3    H172539   2.511   0.712  13.958 -0.5514 -0.8167 -0.7970
17016TIP3    H272540   2.489   0.583  14.034  2.0276  0.2020  1.8416
17017TIP3   OH272541   3.034   2.940  10.933  0.1007 -0.5254  0.3985
17017TIP3    H172542   2.943   2.933  10.906  0.5130  0.1586 -1.2539
17017TIP3    H272543   3.069   3.012  10.881  1.8967 -1.5672  0.0914
17018TIP3   OH272544   4.056   2.331  14.952 -0.2355 -0.3465 -0.5593
17018TIP3    H172545   4.111   2.401  14.988 -0.7222  1.4869 -3.0971
17018TIP3    H272546   3.974   2.337  15.001 -0.7492  1.8381 -1.5312
17019TIP3   OH272547   2.760   1.011   5.478 -0.5648  0.0450 -0.1443
17019TIP3    H172548   2.850   1.000   5.446 -1.2921 -1.5218 -1.8819
17019TIP3    H272549   2.728   1.090   5.435  0.7769  2.2976  2.6760
17020TIP3   OH272550   2.800   1.101  12.353 -0.1035  0.1071  0.3600
17020TIP3    H172551   2.845   1.168  12.403 -2.3673  1.9544  0.1196
17020TIP3    H272552   2.813   1.127  12.261 -1.6655  0.7592  0.2907
17021TIP3   OH272553   3.974   3.321  13.458 -0.3233 -0.3765  0.0101
17021TIP3    H172554   3.913   3.261  13.502 -0.4630  0.6331  1.2594
17021TIP3    H272555   4.054   3.317  13.510 -0.1500  0.1196 -0.2095
17022TIP3   OH272556   3.890   3.608   2.567  0.1070  0.3377 -0.1002
17022TIP3    H172557   3.941   3.644   2.494  1.6874 -0.5831  0.4995
17022TIP3    H272558   3.911   3.515   2.567 -2.5847 -0.3583 -0.5826
17023TIP3   OH272559   3.458   4.900   3.528 -0.3085 -0.0139 -0.9221
17023TIP3    H172560   3.474   4.867   3.616  0.9442 -0.3906 -1.2664
17023TIP3    H272561   3.510   4.981   3.523  0.0045 -0.2403 -1.4511
17024TIP3   OH272562   0.680   1.034  14.845 -0.3704  0.4147 -0.4019
17024TIP3    H172563   0.585   1.028  14.842 -0.3380 -3.0357  0.8418
17024TIP3    H272564   0.702   1.013  14.936  1.5820  1.9403 -0.4594
17025TIP3   OH272565   3.199   3.174  14.650  0.1871 -0.5896 -0.2949
17025TIP3    H172566   3.156   3.184  14.735  0.4526 -0.0300 -0.2213
17025TIP3    H272567   3.291   3.195  14.667 -0.2428  2.8433 -1.3083
17026TIP3   OH272568   2.755   2.774  11.463  0.4357 -0.0892 -0.2824
17026TIP3    H172569   2.794   2.700  11.418 -0.6183 -0.2167 -1.0191
17026TIP3    H272570   2.811   2.788  11.540 -0.1643 -2.5720  0.6927
17027TIP3   OH272571   4.904   6.787   4.605  0.2318  0.0997  0.0945
17027TIP3    H172572   4.932   6.702   4.638  0.3120 -0.6628 -1.7731
17027TIP3    H272573   4.966   6.849   4.643  1.5879 -0.9744 -0.2578
17028TIP3   OH272574   4.391   3.962   3.637 -0.2002 -1.0567 -0.1994
17028TIP3    H172575   4.313   4.006   3.671  0.3079 -0.5979  0.3947
17028TIP3    H272576   4.364   3.927   3.553 -0.7978 -0.1360 -0.4018
17029TIP3   OH272577   1.875   4.467  16.750 -0.1356 -0.1687  0.2825
17029TIP3    H172578   1.900   4.499  16.663  1.0758 -0.4647  0.5013
17029TIP3    H272579   1.793   4.512  16.769 -0.8050 -0.6294 -1.3091
17030TIP3   OH272580   4.074   0.524   0.430  0.2412  0.0422 -0.1715
17030TIP3    H172581   4.152   0.560   0.387 -1.2733  1.0733 -2.2425
17030TIP3    H272582   4.067   0.435   0.396 -1.2042  0.9986 -2.6234
17031TIP3   OH272583   0.586   0.495  14.494  0.3172 -0.2870 -0.0015
17031TIP3    H172584   0.596   0.409  14.452  1.1305 -0.6380  0.8761
17031TIP3    H272585   0.658   0.547  14.460 -0.8429  0.4640 -1.4408
17032TIP3   OH272586   6.558   4.402  16.117  0.0132  0.1766  0.1679
17032TIP3    H172587   6.550   4.453  16.036 -1.5750  2.1653  1.4661
17032TIP3    H272588   6.477   4.423  16.165 -0.2150 -2.8171  1.2514
17033TIP3   OH272589   1.363   1.515  15.953 -0.0866 -0.2375  0.0038
17033TIP3    H172590   1.403   1.579  15.893 -3.0264  1.3849 -0.3982
17033TIP3    H272591   1.344   1.566  16.032 -2.8589 -0.3921 -0.4692
17034TIP3   OH272592   5.549   4.425  14.158 -0.3462 -0.1613  0.1337
17034TIP3    H172593   5.605   4.459  14.228  0.4664 -0.3682 -0.3999
17034TIP3    H272594   5.562   4.485  14.085  1.2543 -1.6429 -0.8891
17035TIP3   OH272595   6.408   4.614   1.879 -0.5642  0.1238  0.2761
17035TIP3    H172596   6.316   4.606   1.853 -0.1557 -0.3949 -1.0890
17035TIP3    H272597   6.413   4.697   1.927 -1.3171  1.3147 -1.6141
17036TIP3   OH272598   1.015   1.499   1.683 -0.0284 -0.5313 -0.2546
17036TIP3    H172599   1.003   1.411   1.648 -2.7612 -1.3500  2.3040
17036TIP3    H272600   1.031   1.484   1.777  0.1479  1.6757  0.1062
17037TIP3   OH272601   6.589   3.543   1.009 -0.5365  0.1272  0.0599
17037TIP3    H172602   6.550   3.474   1.063 -1.8262  0.2802 -0.6391
17037TIP3    H272603   6.587   3.508   0.920  1.2315  0.0264  0.0141
17038TIP3   OH272604   3.961   0.165  13.001 -0.3613 -0.0695 -0.3734
17038TIP3    H172605   3.929   0.222  12.931 -0.4539  0.0887 -0.2031
17038TIP3    H272606   4.033   0.214  13.042 -0.9483  0.2638  0.2759
17039TIP3   OH272607   4.758   3.935   1.612  0.0976 -0.0456  0.2539
17039TIP3    H172608   4.731   3.995   1.681 -0.3416  0.2270 -0.1410
17039TIP3    H272609   4.720   3.973   1.532 -1.5112 -1.6656  0.1939
17040TIP3   OH272610   6.821   2.731  13.302  0.5060  0.2842  0.0282
17040TIP3    H172611   6.902   2.777  13.323  1.1368  0.2107 -2.0489
17040TIP3    H272612   6.839   2.639  13.321 -0.2549  0.5903  2.7165
17041TIP3   OH272613   1.080   1.597   2.706  0.3357 -0.0203 -0.4176
17041TIP3    H172614   1.140   1.671   2.716 -0.4364  0.8297 -1.8035
17041TIP3    H272615   1.121   1.542   2.640 -0.1463  0.2917 -0.9805
17042TIP3   OH272616   0.698   1.747   2.204 -0.2336 -0.0849 -0.0674
17042TIP3    H172617   0.703   1.673   2.264  0.1943  0.7911  0.9997
17042TIP3    H272618   0.712   1.824   2.259  1.1021  0.6896 -1.4312
17043TIP3   OH272619   2.526   1.886  10.977 -0.0133  0.5100 -0.1523
17043TIP3    H172620   2.585   1.826  11.024 -0.4974 -0.2897 -0.5389
17043TIP3    H272621   2.464   1.828  10.932 -1.2649  1.3432  0.4540
17044TIP3   OH272622   3.119   1.766   3.023 -0.3495 -0.7597 -0.7567
17044TIP3    H172623   3.200   1.718   3.039 -0.4891 -1.3549 -1.7043
17044TIP3    H272624   3.073   1.765   3.107  0.5906 -0.4753 -0.2278
17045TIP3   OH272625   1.994   3.830  13.098 -0.1354  0.6562  0.7430
17045TIP3    H172626   1.922   3.889  13.122  1.4531  2.4438  1.3878
17045TIP3    H272627   2.031   3.870  13.019  0.1546 -0.2375  0.4237
17046TIP3   OH272628   0.790   3.473   5.731  0.7008 -0.0243  0.2159
17046TIP3    H172629   0.803   3.564   5.758  4.2354 -0.7274  1.4539
17046TIP3    H272630   0.760   3.429   5.811 -0.1755 -0.1324 -0.1604
17047TIP3   OH272631   2.196   6.647  15.285  0.7585  0.2319  0.1357
17047TIP3    H172632   2.282   6.634  15.246  1.2942  0.1243  1.2930
17047TIP3    H272633   2.140   6.677  15.213  1.2995 -1.4359 -1.0304
17048TIP3   OH272634   2.687   1.536   3.792 -0.2016 -0.2950 -0.3175
17048TIP3    H172635   2.675   1.469   3.859 -1.2399 -0.8439 -1.0249
17048TIP3    H272636   2.598   1.553   3.759  0.2230  0.3779 -1.1492
17049TIP3   OH272637   3.015   4.462  13.094  0.0134 -0.2516 -0.2438
17049TIP3    H172638   3.087   4.507  13.139 -0.9016 -1.1932  2.3939
17049TIP3    H272639   3.023   4.371  13.123  0.2364 -1.3275 -3.3136
17050TIP3   OH272640   1.185   5.460   1.303  0.0765 -0.1669  0.1203
17050TIP3    H172641   1.275   5.491   1.316  0.2555 -0.4505 -0.3897
17050TIP3    H272642   1.143   5.527   1.250  0.1013 -0.2141  0.0405
17051TIP3   OH272643   2.662   6.693   3.531 -0.1795 -0.3754  0.0724
17051TIP3    H172644   2.600   6.766   3.527 -0.2950 -0.5131 -0.9906
17051TIP3    H272645   2.730   6.722   3.591 -0.9129  0.0599  0.7207
17052TIP3   OH272646   5.657   6.524   2.456 -0.1986 -0.0890  0.6914
17052TIP3    H172647   5.716   6.453   2.430 -0.8117 -0.4881  0.3473
17052TIP3    H272648   5.704   6.604   2.433 -0.7838 -0.4044 -1.9967
17053TIP3   OH272649   4.124   6.467   5.602 -0.5588  0.2079 -0.6998
17053TIP3    H172650   4.128   6.433   5.512 -0.1394  1.4605 -1.1693
17053TIP3    H272651   4.065   6.406   5.647 -0.7644 -0.4568 -1.8092
17054TIP3   OH272652   6.549   3.402  14.639 -0.6786  0.4750 -0.3559
17054TIP3    H172653   6.506   3.484  14.663 -0.7853  0.8263 -1.6519
17054TIP3    H272654   6.479   3.337  14.635 -0.6327  0.3678  0.4125
17055TIP3   OH272655   0.512   0.342   3.490  0.4099 -0.6713 -0.8307
17055TIP3    H172656   0.594   0.296   3.473  0.1518 -1.6570  0.4745
17055TIP3    H272657   0.468   0.345   3.404  2.6499  1.7029 -2.0245
17056TIP3   OH272658   0.086   5.746  13.693 -0.0160 -0.2610  0.3925
17056TIP3    H172659   0.131   5.671  13.732  3.2860  1.3405  0.0093
17056TIP3    H272660   0.122   5.822  13.738  1.3013  1.4404 -3.1211
17057TIP3   OH272661   0.990   2.431  12.259  0.8104 -0.3039 -0.4489
17057TIP3    H172662   1.018   2.480  12.336  0.2012  2.1602 -1.7103
17057TIP3    H272663   1.062   2.441  12.197 -0.5650  1.7246 -1.8368
17058TIP3   OH272664   6.151   5.803   1.096 -0.1576  0.4004 -0.3162
17058TIP3    H172665   6.178   5.894   1.084  0.3532  0.4500  1.0403
17058TIP3    H272666   6.158   5.788   1.190 -1.0727 -0.7902 -0.4103
17059TIP3   OH272667   6.191   3.965  11.300  0.0664  0.4167  1.0521
17059TIP3    H172668   6.175   4.019  11.223 -0.1472 -1.5050 -0.3472
17059TIP3    H272669   6.105   3.932  11.325  0.4722 -1.8448 -0.2068
17060TIP3   OH272670   4.954   4.531  13.408 -0.3137  0.8248  0.4058
17060TIP3    H172671   4.912   4.446  13.390 -2.1623  1.4513  1.4285
17060TIP3    H272672   5.041   4.523  13.371 -0.3368 -1.6366  0.6946
17061TIP3   OH272673   3.341   4.263   1.323 -0.0617  0.5676 -0.7151
17061TIP3    H172674   3.379   4.343   1.289 -0.1968 -0.4865 -3.6236
17061TIP3    H272675   3.246   4.274   1.309 -0.1563  0.2191 -0.3745
17062TIP3   OH272676   3.208   4.907   3.877  0.1298  0.1872 -0.1346
17062TIP3    H172677   3.206   4.900   3.973 -1.4958  3.3605  0.2163
17062TIP3    H272678   3.280   4.968   3.860 -0.2207  0.4078 -0.8541
17063TIP3   OH272679   2.486   5.948   5.837  0.2382  0.3207  0.3126
17063TIP3    H172680   2.501   5.887   5.765  1.5727 -1.7350  2.1941
17063TIP3    H272681   2.396   5.930   5.865  0.8057 -1.3601  1.2435
17064TIP3   OH272682   3.096   6.340   5.599  0.2324 -0.0785  0.1343
17064TIP3    H172683   3.150   6.295   5.534  1.1122  1.2050 -0.0567
17064TIP3    H272684   3.032   6.274   5.625  1.8241 -1.6426  0.3253
17065TIP3   OH272685   0.736   3.787   5.558  0.2392 -0.2682 -0.5932
17065TIP3    H172686   0.772   3.868   5.524 -0.6485  0.9275  1.1838
17065TIP3    H272687   0.656   3.772   5.508  0.4933 -0.1511 -1.0344
17066TIP3   OH272688   2.142   5.162   5.131 -0.1806 -0.6676 -0.1759
17066TIP3    H172689   2.226   5.202   5.152 -1.1853  1.3966  0.1554
17066TIP3    H272690   2.137   5.085   5.188  0.4121  0.5982  1.6756
17067TIP3   OH272691   2.809   2.325  13.055  0.5153 -0.0815 -0.0665
17067TIP3    H172692   2.726   2.292  13.021 -0.0896 -0.1724  1.4061
17067TIP3    H272693   2.816   2.414  13.021 -1.9850  1.2972  2.5408
17068TIP3   OH272694   3.403   4.495  10.201  0.5548  0.4176  0.1453
17068TIP3    H172695   3.386   4.587  10.222 -0.1525  0.3337 -0.0286
17068TIP3    H272696   3.444   4.498  10.114 -1.5911  0.4533 -0.9121
17069TIP3   OH272697   2.303   4.310  14.853  0.3215 -0.3678 -0.4233
17069TIP3    H172698   2.324   4.384  14.796  1.1921 -1.5243 -1.6572
17069TIP3    H272699   2.319   4.233  14.800 -1.5879 -1.4713  0.4783
17070TIP3   OH272700   1.111   6.162  14.367 -0.5200 -0.1909 -0.4001
17070TIP3    H172701   1.181   6.098  14.376 -0.5919 -0.2791 -0.4557
17070TIP3    H272702   1.137   6.235  14.423  0.7601  0.7981 -2.1986
17071TIP3   OH272703   4.707   4.874   1.782  0.2212 -0.4255  0.0390
17071TIP3    H172704   4.761   4.947   1.753  0.0514 -0.3951 -0.2110
17071TIP3    H272705   4.727   4.804   1.719 -0.3189 -0.2879 -0.2984
17072TIP3   OH272706   0.143   4.200   3.412 -0.3967 -0.0642  0.0357
17072TIP3    H172707   0.131   4.137   3.341 -0.1118 -1.7250  1.4052
17072TIP3    H272708   0.206   4.159   3.471 -1.0174  1.0251  1.5312
17073TIP3   OH272709   1.095   2.517  16.175  0.2039 -0.0425 -0.2131
17073TIP3    H172710   1.109   2.586  16.110  1.7673  0.5319  0.6694
17073TIP3    H272711   1.008   2.534  16.210 -0.5436 -0.1926 -1.9197
17074TIP3   OH272712   5.465   1.296   5.344  0.5810  0.0029  0.7243
17074TIP3    H172713   5.447   1.316   5.253 -0.3377  0.4960  0.9969
17074TIP3    H272714   5.561   1.290   5.350  0.6885  0.7374 -0.1092
17075TIP3   OH272715   6.032   1.946  15.072  1.1028 -0.4019  0.5000
17075TIP3    H172716   6.119   1.981  15.054  0.5922  0.1332 -1.1218
17075TIP3    H272717   5.997   1.924  14.985 -1.4293  1.9629  0.7920
17076TIP3   OH272718   6.374   5.126  12.624  0.0345 -0.1156 -0.1012
17076TIP3    H172719   6.329   5.130  12.708 -2.6407 -1.6004 -1.3276
17076TIP3    H272720   6.466   5.109  12.647 -0.4036  0.5611  2.4920
17077TIP3   OH272721   1.316   3.184   1.370 -0.7452 -0.5959  0.3953
17077TIP3    H172722   1.319   3.130   1.448 -0.0163  0.8462  1.4145
17077TIP3    H272723   1.403   3.224   1.365 -1.6464  1.4814  0.4399
17078TIP3   OH272724   2.485   4.169  11.460  0.2959  0.0498  0.0226
17078TIP3    H172725   2.420   4.107  11.425  1.0355 -0.8927  0.2748
17078TIP3    H272726   2.485   4.152  11.555  0.4650  0.4914  0.1036
17079TIP3   OH272727   6.694   0.163   5.371 -0.4950 -0.3746  0.5036
17079TIP3    H172728   6.617   0.159   5.429 -1.0456 -0.6105 -0.2219
17079TIP3    H272729   6.765   0.128   5.424 -0.8235  0.1001  1.2830
17080TIP3   OH272730   1.575   5.298   0.154  0.0379 -0.5276 -0.4555
17080TIP3    H172731   1.504   5.362   0.166 -0.0810 -0.3721 -1.8041
17080TIP3    H272732   1.595   5.303   0.060  0.7122 -1.7637 -0.3885
17081TIP3   OH272733   2.749   2.458   2.765 -0.2477 -0.8843 -0.4279
17081TIP3    H172734   2.661   2.437   2.735 -0.7265 -0.3491  0.5699
17081TIP3    H272735   2.802   2.382   2.740 -0.3363 -0.0490 -3.5992
17082TIP3   OH272736   0.619   5.447   0.927  0.1887  0.0121  0.9149
17082TIP3    H172737   0.598   5.359   0.956 -1.3732  0.1894  0.4500
17082TIP3    H272738   0.596   5.503   1.001  1.3385  0.0421  1.2730
17083TIP3   OH272739   6.156   3.291  13.253 -0.3147 -0.1005 -0.2151
17083TIP3    H172740   6.128   3.199  13.250  0.4770 -0.3550 -0.0264
17083TIP3    H272741   6.114   3.326  13.332  1.0524 -0.8844  0.9109
17084TIP3   OH272742   1.651   2.893  15.550  0.0207 -0.0355  0.2996
17084TIP3    H172743   1.664   2.806  15.589 -1.2575  1.0776  3.6064
17084TIP3    H272744   1.739   2.921  15.525  0.7177 -1.5466  0.9253
17085TIP3   OH272745   0.414   0.700   1.019  0.1992 -0.1584  0.5782
17085TIP3    H172746   0.394   0.791   1.040  0.3886 -0.0826  0.4313
17085TIP3    H272747   0.435   0.701   0.925 -1.2249 -0.5902  0.2283
17086TIP3   OH272748   1.699   2.541  10.477  0.2901  0.1727 -0.2127
17086TIP3    H172749   1.681   2.607  10.410  1.1580  1.5739  0.8712
17086TIP3    H272750   1.710   2.459  10.427 -0.4245  0.9002 -1.6341
17087TIP3   OH272751   5.484   4.137  14.158  0.1653  0.1627 -0.2732
17087TIP3    H172752   5.512   4.142  14.250 -2.3017  0.6821  0.5087
17087TIP3    H272753   5.481   4.228  14.129  1.3122 -0.0153 -1.0501
17088TIP3   OH272754   2.903   1.508  16.633  0.3571 -0.2173 -0.2997
17088TIP3    H172755   2.994   1.487  16.650  0.7005  1.5898  0.3249
17088TIP3    H272756   2.889   1.593  16.675 -1.6574 -0.5095 -0.2494
17089TIP3   OH272757   4.061   0.150   6.288  0.7979 -0.0379  0.0485
17089TIP3    H172758   4.153   0.149   6.261  0.9197  1.2566  0.3412
17089TIP3    H272759   4.064   0.132   6.382  0.9185  1.5855  0.3878
17090TIP3   OH272760   4.258   3.451  15.715  0.4703 -0.0797  0.0095
17090TIP3    H172761   4.249   3.482  15.805 -2.2450  0.6065 -0.3924
17090TIP3    H272762   4.312   3.517  15.672  0.0514  0.7237  0.6776
17091TIP3   OH272763   1.579   2.450   4.724  0.0467 -0.5756 -0.0299
17091TIP3    H172764   1.543   2.449   4.635  1.3781 -1.1157 -0.5801
17091TIP3    H272765   1.554   2.365   4.760 -2.6838  0.5748  1.0736
17092TIP3   OH272766   6.046   3.334   1.112  0.2437  0.1502 -0.3435
17092TIP3    H172767   6.035   3.399   1.182  1.0765  0.3313 -0.3773
17092TIP3    H272768   6.059   3.251   1.159  0.4072  0.2065 -0.2899
17093TIP3   OH272769   0.265   3.608  15.368 -0.0179 -0.0418 -0.1623
17093TIP3    H172770   0.192   3.632  15.311 -1.6812 -3.5964  0.1551
17093TIP3    H272771   0.230   3.537  15.421  2.1747  1.5256  3.7458
17094TIP3   OH272772   0.667   4.713  14.095 -0.5577  0.4562  0.4690
17094TIP3    H172773   0.630   4.625  14.107 -1.2114  0.6819  0.1423
17094TIP3    H272774   0.747   4.698  14.043  0.1738 -0.0936  1.7096
17095TIP3   OH272775   4.227   5.484  14.226  0.3382 -0.7217 -0.3323
17095TIP3    H172776   4.220   5.404  14.279  0.9340 -0.7060 -0.2288
17095TIP3    H272777   4.166   5.545  14.268  2.2019 -0.0519  1.5463
17096TIP3   OH272778   0.378   2.185   3.580 -0.1369  0.0423 -0.2072
17096TIP3    H172779   0.289   2.170   3.547  0.4963 -0.6142 -1.7115
17096TIP3    H272780   0.404   2.100   3.617 -0.1410  0.2382  0.2458
17097TIP3   OH272781   0.626   4.234   0.830  0.4300 -0.1879  0.3037
17097TIP3    H172782   0.567   4.161   0.849 -0.1262  0.0076 -0.6153
17097TIP3    H272783   0.623   4.243   0.735  0.3318  1.1566  0.4198
17098TIP3   OH272784   3.578   1.412  14.458  0.2896  0.3055 -0.2716
17098TIP3    H172785   3.542   1.500  14.462 -0.8917 -0.1906  0.9327
17098TIP3    H272786   3.673   1.424  14.463  0.3522  1.6153 -2.8438
17099TIP3   OH272787   1.149   5.041  13.579  0.5637  0.2235 -0.1086
17099TIP3    H172788   1.108   4.963  13.542  2.3084 -0.8305  0.1054
17099TIP3    H272789   1.138   5.108  13.511 -1.5693  0.0474 -0.0200
17100TIP3   OH272790   2.553   4.427   4.230  0.4631  0.3831 -0.2685
17100TIP3    H172791   2.517   4.485   4.297 -0.4517 -1.9352  1.4183
17100TIP3    H272792   2.644   4.415   4.255  0.8091  1.4831 -0.9514
17101TIP3   OH272793   1.911   3.144   6.302 -0.4373 -0.1098 -0.1898
17101TIP3    H172794   1.883   3.127   6.392  1.0466 -1.9410 -0.0098
17101TIP3    H272795   1.928   3.058   6.265  0.7898  0.6834 -1.6049
17102TIP3   OH272796   2.135   2.746  15.425  0.2716  0.4157 -0.1759
17102TIP3    H172797   2.200   2.782  15.365  0.0496  0.3437 -0.4644
17102TIP3    H272798   2.051   2.762  15.381  0.1812 -0.6933 -0.4502
17103TIP3   OH272799   1.119   0.740   0.334 -0.0053 -0.0181 -0.0848
17103TIP3    H172800   1.070   0.726   0.415  1.5010 -1.4861  0.6590
17103TIP3    H272801   1.092   0.669   0.276  1.3389 -0.9819  0.4198
17104TIP3   OH272802   4.077   1.144  15.736 -0.0210  0.1384 -0.0830
17104TIP3    H172803   4.154   1.094  15.764  0.9419  1.4729 -0.2801
17104TIP3    H272804   4.110   1.232  15.720 -1.1262  0.1647 -2.5495
17105TIP3   OH272805   5.769   6.280   1.587 -0.2091  0.4309  0.4476
17105TIP3    H172806   5.775   6.367   1.548 -1.7986  0.0608 -0.6720
17105TIP3    H272807   5.712   6.291   1.663 -0.8331  0.2839  0.0076
17106TIP3   OH272808   6.251   5.808  11.252  0.1735 -0.3913 -0.0973
17106TIP3    H172809   6.182   5.771  11.307 -0.3788 -0.8848 -1.0768
17106TIP3    H272810   6.314   5.737  11.242 -0.4321 -0.7920 -1.2337
17107TIP3   OH272811   2.696   3.225   2.122  0.5035  0.1200 -0.7094
17107TIP3    H172812   2.606   3.247   2.146 -0.3501 -3.8644  0.4532
17107TIP3    H272813   2.746   3.235   2.203  0.3362 -0.9672 -0.4576
17108TIP3   OH272814   1.292   1.558   1.614 -0.0749 -0.0703 -0.0976
17108TIP3    H172815   1.279   1.643   1.657 -1.3380  0.1450 -0.8627
17108TIP3    H272816   1.207   1.515   1.619 -0.3903  0.1220 -2.7010
17109TIP3   OH272817   5.658   1.112   5.789  0.1042  0.0447  0.0831
17109TIP3    H172818   5.737   1.063   5.764 -0.4391  0.5055 -2.9883
17109TIP3    H272819   5.672   1.199   5.752 -1.6938  0.2299 -0.2287
17110TIP3   OH272820   2.306   5.145  16.550  0.0853 -0.3775 -0.2193
17110TIP3    H172821   2.278   5.087  16.621  1.0178 -0.4488  0.1068
17110TIP3    H272822   2.228   5.156  16.496 -0.1914 -1.7042 -0.1271
17111TIP3   OH272823   6.666   1.128  12.731  0.1776 -0.8844 -0.2301
17111TIP3    H172824   6.757   1.157  12.740  0.1844 -0.6919 -0.9065
17111TIP3    H272825   6.672   1.039  12.697  0.1182 -1.0639  0.2172
17112TIP3   OH272826   0.132   0.558   5.963 -0.3166 -0.8509  1.2827
17112TIP3    H172827   0.129   0.472   5.921 -1.7586  0.4149 -1.5132
17112TIP3    H272828   0.085   0.547   6.045 -2.1502 -2.3330  0.1050
17113TIP3   OH272829   0.131   2.414  11.105 -0.1914  0.5148  0.6857
17113TIP3    H172830   0.099   2.334  11.062  0.5429 -0.1110  1.2638
17113TIP3    H272831   0.183   2.458  11.038 -1.2731  0.9470  0.1066
17114TIP3   OH272832   5.830   5.105   3.773 -0.3890 -0.2246 -0.3003
17114TIP3    H172833   5.759   5.042   3.768 -2.2237  1.7767 -2.7761
17114TIP3    H272834   5.802   5.169   3.839 -0.2335 -0.1513 -0.3024
17115TIP3   OH272835   2.651   2.982   5.058 -0.2854  0.1783  0.3666
17115TIP3    H172836   2.631   3.019   5.144 -0.4055  0.0001  0.4145
17115TIP3    H272837   2.594   2.906   5.050 -1.8118  1.3821 -0.7298
17116TIP3   OH272838   1.696   0.442  16.954  0.1200  0.0156 -0.3704
17116TIP3    H172839   1.704   0.450  17.049  0.4128 -0.6341 -0.3372
17116TIP3    H272840   1.611   0.482  16.933 -0.5150 -0.9525  0.3107
17117TIP3   OH272841   4.344   4.360  14.857 -0.0190  0.0879  0.2476
17117TIP3    H172842   4.382   4.413  14.786  1.2634 -0.8497  0.2088
17117TIP3    H272843   4.258   4.399  14.871 -0.1377  0.5913 -1.5257
17118TIP3   OH272844   3.106   4.343   1.785 -0.2539  0.1855  0.0601
17118TIP3    H172845   3.057   4.403   1.729 -0.9497 -0.4595 -0.0453
17118TIP3    H272846   3.044   4.272   1.803  0.3987 -0.2654  0.5651
17119TIP3   OH272847   3.374   4.783  12.781 -0.2200 -0.3578 -0.5841
17119TIP3    H172848   3.452   4.825  12.744 -1.2288  0.4184 -1.9170
17119TIP3    H272849   3.405   4.699  12.814  0.7927 -1.1520 -3.2688
17120TIP3   OH272850   1.359   2.986  12.408  0.2551 -0.1943  0.2603
17120TIP3    H172851   1.357   3.079  12.383 -1.7117 -0.6248 -1.5032
17120TIP3    H272852   1.305   2.982  12.487 -0.8745 -0.0009 -0.4773
17121TIP3   OH272853   0.540   6.715   4.583 -0.2135 -0.4701 -0.0621
17121TIP3    H172854   0.527   6.778   4.512  1.0852 -0.5818 -0.4402
17121TIP3    H272855   0.631   6.687   4.573  0.2021 -0.0473  2.0077
17122TIP3   OH272856   6.040   4.355   2.852  0.8492 -0.5764  0.3354
17122TIP3    H172857   6.092   4.392   2.781 -0.3615  1.2580  0.3554
17122TIP3    H272858   6.049   4.417   2.924  0.2256 -1.2547  1.0204
17123TIP3   OH272859   6.173   2.172   0.096  0.3971 -0.1955  0.7540
17123TIP3    H172860   6.132   2.257   0.080 -0.9648 -0.5708  1.9933
17123TIP3    H272861   6.266   2.191   0.103  0.5394  0.6646 -2.3403
17124TIP3   OH272862   3.739   3.997   3.544  0.3702 -0.0463  0.0222
17124TIP3    H172863   3.813   3.936   3.548  0.9894  0.7123  0.4042
17124TIP3    H272864   3.723   4.020   3.635 -0.7142 -0.6294 -0.0035
17125TIP3   OH272865   2.255   1.904   4.071  0.3681 -0.4971 -0.0229
17125TIP3    H172866   2.333   1.941   4.029  0.1255 -1.3236 -1.2715
17125TIP3    H272867   2.287   1.865   4.152  1.5998 -2.3092 -1.3031
17126TIP3   OH272868   1.130   3.722  12.396 -0.0213  0.4105  0.1057
17126TIP3    H172869   1.219   3.731  12.430  0.0893 -1.6676  0.5321
17126TIP3    H272870   1.080   3.688  12.470 -1.2363  1.7212 -0.0828
17127TIP3   OH272871   4.869   4.501   0.948 -0.0475 -0.4933  0.2226
17127TIP3    H172872   4.924   4.432   0.911  0.8542 -0.1337  0.8534
17127TIP3    H272873   4.802   4.517   0.881  1.3771 -0.0191 -1.1465
17128TIP3   OH272874   2.435   6.373  16.946  0.0661  0.4006 -0.3057
17128TIP3    H172875   2.458   6.404  17.034  0.5268  0.6545 -0.5108
17128TIP3    H272876   2.342   6.393  16.937 -0.4393 -1.2620  0.8026
17129TIP3   OH272877   3.423   5.636   2.827  0.3230  0.2445  0.0523
17129TIP3    H172878   3.424   5.728   2.854 -0.1926  0.5884 -1.0390
17129TIP3    H272879   3.354   5.596   2.881  1.6509  0.0921  1.7108
17130TIP3   OH272880   1.176   1.217  14.082  0.1364 -0.0812  0.3789
17130TIP3    H172881   1.261   1.207  14.039  1.0948  2.3043  1.5159
17130TIP3    H272882   1.193   1.195  14.174 -0.3399  0.7889  0.6897
17131TIP3   OH272883   2.734   1.781   0.561 -0.2438 -0.1471 -0.0565
17131TIP3    H172884   2.720   1.807   0.470  0.1421 -1.1100 -0.3946
17131TIP3    H272885   2.740   1.864   0.609  0.1151  0.3748 -0.9880
17132TIP3   OH272886   2.302   3.579   3.702  0.0917 -0.4209  0.3215
17132TIP3    H172887   2.268   3.529   3.776 -2.7866 -0.6566 -1.0335
17132TIP3    H272888   2.378   3.529   3.673 -1.5382 -3.0109  0.2182
17133TIP3   OH272889   6.362   2.053   5.496 -0.0563  0.1279 -0.2934
17133TIP3    H172890   6.435   2.113   5.481  0.6522 -0.6571 -0.0955
17133TIP3    H272891   6.359   1.999   5.418  2.5285 -2.8228  1.4186
17134TIP3   OH272892   3.208   3.668   1.804  0.5180  0.0586 -0.1374
17134TIP3    H172893   3.173   3.581   1.787 -1.4341  1.1695 -2.3825
17134TIP3    H272894   3.287   3.672   1.749  1.4292 -0.6999  1.0478
17135TIP3   OH272895   3.616   0.509   4.200 -0.2337  0.0791 -0.1751
17135TIP3    H172896   3.527   0.493   4.232 -0.2624  1.1544  0.3244
17135TIP3    H272897   3.673   0.471   4.267 -0.3121  0.0940 -0.1001
17136TIP3   OH272898   6.759   3.851  15.754  0.1149 -0.6797 -0.2684
17136TIP3    H172899   6.814   3.820  15.682  1.3293 -1.8716  1.1066
17136TIP3    H272900   6.807   3.925  15.791 -0.4127 -0.1905 -0.5439
17137TIP3   OH272901   0.083   4.333  11.502 -0.5786  0.1226 -0.6659
17137TIP3    H172902   0.149   4.399  11.482 -1.6647  1.3821 -0.2536
17137TIP3    H272903   0.121   4.284  11.576  0.3201  0.1522 -1.0889
17138TIP3   OH272904   0.377   1.548  12.025 -0.4736 -0.5135  0.3367
17138TIP3    H172905   0.453   1.601  11.998 -0.7357  0.1168  0.8073
17138TIP3    H272906   0.415   1.466  12.056 -0.0483 -0.5492 -0.2550
17139TIP3   OH272907   2.645   1.231  11.804  0.6429  0.1089 -0.3690
17139TIP3    H172908   2.602   1.146  11.797 -0.1642  0.6040 -1.9645
17139TIP3    H272909   2.704   1.235  11.728 -0.1436  1.3715 -0.9634
17140TIP3   OH272910   0.713   2.920   3.753 -0.3802  0.0029  0.1207
17140TIP3    H172911   0.805   2.947   3.753 -0.4268  0.2780 -1.5800
17140TIP3    H272912   0.674   2.967   3.827  1.2219 -1.6355  2.1593
17141TIP3   OH272913   0.571   5.150   5.759  0.2295 -0.6528 -0.4162
17141TIP3    H172914   0.554   5.139   5.852 -1.7042 -2.0826 -0.8628
17141TIP3    H272915   0.485   5.137   5.717  0.5174  2.4183 -2.2547
17142TIP3   OH272916   6.840   5.181   5.510  0.1471 -0.1503 -0.0799
17142TIP3    H172917   6.874   5.185   5.421  1.5526 -1.0718  0.3823
17142TIP3    H272918   6.793   5.263   5.522 -0.4208 -0.1912 -1.7971
17143TIP3   OH272919   3.223   3.401  13.167  0.2574 -0.0736 -0.0294
17143TIP3    H172920   3.196   3.315  13.199  0.7815 -0.5358 -0.7893
17143TIP3    H272921   3.143   3.454  13.169  0.0276 -0.4398  0.8680
17144TIP3   OH272922   3.116   5.924  16.458 -0.4275 -0.2837 -0.4857
17144TIP3    H172923   3.167   5.844  16.449 -1.0055 -0.9303  1.4592
17144TIP3    H272924   3.180   5.990  16.483 -0.2002 -0.5239 -0.4208
17145TIP3   OH272925   3.144   2.246   5.170  0.7461 -0.7679  0.3745
17145TIP3    H172926   3.081   2.176   5.188  0.8904 -0.3967  2.6147
17145TIP3    H272927   3.096   2.327   5.190  0.2710 -0.0524 -3.0418
17146TIP3   OH272928   5.466   4.546  13.045 -0.5877  0.1253  0.4018
17146TIP3    H172929   5.494   4.458  13.020 -1.6757 -0.2064  0.2790
17146TIP3    H272930   5.547   4.597  13.047 -0.2056 -0.2405 -2.1324
17147TIP3   OH272931   5.075   1.114  10.950  0.4055 -0.2479 -0.0818
17147TIP3    H172932   5.106   1.027  10.975 -0.8861 -0.5979  0.4251
17147TIP3    H272933   5.065   1.111  10.855 -0.7106 -1.0450  0.0495
17148TIP3   OH272934   2.955   0.772   1.962 -0.4975  0.0763  0.3420
17148TIP3    H172935   2.999   0.795   2.044 -0.1914 -0.6679  0.3878
17148TIP3    H272936   3.025   0.741   1.905 -0.7734  0.1808 -0.0556
17149TIP3   OH272937   4.230   4.153  10.575  0.3883  0.2315 -0.0524
17149TIP3    H172938   4.211   4.233  10.526  0.9888 -0.3337 -1.2377
17149TIP3    H272939   4.303   4.177  10.632 -0.5528  0.9971  0.8808
17150TIP3   OH272940   3.380   5.772  16.629 -0.7019  0.2795 -0.3745
17150TIP3    H172941   3.456   5.713  16.635 -1.3401 -0.4351  1.1486
17150TIP3    H272942   3.321   5.729  16.567 -1.0396 -0.5740  0.5126
17151TIP3   OH272943   0.875   4.102   6.071 -0.6946  0.2467  0.4444
17151TIP3    H172944   0.951   4.053   6.105 -1.4590 -1.0828  0.3116
17151TIP3    H272945   0.914   4.180   6.031  0.5736 -0.1924  0.7475
17152TIP3   OH272946   4.766   5.774   5.712 -0.6953 -0.0911  0.3666
17152TIP3    H172947   4.766   5.683   5.683 -2.2601  0.6025 -2.1681
17152TIP3    H272948   4.697   5.778   5.778  0.0303 -0.8857  1.2053
17153TIP3   OH272949   5.833   3.535  13.493  0.1212  0.1946 -0.3204
17153TIP3    H172950   5.817   3.605  13.556  0.5583  1.0547 -1.1528
17153TIP3    H272951   5.753   3.481  13.497 -0.2223  0.7344  0.3113
17154TIP3   OH272952   0.912   4.458  12.590 -0.5379  0.3311  0.1684
17154TIP3    H172953   0.833   4.421  12.631  1.0604 -1.7238  1.6121
17154TIP3    H272954   0.976   4.463  12.661  0.6166  2.1674 -0.9168
17155TIP3   OH272955   2.316   5.728  11.498 -0.4773 -0.2902 -0.1714
17155TIP3    H172956   2.349   5.694  11.415  0.5404  0.0541  0.0740
17155TIP3    H272957   2.224   5.748  11.481 -0.3211 -0.3579 -1.1682
17156TIP3   OH272958   2.144   0.123  15.037  0.0217 -0.1764 -0.2054
17156TIP3    H172959   2.072   0.084  14.989  0.4107 -0.8352 -0.2749
17156TIP3    H272960   2.110   0.136  15.125 -0.1371 -0.6335 -0.1940
17157TIP3   OH272961   0.235   5.658   2.004 -0.3823 -0.1408 -0.9406
17157TIP3    H172962   0.175   5.621   2.069 -0.4887 -3.3895 -2.6992
17157TIP3    H272963   0.287   5.722   2.053 -1.9217 -0.8187  1.7770
17158TIP3   OH272964   5.719   3.410  14.644  0.7340 -0.0300  0.3060
17158TIP3    H172965   5.748   3.358  14.570 -0.1680  0.1442 -0.1832
17158TIP3    H272966   5.784   3.481  14.651  1.1837 -0.4179  0.1081
17159TIP3   OH272967   6.381   2.266  16.676  0.4625  0.6067 -0.4139
17159TIP3    H172968   6.430   2.216  16.612  0.7662  1.6394 -1.0063
17159TIP3    H272969   6.369   2.352  16.636 -0.2538  0.9416  0.4757
17160TIP3   OH272970   3.423   1.653  14.416  0.5429 -0.7117  0.7616
17160TIP3    H172971   3.392   1.584  14.357  0.9005 -0.1843 -0.0632
17160TIP3    H272972   3.451   1.723  14.358 -0.0038  0.2236  1.5872
17161TIP3   OH272973   3.791   6.635  17.101  0.2995  0.0390  0.0184
17161TIP3    H172974   3.716   6.593  17.144  0.9514 -0.6493  0.5019
17161TIP3    H272975   3.806   6.715  17.151  1.1372 -0.8230  1.1855
17162TIP3   OH272976   0.749   0.037  12.190 -0.4643  0.1977 -0.1171
17162TIP3    H172977   0.657   0.063  12.185 -1.1696 -2.1148 -0.1453
17162TIP3    H272978   0.749  -0.042  12.244  1.4660 -0.0342 -0.3966
17163TIP3   OH272979   3.103   4.808   3.647  0.3830 -0.2881 -0.3307
17163TIP3    H172980   3.184   4.782   3.605 -0.1632 -2.4912 -0.1227
17163TIP3    H272981   3.126   4.820   3.739  0.5777 -0.3976 -0.3651
17164TIP3   OH272982   4.041   2.519   0.373  0.5632  0.0824  0.3628
17164TIP3    H172983   4.005   2.465   0.303 -1.0761 -2.1390  2.7395
17164TIP3    H272984   4.080   2.457   0.434  2.9175  1.9989  1.0105
17165TIP3   OH272985   0.599   5.853   5.284 -0.3174 -0.2205 -0.6527
17165TIP3    H172986   0.638   5.876   5.369 -2.2234  0.4899  0.0820
17165TIP3    H272987   0.551   5.772   5.301  0.1444 -0.6430 -1.3314
17166TIP3   OH272988   0.097   0.850  13.840  0.6734 -0.2810 -0.1925
17166TIP3    H172989   0.039   0.849  13.764 -0.9775  0.7479  0.9656
17166TIP3    H272990   0.102   0.943  13.865  2.5837 -0.3854 -0.0304
17167TIP3   OH272991   3.392   6.547  13.092  0.5899 -0.4836  0.1112
17167TIP3    H172992   3.478   6.524  13.127  1.0438 -0.3683 -0.9036
17167TIP3    H272993   3.365   6.623  13.144  0.5827 -1.1928  1.1899
17168TIP3   OH272994   6.682   1.994   5.711  0.0217  0.6897 -0.7877
17168TIP3    H172995   6.665   2.069   5.768  0.8313 -0.3184  0.8579
17168TIP3    H272996   6.596   1.956   5.696 -0.3247  1.5719 -1.1325
17169TIP3   OH272997   1.256   1.070   2.400  0.0659 -0.4393  0.3303
17169TIP3    H172998   1.239   1.123   2.321  3.0401 -2.3176 -1.7746
17169TIP3    H272999   1.307   1.128   2.457 -0.6191  0.3937  0.1158
17170TIP3   OH273000   0.502   5.779   5.914  0.2402 -0.5832  0.3757
17170TIP3    H173001   0.483   5.769   5.820  0.6802 -0.1446  0.2342
17170TIP3    H273002   0.507   5.690   5.947 -1.6282 -0.7427  0.3345
17171TIP3   OH273003   2.749   0.828   0.282 -0.1132  0.8217 -0.7404
17171TIP3    H173004   2.783   0.747   0.321 -1.2221 -0.4505 -2.3079
17171TIP3    H273005   2.654   0.820   0.288 -0.2487  2.1634 -0.6741
17172TIP3   OH273006   0.449   5.985  15.341  0.0683  0.0816  0.2465
17172TIP3    H173007   0.386   6.050  15.310 -0.9163 -0.2454  1.4901
17172TIP3    H273008   0.533   6.031  15.340 -0.6596  1.4985  1.4364
17173TIP3   OH273009   6.297   1.840   2.505 -0.3076 -0.2285  0.1544
17173TIP3    H173010   6.223   1.799   2.550 -1.2701 -0.1622 -1.2973
17173TIP3    H273011   6.258   1.881   2.428  1.4289 -1.4681 -1.4867
17174TIP3   OH273012   0.627   2.709  11.945 -0.1573  0.2672  0.3620
17174TIP3    H173013   0.666   2.674  11.865  0.3687  0.5339  0.4965
17174TIP3    H273014   0.559   2.646  11.969  0.2464 -0.2481  0.1641
17175TIP3   OH273015   5.485   0.211   2.019 -0.3369 -0.3239 -0.1692
17175TIP3    H173016   5.393   0.185   2.017 -0.4506  0.0812 -0.2135
17175TIP3    H273017   5.503   0.228   2.111 -0.8120  1.3764 -0.3645
17176TIP3   OH273018   6.684   4.682  11.203 -0.1617  0.0857  0.2280
17176TIP3    H173019   6.701   4.760  11.150  1.8806  0.9690  1.9974
17176TIP3    H273020   6.658   4.716  11.289 -1.1851 -1.2324  0.4752
17177TIP3   OH273021   6.382   1.415  13.117 -0.2115  0.9883  0.1196
17177TIP3    H173022   6.343   1.347  13.062 -1.2362  0.6812  1.1646
17177TIP3    H273023   6.474   1.390  13.126 -0.3494  0.2966 -0.3329
17178TIP3   OH273024   2.827   3.830   2.590  0.5138  0.1658 -0.1841
17178TIP3    H173025   2.887   3.900   2.617  1.0545 -0.0279 -0.8606
17178TIP3    H273026   2.741   3.862   2.617  0.8497  0.7109  0.2807
17179TIP3   OH273027   3.752   1.092   3.386  0.0058 -0.7228  0.3909
17179TIP3    H173028   3.729   1.118   3.475  1.5912 -1.1905  0.9810
17179TIP3    H273029   3.799   1.167   3.351 -2.2470  0.2216 -0.7923
17180TIP3   OH273030   5.693   3.112   2.595  0.1632  0.1149 -0.4213
17180TIP3    H173031   5.781   3.140   2.572  0.3411 -0.1464 -0.0799
17180TIP3    H273032   5.699   3.090   2.688 -0.4632  0.8771 -0.1978
17181TIP3   OH273033   5.964   6.659  13.382 -0.8570 -0.5250  0.1577
17181TIP3    H173034   6.016   6.588  13.422  1.0674  0.2143 -0.8894
17181TIP3    H273035   5.989   6.737  13.431  1.2383  0.3300 -2.0414
17182TIP3   OH273036   4.409   4.144  12.101 -0.4179  0.2904  0.3959
17182TIP3    H173037   4.415   4.150  12.006  1.5968  0.7857  0.5175
17182TIP3    H273038   4.334   4.200  12.123  0.2820  1.7891 -0.7788
17183TIP3   OH273039   4.426   4.406   4.412  0.2447 -0.5816 -0.2436
17183TIP3    H173040   4.359   4.338   4.406  1.7341 -2.0164 -1.7820
17183TIP3    H273041   4.484   4.377   4.482 -1.2695  1.2830  1.9498
17184TIP3   OH273042   1.946   0.733  16.197 -0.3446 -0.2326  0.4812
17184TIP3    H173043   1.890   0.655  16.207 -1.0639  0.4225  1.6932
17184TIP3    H273044   2.004   0.731  16.273  2.5680 -1.8277 -1.5688
17185TIP3   OH273045   1.033   6.530  13.381  0.3638 -0.2782 -0.2515
17185TIP3    H173046   1.078   6.461  13.332 -0.2342 -1.4648  0.7975
17185TIP3    H273047   0.942   6.526  13.350  0.0506 -0.8333  0.7048
17186TIP3   OH273048   5.761   1.581  15.062  0.9530  0.1262  0.2591
17186TIP3    H173049   5.808   1.613  14.985  0.6471 -0.6891 -0.2749
17186TIP3    H273050   5.772   1.486  15.060 -3.0811 -0.5068 -1.5478
17187TIP3   OH273051   0.315   2.991  14.125 -0.6710 -0.0990  0.0144
17187TIP3    H173052   0.361   3.060  14.173  0.2640 -1.4143  1.1009
17187TIP3    H273053   0.222   3.008  14.141 -0.4734  1.0446  0.0367
17188TIP3   OH273054   1.479   4.078   1.552 -0.1571  0.3466  0.0073
17188TIP3    H173055   1.446   4.167   1.561  1.3180  1.0176 -0.8112
17188TIP3    H273056   1.484   4.064   1.457  0.3173 -0.3126  0.1227
17189TIP3   OH273057   5.799   3.081  10.627  0.6731  0.0948 -0.1531
17189TIP3    H173058   5.830   3.154  10.573 -0.3718  1.1315  0.5933
17189TIP3    H273059   5.782   3.010  10.564 -0.7727  1.3519 -1.2571
17190TIP3   OH273060   3.620   2.177  13.381 -0.4033 -0.1960  0.8000
17190TIP3    H173061   3.690   2.117  13.408 -0.7932 -0.4809  1.2033
17190TIP3    H273062   3.664   2.241  13.325  0.2412 -0.1942  1.2897
17191TIP3   OH273063   0.042   4.257   1.246  0.0421  0.0136 -0.2227
17191TIP3    H173064  -0.016   4.319   1.202  0.2387  0.3087 -0.0635
17191TIP3    H273065  -0.004   4.234   1.327 -0.6795 -1.1130 -0.9189
17192TIP3   OH273066   2.709   4.860   5.540 -0.0466  0.3811  0.3242
17192TIP3    H173067   2.765   4.917   5.592  1.7961 -0.0281 -1.1240
17192TIP3    H273068   2.712   4.775   5.586 -0.7500  0.7393  1.0720
17193TIP3   OH273069   4.599   4.562   0.875 -0.1700 -0.0481 -0.1298
17193TIP3    H173070   4.553   4.626   0.821  2.6776  1.1352 -1.3165
17193TIP3    H273071   4.557   4.569   0.961 -1.8503  1.2782 -1.0058
17194TIP3   OH273072   6.368   6.403   6.146  0.3332  0.0715  0.1795
17194TIP3    H173073   6.344   6.421   6.237  0.0343  0.2656  0.0640
17194TIP3    H273074   6.441   6.341   6.152  1.6026  1.5401  0.5976
17195TIP3   OH273075   2.195   0.929  14.987 -0.0264 -0.2307  0.1541
17195TIP3    H173076   2.233   0.845  15.012  2.6714  0.0818 -2.4314
17195TIP3    H273077   2.249   0.995  15.031  0.6264  0.1861 -1.2399
17196TIP3   OH273078   4.364   6.075  12.064  0.0530 -0.3410 -0.1453
17196TIP3    H173079   4.291   6.049  12.007  0.6247  2.0648 -2.1621
17196TIP3    H273080   4.426   6.002  12.056  0.1470 -0.0789 -2.7765
17197TIP3   OH273081   0.042   6.390   2.375  0.4858  0.3775  0.3544
17197TIP3    H173082  -0.012   6.402   2.453 -1.5470 -2.9591 -0.3125
17197TIP3    H273083  -0.010   6.427   2.304 -0.3504 -1.4990 -0.0793
17198TIP3   OH273084   4.140   5.563  16.381  0.0246  0.1678  0.1445
17198TIP3    H173085   4.159   5.607  16.464  2.6845 -0.3192 -0.0989
17198TIP3    H273086   4.179   5.620  16.314  0.1645 -0.6923 -0.5245
17199TIP3   OH273087   2.124   3.107   3.546  0.4288 -0.1786  0.0102
17199TIP3    H173088   2.049   3.054   3.519 -0.4295  1.0018 -0.0116
17199TIP3    H273089   2.172   3.051   3.607 -0.5657 -0.9063  0.1629
17200TIP3   OH273090   6.667   2.953  12.305 -0.0896 -0.9103  0.8486
17200TIP3    H173091   6.662   2.860  12.285  0.5368 -1.0389  1.2655
17200TIP3    H273092   6.754   2.965  12.342  0.0923 -0.0335  0.1689
17201TIP3   OH273093   4.060   4.967  13.013 -0.1511 -0.1219  0.3714
17201TIP3    H173094   4.099   4.880  13.011  0.4499  0.1523 -0.4604
17201TIP3    H273095   3.966   4.951  13.020 -0.0599 -0.8382  0.0537
17202TIP3   OH273096   0.012   2.550   6.507  0.5834 -0.0181 -0.8437
17202TIP3    H173097  -0.069   2.600   6.500 -0.1767 -1.4042 -2.9456
17202TIP3    H273098  -0.012   2.471   6.555  0.6856 -0.3953 -1.3996
17203TIP3   OH273099   0.375   3.682  11.073  0.1362  0.3036  0.2043
17203TIP3    H173100   0.459   3.710  11.037  0.0202 -0.8440 -1.0275
17203TIP3    H273101   0.314   3.686  11.000 -0.6213  0.0224  0.8020
17204TIP3   OH273102   4.626   2.049  12.520 -0.0811 -0.0852 -0.3065
17204TIP3    H173103   4.659   1.975  12.469 -0.3849  0.4881 -1.3584
17204TIP3    H273104   4.697   2.070  12.581  0.1182 -1.0538 -0.1963
17205TIP3   OH273105   6.760   2.189   4.325  0.5237  0.7185  0.3156
17205TIP3    H173106   6.727   2.121   4.267 -0.0962  1.6418 -0.4507
17205TIP3    H273107   6.838   2.223   4.281  0.2004  1.2446  0.1346
17206TIP3   OH273108   4.742   2.517   5.984  0.3500  0.3524 -0.1565
17206TIP3    H173109   4.656   2.514   5.940 -0.4592  0.8741  1.3067
17206TIP3    H273110   4.753   2.610   6.007  1.7237  0.4405 -1.0746
17207TIP3   OH273111   0.839   3.723   1.970 -0.5630 -0.6169 -0.2390
17207TIP3    H173112   0.838   3.798   2.029  0.2563  0.4978 -1.5821
17207TIP3    H273113   0.830   3.761   1.883  1.0237 -1.9735 -1.0361
17208TIP3   OH273114   4.504   2.130   2.574  0.0919  0.0165 -0.8116
17208TIP3    H173115   4.424   2.106   2.527 -0.3180 -0.0776 -0.0732
17208TIP3    H273116   4.573   2.077   2.533 -0.4936 -1.0770 -0.4061
17209TIP3   OH273117   4.258   4.953  16.067  0.8494  0.5297 -0.0124
17209TIP3    H173118   4.223   4.867  16.089  0.7934  0.3634 -0.7524
17209TIP3    H273119   4.324   4.970  16.135 -0.4224  0.7216  1.2395
17210TIP3   OH273120   4.839   5.696   3.676  0.5525 -0.2640  0.1213
17210TIP3    H173121   4.775   5.661   3.614  1.3122 -1.4751 -0.0197
17210TIP3    H273122   4.813   5.658   3.760  1.2991 -1.0681 -0.0048
17211TIP3   OH273123   4.997   0.619  15.112  0.4950  0.3133  0.1423
17211TIP3    H173124   5.017   0.633  15.019 -2.7201 -4.2824 -1.6014
17211TIP3    H273125   4.907   0.648  15.122  0.4706 -0.1614  1.5567
17212TIP3   OH273126   0.097   0.182   2.956 -0.1019 -0.2628  0.2466
17212TIP3    H173127   0.050   0.157   2.876  0.7475 -3.5889  0.6726
17212TIP3    H273128   0.156   0.252   2.928 -0.8489 -0.3570 -1.7089
17213TIP3   OH273129   4.655   3.269  14.582 -0.7814  0.6331 -0.3724
17213TIP3    H173130   4.740   3.308  14.563  0.4220 -0.9058  1.4862
17213TIP3    H273131   4.657   3.251  14.676 -3.1769  0.5262 -0.2823
17214TIP3   OH273132   3.888   1.344   5.400  0.0412  0.2301  0.3174
17214TIP3    H173133   3.853   1.317   5.315  0.6844  0.0986  0.0864
17214TIP3    H273134   3.811   1.354   5.456 -0.3231 -0.5974 -0.0228
17215TIP3   OH273135   3.995   4.931   5.911 -0.3602 -0.1048 -0.1679
17215TIP3    H173136   3.962   4.920   6.000 -0.2450 -0.8398 -0.2088
17215TIP3    H273137   4.006   4.841   5.878  2.5339  0.0482  0.1483
17216TIP3   OH273138   4.682   0.741  13.603 -0.1032  0.3686  0.1751
17216TIP3    H173139   4.637   0.824  13.620  0.5679  0.7765 -0.0144
17216TIP3    H273140   4.612   0.676  13.604 -0.6459  0.9397  0.2800
17217TIP3   OH273141   1.517   2.086   3.714 -0.1267 -0.3199 -0.1834
17217TIP3    H173142   1.452   2.149   3.747  0.5233  1.0237 -1.3903
17217TIP3    H273143   1.598   2.109   3.760  0.4550  0.6877 -1.6496
17218TIP3   OH273144   6.369   3.534  10.958  0.1999 -0.1117  0.4703
17218TIP3    H173145   6.363   3.530  11.054 -0.0767 -2.1895  0.4165
17218TIP3    H273146   6.463   3.536  10.941  0.2476  1.1705  0.7751
17219TIP3   OH273147   0.624   2.786   5.167 -0.4672  0.1110 -0.2689
17219TIP3    H173148   0.664   2.817   5.086  1.6438 -1.6816 -0.0044
17219TIP3    H273149   0.697   2.755   5.220 -1.6966  2.0057  2.7651
17220TIP3   OH273150   6.219   3.635  11.950  0.1679 -0.3712 -0.1983
17220TIP3    H173151   6.189   3.544  11.952 -0.6207 -0.1097  1.2652
17220TIP3    H273152   6.247   3.653  12.040 -1.4052  1.3688 -0.0067
17221TIP3   OH273153   4.789   1.995  11.606 -0.4377 -0.1226 -0.0780
17221TIP3    H173154   4.879   1.965  11.621 -0.5180 -0.8033 -0.9049
17221TIP3    H273155   4.795   2.047  11.525 -1.0139 -1.3342 -0.9292
17222TIP3   OH273156   5.264   5.141  13.560 -0.1559 -1.2796  0.5450
17222TIP3    H173157   5.358   5.121  13.553  0.0442 -0.4035  0.5618
17222TIP3    H273158   5.249   5.207  13.492 -1.1649 -2.7167 -0.7135
17223TIP3   OH273159   2.679   4.307  15.923 -0.2593 -0.1269  0.5358
17223TIP3    H173160   2.686   4.399  15.901 -0.2715 -0.3547 -0.4405
17223TIP3    H273161   2.768   4.273  15.917 -0.4955 -0.5720 -0.9527
17224TIP3   OH273162   6.656   6.433  11.001  0.2205 -0.3865 -0.2407
17224TIP3    H173163   6.605   6.487  11.061 -0.2351 -0.4006 -0.6152
17224TIP3    H273164   6.623   6.455  10.914  2.4634  1.4116 -0.7515
17225TIP3   OH273165   5.294   0.312  12.989  0.0092  0.5900 -0.0555
17225TIP3    H173166   5.379   0.281  12.960 -1.0420 -1.2596 -1.3814
17225TIP3    H273167   5.306   0.332  13.082  1.9910  0.9012 -0.3317
17226TIP3   OH273168   6.095   0.878   2.609 -0.2940 -0.0257  0.2868
17226TIP3    H173169   6.181   0.878   2.651  0.2511  0.5722 -0.7836
17226TIP3    H273170   6.096   0.800   2.554 -0.3758  0.0575  0.1666
17227TIP3   OH273171   0.413   4.336   4.251 -0.3312 -0.1784 -0.3875
17227TIP3    H173172   0.505   4.348   4.226 -0.6341 -1.0123 -2.0840
17227TIP3    H273173   0.414   4.334   4.346  1.2861  0.7459 -0.3440
17228TIP3   OH273174   4.975   6.753   2.617 -0.1119  0.4616 -0.2007
17228TIP3    H173175   4.983   6.657   2.624 -0.3287  0.5626  2.5571
17228TIP3    H273176   5.066   6.784   2.617 -0.0494  0.2841 -0.1081
17229TIP3   OH273177   2.478   0.581  14.890  0.1645 -0.0617  0.0255
17229TIP3    H173178   2.433   0.663  14.909  0.0217  0.0544 -0.7748
17229TIP3    H273179   2.447   0.556  14.803  0.8249 -0.5379 -0.0834
17230TIP3   OH273180   5.334   3.469  13.214 -0.6442 -0.9488  0.4312
17230TIP3    H173181   5.298   3.508  13.294 -0.0411 -0.7255  0.6036
17230TIP3    H273182   5.415   3.518  13.199 -0.8469 -0.8746 -0.4157
17231TIP3   OH273183   2.067   3.859  12.830  0.2970 -0.4046 -0.1848
17231TIP3    H173184   2.063   3.774  12.787 -0.0473 -0.2890 -0.3882
17231TIP3    H273185   1.985   3.902  12.805  0.9771  0.4524 -1.0697
17232TIP3   OH273186   1.532   3.179  11.537  0.0259  0.5339 -0.5628
17232TIP3    H173187   1.592   3.106  11.551 -1.8170 -0.7494  1.1583
17232TIP3    H273188   1.548   3.206  11.446  0.9963 -1.8063 -1.1596
17233TIP3   OH273189   3.381   1.450   5.878  0.7251 -0.2051 -0.7992
17233TIP3    H173190   3.325   1.417   5.807  0.1648 -1.9053  0.3800
17233TIP3    H273191   3.463   1.472   5.835  0.4270 -1.2699 -1.9706
17234TIP3   OH273192   6.789   5.011  15.694 -0.2937 -0.4200 -0.3959
17234TIP3    H173193   6.717   5.011  15.757  0.3467 -1.8565  0.3517
17234TIP3    H273194   6.842   4.935  15.716 -0.1371 -1.0884 -2.7755
17235TIP3   OH273195   6.061   0.038   5.168  0.2133  0.3115 -0.3096
17235TIP3    H173196   5.982   0.045   5.115  0.2814 -3.9078 -1.3937
17235TIP3    H273197   6.132   0.057   5.107  0.1520  1.7955  0.0512
17236TIP3   OH273198   4.355   0.180  12.831  0.6355  0.0575 -0.1277
17236TIP3    H173199   4.364   0.261  12.880 -0.4871  0.6154 -0.8006
17236TIP3    H273200   4.444   0.148  12.821  1.1713  1.5822 -0.4677
17237TIP3   OH273201   6.101   0.720  12.036  0.2226 -0.0676  0.6105
17237TIP3    H173202   6.124   0.813  12.044 -2.9720  0.7964  1.0398
17237TIP3    H273203   6.065   0.712  11.947 -1.5809 -0.3186  1.3256
17238TIP3   OH273204   1.545   2.152  12.069  0.2148  0.0329 -0.2947
17238TIP3    H173205   1.510   2.191  12.148 -1.7158  1.5464 -1.7946
17238TIP3    H273206   1.594   2.222  12.027  0.3171 -0.4264 -0.9657
17239TIP3   OH273207   4.064   3.679  12.706  0.5355 -0.2181 -0.3789
17239TIP3    H173208   4.052   3.754  12.647  1.2963 -0.6398 -1.0969
17239TIP3    H273209   3.982   3.673  12.755  0.5001  1.1370 -0.2506
17240TIP3   OH273210   5.140   4.465   5.009  0.8055  0.3685  0.0588
17240TIP3    H173211   5.226   4.472   4.969  0.8089  1.8191  0.2727
17240TIP3    H273212   5.101   4.552   4.999 -1.0379 -0.5046 -0.8901
17241TIP3   OH273213   1.816   1.134  13.667 -0.6367 -0.4230  0.2377
17241TIP3    H173214   1.867   1.056  13.691  0.4985  0.2043 -0.0344
17241TIP3    H273215   1.784   1.116  13.579 -1.3811 -1.0660  0.6351
17242TIP3   OH273216   1.264   1.289  12.771 -0.3918  0.9497 -0.4846
17242TIP3    H173217   1.200   1.227  12.737  1.6747 -1.4430 -0.2971
17242TIP3    H273218   1.215   1.341  12.835 -2.0704 -1.0183 -0.0628
17243TIP3   OH273219   0.527   2.575  15.686 -0.6056 -0.5206  0.2794
17243TIP3    H173220   0.447   2.605  15.642  0.0738  0.2788 -0.4534
17243TIP3    H273221   0.556   2.500  15.634 -1.2359 -1.2491  0.9529
17244TIP3   OH273222   5.148   2.396   1.404 -0.0987 -0.3941 -0.2178
17244TIP3    H173223   5.173   2.307   1.379  0.0632 -0.8856  1.5293
17244TIP3    H273224   5.056   2.404   1.377 -0.3513 -1.3973  0.2819
17245TIP3   OH273225   5.096   2.661   3.689 -0.2919  0.0917 -0.2663
17245TIP3    H173226   5.079   2.702   3.774  0.7019  1.7573 -0.8140
17245TIP3    H273227   5.028   2.594   3.681 -0.1642 -0.4109  2.0046
17246TIP3   OH273228   5.729   1.133  12.552  0.2202  0.3933  0.3713
17246TIP3    H173229   5.691   1.062  12.604 -0.7626 -1.1044 -2.2205
17246TIP3    H273230   5.672   1.140  12.475  2.2616  1.6568 -1.1243
17247TIP3   OH273231   0.617   1.127  12.516  0.3536 -0.6886  0.3413
17247TIP3    H173232   0.652   1.038  12.522  1.4068 -0.4036 -0.9933
17247TIP3    H273233   0.691   1.180  12.486 -0.8864  0.1491 -1.4393
17248TIP3   OH273234   2.449   4.387   1.418  0.2822 -0.0839 -0.3745
17248TIP3    H173235   2.448   4.358   1.327  1.0171  1.5885 -0.9449
17248TIP3    H273236   2.389   4.462   1.420 -0.5411 -0.7364  0.7742
17249TIP3   OH273237   3.339   4.426  11.791 -0.6735  0.3839  0.1554
17249TIP3    H173238   3.400   4.358  11.822  0.2808  0.7746 -0.7979
17249TIP3    H273239   3.395   4.488  11.744 -1.7970  0.8368 -0.6239
17250TIP3   OH273240   3.527   6.508  12.745  0.1089  0.1829  0.4583
17250TIP3    H173241   3.588   6.463  12.687  0.5410 -0.5075  1.4243
17250TIP3    H273242   3.581   6.574  12.789  0.4054 -1.0072  1.9657
17251TIP3   OH273243   5.816   3.007  12.791  0.2043  0.1899  0.0817
17251TIP3    H173244   5.734   3.017  12.743  1.0057 -0.8110 -1.5509
17251TIP3    H273245   5.789   2.988  12.881 -1.3510 -0.4161 -0.4882
17252TIP3   OH273246   4.722   6.154   3.446  0.0210 -0.2680 -0.5016
17252TIP3    H173247   4.798   6.212   3.453  1.0021 -1.6543  1.0787
17252TIP3    H273248   4.685   6.154   3.534 -0.8642 -0.8676 -0.8704
17253TIP3   OH273249   0.348   2.465   3.187 -0.0355 -0.9124 -0.3822
17253TIP3    H173250   0.435   2.498   3.163  0.1015 -0.6684  0.4257
17253TIP3    H273251   0.356   2.370   3.177  0.7565 -1.0130  0.9919
17254TIP3   OH273252   3.686   4.860  16.216 -0.3821  0.1619  0.7631
17254TIP3    H173253   3.780   4.866  16.197 -0.4945  1.6309  0.5319
17254TIP3    H273254   3.667   4.938  16.268 -1.4835 -0.1353  0.8394
17255TIP3   OH273255   5.599   6.821  10.965  0.2324 -0.6292 -0.6365
17255TIP3    H173256   5.512   6.861  10.957  0.1813 -0.7008 -0.4272
17255TIP3    H273257   5.624   6.801  10.874 -0.0111 -0.6976 -0.6888
17256TIP3   OH273258   5.034   0.319   0.887  0.1719 -0.1812 -0.0957
17256TIP3    H173259   4.942   0.305   0.906  0.2982  1.5604  2.2304
17256TIP3    H273260   5.036   0.398   0.833  0.3803  1.5505  2.3248
17257TIP3   OH273261   1.653   2.702   4.479 -0.1737 -0.2646  0.0597
17257TIP3    H173262   1.704   2.756   4.420  0.6266 -1.2307 -0.1594
17257TIP3    H273263   1.696   2.712   4.564 -1.2618  1.0429  0.4937
17258TIP3   OH273264   4.271   2.494  15.081  0.2175  0.1621 -0.3429
17258TIP3    H173265   4.320   2.576  15.076  1.4200 -0.3273  1.9703
17258TIP3    H273266   4.193   2.516  15.132  0.7259 -0.1702  0.6048
17259TIP3   OH273267   2.385   2.646  16.750 -0.1137  0.1391 -0.2955
17259TIP3    H173268   2.368   2.689  16.667 -2.2227  0.1926  0.1094
17259TIP3    H273269   2.380   2.552  16.730 -1.0128  0.1555 -0.1690
17260TIP3   OH273270   6.454   2.015   4.644 -0.4467  0.0308  0.3754
17260TIP3    H173271   6.549   2.028   4.648 -0.4683  0.8191 -1.0827
17260TIP3    H273272   6.442   1.947   4.577 -0.8136 -1.8067  2.2068
17261TIP3   OH273273   1.869   5.277   1.114  0.2678 -0.3630  0.1246
17261TIP3    H173274   1.912   5.332   1.179  0.0769  1.2756 -1.0608
17261TIP3    H273275   1.776   5.282   1.134  0.3046 -0.8826  0.4550
17262TIP3   OH273276   0.837   3.044  11.548  0.0569 -0.1203 -0.0698
17262TIP3    H173277   0.834   3.029  11.643  1.8157  1.3965  0.2855
17262TIP3    H273278   0.838   2.956  11.510 -0.3078 -0.7618  1.3282
17263TIP3   OH273279   5.075   5.199   3.908  0.2817 -0.2162  0.0980
17263TIP3    H173280   5.034   5.213   3.823 -0.6450 -3.9031 -0.2322
17263TIP3    H273281   5.001   5.186   3.968  0.8894 -2.2982  0.4589
17264TIP3   OH273282   4.269   6.563  16.762  0.5701 -0.1024  0.3479
17264TIP3    H173283   4.182   6.528  16.780  0.7548 -0.4058  0.6769
17264TIP3    H273284   4.319   6.545  16.842  1.1881 -0.7737 -0.1690
17265TIP3   OH273285   3.775   2.930  10.809  0.0453  0.7465  0.0223
17265TIP3    H173286   3.703   2.916  10.871 -1.1055 -1.1238 -1.6185
17265TIP3    H273287   3.732   2.956  10.728  1.3220  0.7330 -0.6844
17266TIP3   OH273288   4.014   6.402   0.073  0.0315 -0.1962 -0.3020
17266TIP3    H173289   4.019   6.360  -0.013 -0.4521 -3.0342  0.9505
17266TIP3    H273290   3.931   6.373   0.109  0.2468  0.9037  1.1695
17267TIP3   OH273291   3.698   1.474   0.669 -0.0346 -0.4247  0.3519
17267TIP3    H173292   3.629   1.538   0.689  0.8279  0.8318 -0.5979
17267TIP3    H273293   3.704   1.421   0.749 -1.8230 -0.3260  0.6006
17268TIP3   OH273294   0.803   5.833   5.834  0.3562  0.0762  0.2160
17268TIP3    H173295   0.794   5.748   5.790  0.1596  0.8612 -1.3383
17268TIP3    H273296   0.876   5.875   5.789 -0.4734  1.2983 -0.0212
17269TIP3   OH273297   2.900   6.643  11.290 -0.6899 -0.1750  0.0628
17269TIP3    H173298   2.946   6.715  11.334  0.7805  0.2252 -1.9897
17269TIP3    H273299   2.815   6.680  11.265 -0.7476  0.2063  0.7952
17270TIP3   OH273300   4.907   4.145   4.441  0.1720  0.2978 -0.5746
17270TIP3    H173301   4.893   4.239   4.451  0.8040  0.3568 -0.1624
17270TIP3    H273302   4.941   4.135   4.352  1.5097  0.6433 -0.1265
17271TIP3   OH273303   1.106   3.011  12.281  0.2936  0.6180 -0.4777
17271TIP3    H173304   1.152   3.077  12.228 -0.0510  0.2106 -1.3008
17271TIP3    H273305   1.057   2.960  12.217 -0.2357  0.1948  0.2628
17272TIP3   OH273306   0.527   0.003  11.644  0.1352  0.1516  0.3832
17272TIP3    H173307   0.604   0.004  11.587 -0.0537  1.4860  0.1206
17272TIP3    H273308   0.545  -0.067  11.707  1.2108 -0.0700 -0.1501
17273TIP3   OH273309   3.308   6.674  12.833  0.2730  0.3562 -0.4070
17273TIP3    H173310   3.242   6.609  12.857  0.8206  0.1099  0.4764
17273TIP3    H273311   3.380   6.623  12.798 -0.7951  0.7440 -3.4418
17274TIP3   OH273312   4.817   3.634  16.138  0.3557 -0.1593 -0.2229
17274TIP3    H173313   4.907   3.638  16.171  0.2602 -2.0795  0.4090
17274TIP3    H273314   4.769   3.697  16.192  0.7645 -1.2717  1.5526
17275TIP3   OH273315   3.087   1.030   5.055 -0.0622 -0.5686 -1.1229
17275TIP3    H173316   3.145   1.106   5.063  1.2180 -1.5255 -0.9392
17275TIP3    H273317   3.027   1.052   4.984  1.5303 -0.1552 -2.3991
17276TIP3   OH273318   4.586   0.585   3.267 -0.2746 -0.4861 -0.3533
17276TIP3    H173319   4.534   0.655   3.307  0.7317 -0.2978  0.6883
17276TIP3    H273320   4.531   0.507   3.275 -1.6284  0.2245 -1.9908
17277TIP3   OH273321   2.827   1.503  15.421  0.0924  0.3268 -0.0604
17277TIP3    H173322   2.768   1.435  15.388 -0.4309 -1.2181  3.5638
17277TIP3    H273323   2.783   1.585  15.400  0.1712 -0.3947 -3.5534
17278TIP3   OH273324   2.825   6.598  15.893 -0.2096  0.1521  0.0619
17278TIP3    H173325   2.764   6.670  15.878 -0.9482 -0.7846 -1.7521
17278TIP3    H273326   2.841   6.562  15.806  1.0639 -1.1408  0.7913
17279TIP3   OH273327   1.930   5.317  12.451 -0.0980 -0.6993 -0.1566
17279TIP3    H173328   2.013   5.349  12.487 -0.3185  1.8873 -1.7448
17279TIP3    H273329   1.939   5.221  12.455  1.9064 -0.5344  1.9580
17280TIP3   OH273330   2.702   6.379   4.038 -0.0799 -0.0679 -0.1736
17280TIP3    H173331   2.691   6.451   3.975 -0.6722 -0.5703 -0.6596
17280TIP3    H273332   2.794   6.355   4.030  0.0167  0.3411 -0.3353
17281TIP3   OH273333   2.030   1.690   1.079  0.7624  0.5636 -0.0747
17281TIP3    H173334   1.947   1.738   1.072 -0.0111 -0.5470  0.9735
17281TIP3    H273335   2.004   1.601   1.105  2.1825 -0.3255 -1.5414
17282TIP3   OH273336   3.626   4.529  16.122 -0.3149 -0.3464  0.3310
17282TIP3    H173337   3.534   4.552  16.123 -0.1349  0.3819  1.0229
17282TIP3    H273338   3.662   4.574  16.045 -0.5578 -0.7491 -0.0209
17283TIP3   OH273339   0.701   4.916  14.305  0.3212  0.2527 -0.1375
17283TIP3    H173340   0.674   4.853  14.371  1.7098  0.2564  0.4600
17283TIP3    H273341   0.708   4.865  14.224 -1.1959  0.2110 -0.2780
17284TIP3   OH273342   2.405   1.433  15.376  0.0876  0.0295 -0.0024
17284TIP3    H173343   2.316   1.450  15.343 -0.3049  0.2326  1.0821
17284TIP3    H273344   2.462   1.488  15.322 -0.6023  0.8636  0.0844
17285TIP3   OH273345   1.607   4.248   1.088  0.1029 -0.1890 -0.4047
17285TIP3    H173346   1.663   4.286   1.156 -1.0766  0.4427  0.2292
17285TIP3    H273347   1.669   4.213   1.023  1.2568 -0.9559  1.0570
17286TIP3   OH273348   2.601   6.400   0.476  0.1996  0.0228  0.0398
17286TIP3    H173349   2.687   6.361   0.466  0.1410 -0.1862  0.3410
17286TIP3    H273350   2.617   6.495   0.474  0.4846 -0.0127  0.5047
17287TIP3   OH273351   6.155   2.139   4.557  0.4928  0.2996 -0.3637
17287TIP3    H173352   6.099   2.068   4.526  0.7839 -0.1277  0.0753
17287TIP3    H273353   6.177   2.114   4.647 -0.4180  1.5662  0.2338
17288TIP3   OH273354   6.279   0.331   3.056 -0.3279 -0.0170 -0.2891
17288TIP3    H173355   6.361   0.352   3.013  0.2457 -0.6740  0.4567
17288TIP3    H273356   6.301   0.261   3.117 -1.1436  0.7955  0.9745
17289TIP3   OH273357   0.683   3.163   5.100  0.4327 -0.4353  0.1865
17289TIP3    H173358   0.709   3.214   5.024 -0.2244 -1.6941 -0.9420
17289TIP3    H273359   0.632   3.223   5.153  2.8228  1.1390  0.8533
17290TIP3   OH273360   0.298   6.566   4.586  0.1774 -0.6279 -0.8942
17290TIP3    H173361   0.249   6.640   4.552 -0.1787  0.3221  1.5172
17290TIP3    H273362   0.384   6.602   4.609  0.1026 -1.0178  0.0321
17291TIP3   OH273363   2.273   2.423   4.227  0.5515  0.3690 -0.9236
17291TIP3    H173364   2.178   2.421   4.239  0.7455 -0.9153  0.7526
17291TIP3    H273365   2.305   2.480   4.297  1.0892 -0.0904 -0.7870
17292TIP3   OH273366   4.917   2.412   1.904 -0.2871  0.1429  0.7507
17292TIP3    H173367   4.921   2.434   1.811 -1.5309  1.5027  0.9901
17292TIP3    H273368   4.979   2.339   1.913 -0.7911 -0.6230 -1.2951
17293TIP3   OH273369   2.787   4.516  15.344 -0.2248 -0.1368  0.2094
17293TIP3    H173370   2.710   4.458  15.345 -0.6028  0.3490 -0.2812
17293TIP3    H273371   2.834   4.494  15.424 -1.5001  0.3958  1.1327
17294TIP3   OH273372   3.199   5.632   4.346  0.0662 -0.0973  0.0575
17294TIP3    H173373   3.246   5.714   4.357  0.5760 -0.5330  1.2949
17294TIP3    H273374   3.208   5.610   4.253  1.8557  0.1010  0.1645
17295TIP3   OH273375   4.344   2.389   0.473  0.4623  0.2407 -0.0958
17295TIP3    H173376   4.357   2.349   0.387 -0.3997  0.3216 -0.2642
17295TIP3    H273377   4.394   2.471   0.468 -0.6231  0.8673 -0.9728
17296TIP3   OH273378   1.268   2.534  15.664  0.5554  0.8803 -0.3358
17296TIP3    H173379   1.309   2.610  15.706  0.9823  1.0796 -1.1054
17296TIP3    H273380   1.222   2.570  15.588 -1.3838  0.7167  0.6752
17297TIP3   OH273381   6.563   0.473  14.296  0.2275 -0.5093 -0.4445
17297TIP3    H173382   6.507   0.440  14.226 -0.1416 -1.6754  0.3724
17297TIP3    H273383   6.543   0.417  14.372  0.1531  1.1044  0.7930
17298TIP3   OH273384   2.263   1.470   2.001  0.5425 -0.2642 -0.1478
17298TIP3    H173385   2.228   1.455   1.914 -3.2074  1.0807  0.9648
17298TIP3    H273386   2.254   1.386   2.046  2.5955 -0.9938 -0.9519
17299TIP3   OH273387   0.561   1.008  14.097 -0.1311 -0.4314  0.1707
17299TIP3    H173388   0.503   1.042  14.029  0.1813 -0.4695 -0.1187
17299TIP3    H273389   0.502   0.976  14.165 -0.4319  0.5497  0.3792
17300TIP3   OH273390   6.739   0.718  15.175 -0.1393  0.0251 -0.6102
17300TIP3    H173391   6.779   0.672  15.101  1.5731 -1.7504  1.3071
17300TIP3    H273392   6.646   0.719  15.154  0.2346 -0.8556 -2.5697
17301TIP3   OH273393   4.801   6.479  13.662 -0.2440 -0.0871  0.0448
17301TIP3    H173394   4.823   6.487  13.569 -1.0025 -0.3504 -0.1617
17301TIP3    H273395   4.710   6.508  13.668 -0.7240 -1.5697  0.4295
17302TIP3   OH273396   4.605   1.571   4.727  0.5451  0.0863  0.5028
17302TIP3    H173397   4.635   1.654   4.692 -2.0822  1.1107  0.4709
17302TIP3    H273398   4.685   1.527   4.758  1.8735  3.2623  1.9735
17303TIP3   OH273399   1.603   1.183  16.585 -0.1434 -0.1403 -0.2151
17303TIP3    H173400   1.536   1.148  16.644 -0.6785  0.4198 -0.4706
17303TIP3    H273401   1.582   1.276  16.578 -0.7072 -0.3620 -2.0409
17304TIP3   OH273402   0.207   1.755   2.314 -0.2424  0.2300 -0.2033
17304TIP3    H173403   0.262   1.807   2.254  1.0007  0.1587  0.8283
17304TIP3    H273404   0.210   1.667   2.277  0.4010  0.2160 -0.1400
17305TIP3   OH273405   2.704   2.426  14.369  0.7531  0.3360 -0.2292
17305TIP3    H173406   2.617   2.392  14.389  1.5039 -1.3879  0.3031
17305TIP3    H273407   2.724   2.485  14.442  0.5893 -0.3647  0.3958
17306TIP3   OH273408   0.704   2.932   4.943 -0.1540  0.4443 -0.0022
17306TIP3    H173409   0.686   2.966   4.855  1.5893  0.3572 -0.4417
17306TIP3    H273410   0.722   3.010   4.996 -0.6652  0.4664  0.1379
17307TIP3   OH273411   6.467   6.325   2.836  0.2303 -0.2146  0.2748
17307TIP3    H173412   6.373   6.317   2.850  0.0410 -0.5368 -1.0849
17307TIP3    H273413   6.505   6.312   2.923 -0.8253 -2.9718  0.4409
17308TIP3   OH273414   1.747   2.686  16.513  0.3646  0.1426 -0.1320
17308TIP3    H173415   1.788   2.613  16.559  0.1691 -0.0101 -0.2004
17308TIP3    H273416   1.654   2.678  16.532  0.6108  2.1431  2.3658
17309TIP3   OH273417   4.067   1.838  15.129  0.0956 -0.2227  0.1492
17309TIP3    H173418   4.085   1.886  15.048 -1.8168  1.3204  0.5573
17309TIP3    H273419   4.003   1.772  15.103  0.4543 -0.5821  0.1697
17310TIP3   OH273420   4.968   4.109  13.529 -0.0287 -0.0754 -0.3051
17310TIP3    H173421   4.983   4.079  13.619  1.2252  2.4526  0.4098
17310TIP3    H273422   5.025   4.053  13.476  3.5166  1.8237  1.1572
17311TIP3   OH273423   2.922   2.181   0.802 -0.5363  0.0394  0.3586
17311TIP3    H173424   2.930   2.183   0.707  0.4454 -1.6327  0.3591
17311TIP3    H273425   2.980   2.251   0.833  0.9098 -0.8322 -0.2431
17312TIP3   OH273426   2.340   4.827  13.111 -0.2499 -0.0880  0.0329
17312TIP3    H173427   2.341   4.831  13.015 -0.4613  0.2439  0.0434
17312TIP3    H273428   2.418   4.875  13.138 -2.2348  3.4385  0.1246
17313TIP3   OH273429   5.173   4.605   3.499  0.6603  0.4511  0.3336
17313TIP3    H173430   5.220   4.687   3.483 -2.3200  2.3792  0.6472
17313TIP3    H273431   5.209   4.573   3.582  0.6198  2.4908  1.2108
17314TIP3   OH273432   3.399   3.074   2.161 -0.0937  0.3734  0.0069
17314TIP3    H173433   3.317   3.055   2.207 -0.5167 -0.3685 -1.0212
17314TIP3    H273434   3.374   3.078   2.068  1.0513  0.0413 -0.3307
17315TIP3   OH273435   0.127   6.104  14.054 -0.2609  0.1709 -0.3064
17315TIP3    H173436   0.195   6.159  14.014 -0.6578  1.2615  0.4696
17315TIP3    H273437   0.167   6.072  14.135 -0.1890 -0.3414 -0.5391
17316TIP3   OH273438   6.447   3.135  15.456 -0.5677 -0.2165 -0.0259
17316TIP3    H173439   6.393   3.058  15.474 -0.7914 -0.1023 -0.2053
17316TIP3    H273440   6.447   3.184  15.538 -0.3931 -0.4260  0.1010
17317TIP3   OH273441   1.573   1.832  13.648 -0.0609 -0.1047 -0.3608
17317TIP3    H173442   1.558   1.746  13.688  0.2220 -0.0787 -0.1961
17317TIP3    H273443   1.642   1.872  13.701 -0.4910  0.4031 -0.1770
17318TIP3   OH273444   1.322   2.318   3.399  0.0879  0.6462  0.0644
17318TIP3    H173445   1.372   2.360   3.469 -0.2423 -1.9029  1.9681
17318TIP3    H273446   1.234   2.307   3.435 -0.2100 -0.3649 -0.9217
17319TIP3   OH273447   3.332   5.988  15.137 -0.1722  0.1159  0.3059
17319TIP3    H173448   3.392   6.057  15.109  0.1928 -0.5884 -0.7269
17319TIP3    H273449   3.387   5.911  15.152 -0.8284 -0.7875 -1.4832
17320TIP3   OH273450   0.303   6.357  12.398 -0.5806 -0.0488 -0.7015
17320TIP3    H173451   0.340   6.374  12.312 -2.3260  0.5050 -1.3676
17320TIP3    H273452   0.374   6.313  12.446  0.9028  0.9182 -1.9174
17321TIP3   OH273453   3.396   0.193   3.691  0.0327  0.3236 -0.4144
17321TIP3    H173454   3.425   0.109   3.727 -3.0794 -0.4798  0.5527
17321TIP3    H273455   3.462   0.215   3.625  1.0618 -2.7900 -0.6023
17322TIP3   OH273456   3.057   5.561  13.609 -0.0306 -0.3324  0.5052
17322TIP3    H173457   2.966   5.582  13.587 -0.3636 -1.0996  1.1118
17322TIP3    H273458   3.107   5.637  13.578 -1.2395  1.6438  3.0539
17323TIP3   OH273459   2.427   0.865  14.228  0.2334 -0.1753 -0.3229
17323TIP3    H173460   2.441   0.785  14.175 -0.7559 -0.0528 -0.7993
17323TIP3    H273461   2.394   0.929  14.165 -0.3318  0.1785  0.3220
17324TIP3   OH273462   5.789   0.119   4.571  0.1231  0.3047  0.2645
17324TIP3    H173463   5.767   0.027   4.587 -0.7317  0.6872  1.4623
17324TIP3    H273464   5.805   0.155   4.658 -1.7437  1.7948  0.0571
17325TIP3   OH273465   1.157   1.600  14.942 -0.8033  0.6010  0.0932
17325TIP3    H173466   1.152   1.626  15.034 -0.2608 -0.7840  0.5357
17325TIP3    H273467   1.102   1.664  14.896 -1.8545  0.7600  1.4932
17326TIP3   OH273468   3.487   5.353   2.374  0.0076  0.3013 -0.1265
17326TIP3    H173469   3.563   5.338   2.430 -0.7565  0.4395  0.9872
17326TIP3    H273470   3.510   5.429   2.322  0.8403  0.0178 -0.1945
17327TIP3   OH273471   5.331   3.330   0.052 -0.3016  0.1477  0.6941
17327TIP3    H173472   5.267   3.291  -0.007  0.4659  1.0920 -0.8178
17327TIP3    H273473   5.414   3.287   0.031 -0.2682 -0.5466  2.1247
17328TIP3   OH273474   3.097   5.032  15.443  0.3417 -0.3846 -0.5490
17328TIP3    H173475   3.034   4.962  15.461 -0.5971  0.8737  1.3524
17328TIP3    H273476   3.182   4.996  15.469  0.2538 -1.6265 -1.8670
17329TIP3   OH273477   1.654   1.912   3.438  0.4446 -0.0475 -0.0880
17329TIP3    H173478   1.639   1.928   3.532  1.6407  2.6100 -0.2624
17329TIP3    H273479   1.749   1.904   3.430  0.3681 -0.0652 -1.1055
17330TIP3   OH273480   1.017   1.998  14.071  0.3754  0.0787 -0.8438
17330TIP3    H173481   1.067   2.062  14.021 -3.0216  3.8225  0.0443
17330TIP3    H273482   0.930   1.999  14.033 -0.2144 -3.2096  0.0638
17331TIP3   OH273483   3.677   1.251   0.854 -0.6031  0.2603 -1.0882
17331TIP3    H173484   3.631   1.316   0.907  2.3950  0.3617  1.7242
17331TIP3    H273485   3.643   1.167   0.884 -0.2040  0.3781 -0.2849
17332TIP3   OH273486   2.819   1.678   4.004  0.4740 -0.1139  0.0946
17332TIP3    H173487   2.790   1.627   3.928  1.4246 -1.4804  0.6105
17332TIP3    H273488   2.740   1.722   4.035 -0.5999 -1.9329  0.1114
17333TIP3   OH273489   4.903   3.156  16.373  0.4564  0.0949 -0.3846
17333TIP3    H173490   4.957   3.109  16.436  0.5143 -1.7327 -1.7013
17333TIP3    H273491   4.943   3.136  16.288 -1.2848  0.0654 -1.2471
17334TIP3   OH273492   1.329   3.037  12.709  0.2018  0.0747  0.0215
17334TIP3    H173493   1.266   3.035  12.781  0.4773 -0.2089  0.2528
17334TIP3    H273494   1.365   3.125  12.710  0.6696 -0.1168  0.6320
17335TIP3   OH273495   4.784   1.957  13.468 -0.2296 -0.6541 -0.1491
17335TIP3    H173496   4.868   1.926  13.436 -0.6496 -1.2929 -0.6635
17335TIP3    H273497   4.804   2.003  13.549  0.6090 -0.8207 -0.2565
17336TIP3   OH273498   4.600   6.050  16.988 -0.3368  0.2215 -0.1701
17336TIP3    H173499   4.606   5.960  16.955  0.9071  0.0622  0.4648
17336TIP3    H273500   4.613   6.043  17.082 -1.1708  0.9805  0.0250
17337TIP3   OH273501   2.643   2.764  16.654  0.0323  0.9133  0.7792
17337TIP3    H173502   2.557   2.805  16.646 -0.8894 -1.0887 -0.4295
17337TIP3    H273503   2.625   2.675  16.683  1.6517  0.3030  0.0540
17338TIP3   OH273504   0.354   1.346   0.634  0.5693  0.2769  0.3560
17338TIP3    H173505   0.358   1.277   0.568  0.5477  1.8346 -1.3371
17338TIP3    H273506   0.410   1.415   0.599 -2.3242  2.6717  0.1214
17339TIP3   OH273507   4.003   2.438   2.059 -0.0312  0.1035  0.8374
17339TIP3    H173508   3.980   2.373   2.125  0.4786 -1.5883 -0.5803
17339TIP3    H273509   3.939   2.425   1.989  0.8000  0.3060  0.0124
17340TIP3   OH273510   4.378   2.951   1.784  0.6587  0.1312  0.1019
17340TIP3    H173511   4.294   2.916   1.753  0.6419 -1.1952  1.5317
17340TIP3    H273512   4.399   2.898   1.860  0.4248  3.5316  2.7783
17341TIP3   OH273513   0.837   3.912   0.913 -0.2639  0.1972  0.2328
17341TIP3    H173514   0.859   3.819   0.914  0.3536  0.2969 -1.2876
17341TIP3    H273515   0.744   3.914   0.892 -0.3825 -0.0840  0.7142
17342TIP3   OH273516   6.531   2.070  15.684 -1.0249  0.7841  0.0276
17342TIP3    H173517   6.459   2.024  15.728 -0.2243 -1.0788 -0.5119
17342TIP3    H273518   6.546   2.020  15.604  1.4427  0.5463  0.5495
17343TIP3   OH273519   2.178   6.444  15.944  0.5851  0.1912  0.2004
17343TIP3    H173520   2.227   6.525  15.932  1.2783 -0.2510 -0.0140
17343TIP3    H273521   2.220   6.402  16.020  0.0452  0.1672  0.4913
17344TIP3   OH273522   2.865   5.615  16.870 -0.3607  0.0734 -0.2641
17344TIP3    H173523   2.774   5.588  16.878 -0.3729 -0.5185 -2.0288
17344TIP3    H273524   2.915   5.533  16.871  0.0386  0.3082 -0.5470
17345TIP3   OH273525   5.768   0.009   6.526  0.7203  0.2355 -0.1873
17345TIP3    H173526   5.803   0.088   6.568 -0.7499  0.2565  1.0832
17345TIP3    H273527   5.832  -0.059   6.546  2.3271  1.1770 -1.8178
17346TIP3   OH273528   3.996   1.621  14.594 -0.2023 -0.2888  0.5063
17346TIP3    H173529   4.078   1.597  14.637 -0.2918 -0.5539  0.5298
17346TIP3    H273530   3.955   1.683  14.655  1.2330  2.0041 -0.7280
17347TIP3   OH273531   6.688   6.840  13.468 -0.1032  0.1169  0.2491
17347TIP3    H173532   6.700   6.930  13.439  1.0157 -0.4846 -1.3043
17347TIP3    H273533   6.758   6.791  13.425 -1.5838 -1.7661 -0.1786
17348TIP3   OH273534   3.063   2.351   0.946 -0.0152 -0.6374  0.2737
17348TIP3    H173535   3.002   2.422   0.966 -1.6794 -1.5701 -1.1448
17348TIP3    H273536   3.146   2.394   0.929 -0.7161  0.8606  0.4952
17349TIP3   OH273537   6.256   6.375  14.738 -0.1313  0.3046 -0.1547
17349TIP3    H173538   6.317   6.302  14.735 -0.9246 -0.4734  1.3073
17349TIP3    H273539   6.288   6.430  14.810  0.5211  1.4738 -1.3159
17350TIP3   OH273540   6.279   2.665   6.079  0.1948  0.1183  0.5053
17350TIP3    H173541   6.304   2.658   6.171  0.7939  2.7512  0.6467
17350TIP3    H273542   6.210   2.731   6.078 -1.3711 -1.4426 -0.7504
17351TIP3   OH273543   6.796   2.543  11.272 -0.5135 -0.7143  0.0759
17351TIP3    H173544   6.755   2.572  11.190  2.9204  0.8401 -1.2957
17351TIP3    H273545   6.867   2.486  11.244  0.2186 -0.8545  2.0721
17352TIP3   OH273546   1.670   1.168  12.554 -0.4640  0.4814 -0.4029
17352TIP3    H173547   1.729   1.150  12.480  1.9285 -0.2955  1.5382
17352TIP3    H273548   1.661   1.264  12.555 -0.1645  0.5304 -1.4278
17353TIP3   OH273549   6.486   1.436  16.743  0.0695  0.5213 -0.3564
17353TIP3    H173550   6.540   1.421  16.820  0.1959 -1.2735 -0.7426
17353TIP3    H273551   6.432   1.357  16.735 -1.2131  1.4301 -1.0990
17354TIP3   OH273552   2.292   0.117   2.085 -0.0754 -0.2063 -0.3361
17354TIP3    H173553   2.289   0.184   2.154 -0.9266 -0.2664 -0.3004
17354TIP3    H273554   2.361   0.146   2.026 -0.1973  0.5164 -0.1318
17355TIP3   OH273555   3.595   4.136   4.559 -0.1009  0.0381  0.2517
17355TIP3    H173556   3.589   4.227   4.587  1.2042 -0.0186  0.7864
17355TIP3    H273557   3.506   4.102   4.569  0.1011  0.1378  4.0340
17356TIP3   OH273558   3.672   2.524   2.298  0.1962  0.5763 -0.3315
17356TIP3    H173559   3.656   2.505   2.206  0.5277  0.0980 -0.2915
17356TIP3    H273560   3.658   2.618   2.306 -1.1872  0.4087 -0.5863
17357TIP3   OH273561   5.245   2.406  15.658 -0.2742 -0.4098  0.0588
17357TIP3    H173562   5.259   2.312  15.673 -0.0850 -0.2060  1.2400
17357TIP3    H273563   5.310   2.449  15.714 -1.2047  0.4466  0.4967
17358TIP3   OH273564   4.721   4.287  15.477 -0.1409 -0.1511  0.5079
17358TIP3    H173565   4.708   4.200  15.440 -2.9839  0.3680  0.0853
17358TIP3    H273566   4.665   4.288  15.555 -0.5731  1.4613  0.2062
17359TIP3   OH273567   4.417   3.409   6.242 -0.7026  0.2120  0.0747
17359TIP3    H173568   4.354   3.470   6.203  0.0737  0.8086 -0.2671
17359TIP3    H273569   4.478   3.389   6.171 -1.6063 -1.9111 -0.1754
17360TIP3   OH273570   6.440   1.415   0.998 -0.2286 -0.7111  0.3547
17360TIP3    H173571   6.363   1.364   0.975  1.3915 -3.9624  1.5221
17360TIP3    H273572   6.421   1.449   1.085 -0.8359 -0.3424  0.0868
17361TIP3   OH273573   2.816   6.671   6.396  0.4821 -0.5279 -0.6926
17361TIP3    H173574   2.807   6.737   6.465 -2.2469  1.1808 -2.4793
17361TIP3    H273575   2.869   6.602   6.435 -0.4722  0.5724  2.9105
17362TIP3   OH273576   0.271   4.744  14.760 -0.2739 -0.0288 -0.1065
17362TIP3    H173577   0.356   4.707  14.736 -0.1791  1.2531 -1.9409
17362TIP3    H273578   0.207   4.686  14.718 -0.2806 -0.2409  0.1879
17363TIP3   OH273579   2.650   3.422  16.664 -0.1334  0.0336  0.1538
17363TIP3    H173580   2.612   3.494  16.714 -0.2375 -0.8885  1.4587
17363TIP3    H273581   2.733   3.403  16.709  0.2085 -0.2407 -0.5707
17364TIP3   OH273582   5.391   6.794  12.252 -0.2810 -0.1074 -0.0086
17364TIP3    H173583   5.373   6.801  12.346 -1.2538  0.3181 -0.2154
17364TIP3    H273584   5.311   6.757  12.215  0.6328 -1.7203 -0.4867
17365TIP3   OH273585   3.265   3.408  14.883  0.0756  0.4779 -0.4198
17365TIP3    H173586   3.262   3.368  14.970 -1.7062  0.3013 -0.5184
17365TIP3    H273587   3.316   3.348  14.830  1.8606  0.9725  0.6632
17366TIP3   OH273588   0.271   5.508   0.826  0.5665 -0.0770  0.3912
17366TIP3    H173589   0.303   5.432   0.874 -1.1903 -0.5078  0.9662
17366TIP3    H273590   0.226   5.471   0.750  1.6037  0.5153 -0.5435
17367TIP3   OH273591   1.847   6.645  16.621 -0.3911 -0.2521 -0.3748
17367TIP3    H173592   1.853   6.705  16.547 -0.9322 -1.5149 -1.4875
17367TIP3    H273593   1.773   6.587  16.599 -1.1970 -0.0428  1.6247
17368TIP3   OH273594   1.563   4.152  16.346 -0.2834  0.2827 -0.1038
17368TIP3    H173595   1.506   4.133  16.421  2.1984 -2.0801  1.3531
17368TIP3    H273596   1.599   4.239  16.365 -1.8586  0.9886 -0.1160
17369TIP3   OH273597   3.218   5.279  15.509 -0.2902  0.0090 -0.4565
17369TIP3    H173598   3.189   5.198  15.466 -0.4346 -0.1749 -0.0176
17369TIP3    H273599   3.228   5.341  15.437 -0.8443 -0.2033 -0.7299
17370TIP3   OH273600   6.181   2.720   1.977 -0.5241  0.4605  0.0744
17370TIP3    H173601   6.148   2.810   1.982 -0.5957  0.3942  0.8771
17370TIP3    H273602   6.276   2.730   1.969 -0.3848  0.6061  1.5644
17371TIP3   OH273603   1.576   2.630   1.748 -0.4496  0.6330  0.3483
17371TIP3    H173604   1.493   2.585   1.762 -0.7679  1.0913 -0.0363
17371TIP3    H273605   1.556   2.699   1.685  0.4985 -0.0791 -0.7788
17372TIP3   OH273606   5.819   3.850   3.279 -0.0792 -0.4992 -0.3566
17372TIP3    H173607   5.745   3.911   3.277 -0.4069 -0.8971 -0.4258
17372TIP3    H273608   5.779   3.763   3.269  0.3720 -0.7371 -0.1085
17373TIP3   OH273609   4.214   1.165  16.003 -0.2867 -0.1228 -0.3765
17373TIP3    H173610   4.259   1.096  15.954  0.1332 -0.2929  0.2492
17373TIP3    H273611   4.260   1.169  16.087  1.4304  2.7024 -1.3235
17374TIP3   OH273612   1.985   6.583   6.014  0.4825  0.7311 -0.2748
17374TIP3    H173613   1.912   6.542   6.061  0.5078  1.1751  0.1530
17374TIP3    H273614   2.002   6.664   6.062  2.8276 -0.4767  1.0987
17375TIP3   OH273615   6.533   4.130  15.118 -0.0839  0.7464  0.0105
17375TIP3    H173616   6.490   4.101  15.037  1.0191  1.2204 -0.7815
17375TIP3    H273617   6.516   4.060  15.181 -0.2467 -0.0557 -0.8981
17376TIP3   OH273618   1.751   5.840   5.331 -0.8015  0.8335 -0.2458
17376TIP3    H173619   1.820   5.845   5.397  0.4612 -2.6279 -1.0764
17376TIP3    H273620   1.686   5.903   5.360  1.2358  1.9468  2.3737
17377TIP3   OH273621   2.858   3.668   2.073  0.0242  0.2157 -0.3568
17377TIP3    H173622   2.789   3.683   2.008  0.6751  2.5612 -0.5969
17377TIP3    H273623   2.842   3.734   2.141  2.1663  1.0463 -0.5823
17378TIP3   OH273624   1.529   6.393   4.287 -0.5903 -0.4739  0.8824
17378TIP3    H173625   1.544   6.299   4.284 -2.0955 -0.7349  0.3666
17378TIP3    H273626   1.484   6.412   4.204 -1.9257  0.3555  1.7545
17379TIP3   OH273627   3.251   1.545   4.360 -1.1181 -0.4488 -0.8126
17379TIP3    H173628   3.298   1.467   4.386 -1.2878 -0.9440 -1.9025
17379TIP3    H273629   3.259   1.605   4.434  1.4942 -0.3726 -1.0933
17380TIP3   OH273630   3.824   1.397  12.604  0.3324 -0.6609  0.7280
17380TIP3    H173631   3.735   1.431  12.598  1.0225  1.0971 -0.1440
17380TIP3    H273632   3.845   1.401  12.697 -0.0435  0.1683  0.7840
17381TIP3   OH273633   3.441   4.705  14.065  0.1682  0.0213 -0.1436
17381TIP3    H173634   3.527   4.663  14.073  0.1822 -0.3123 -1.7770
17381TIP3    H273635   3.399   4.688  14.149  1.3916 -0.5036  0.3919
17382TIP3   OH273636   5.760   6.758   1.442  1.1512  0.4677  0.2577
17382TIP3    H173637   5.761   6.801   1.356 -1.4348  3.4787  1.5224
17382TIP3    H273638   5.687   6.800   1.489  0.4048 -3.2479  2.8761
17383TIP3   OH273639   4.699   5.493   1.192  0.0805 -0.1381  0.4430
17383TIP3    H173640   4.660   5.569   1.235  0.3820  1.0952 -1.3838
17383TIP3    H273641   4.633   5.424   1.200  0.4644 -0.2717  3.5784
17384TIP3   OH273642   4.132   3.954  10.363 -0.4199  0.1048  1.1215
17384TIP3    H173643   4.178   4.019  10.416  2.5844 -1.4104  0.5657
17384TIP3    H273644   4.179   3.872  10.379 -1.6997 -1.1657 -1.0928
17385TIP3   OH273645   4.024   1.800  15.396  0.9461 -0.2625  0.0851
17385TIP3    H173646   4.078   1.821  15.320  2.4633 -0.3675  1.0876
17385TIP3    H273647   4.001   1.708  15.385 -0.3576  0.1717 -1.1140
17386TIP3   OH273648   5.534   6.241  11.669  0.8394  0.2594  0.3220
17386TIP3    H173649   5.542   6.269  11.578  2.0880 -1.4008 -0.1344
17386TIP3    H273650   5.454   6.189  11.672 -0.2883  1.9181  0.6799
17387TIP3   OH273651   3.990   1.685  11.759 -0.2965 -0.1955  0.2443
17387TIP3    H173652   3.935   1.673  11.682 -1.1225  1.5234  0.5289
17387TIP3    H273653   4.062   1.740  11.729  0.9594 -1.8899  0.0374
17388TIP3   OH273654   2.801   2.914  12.658 -0.2416 -0.2538  0.0866
17388TIP3    H173655   2.773   2.886  12.571 -1.8590  0.5752  0.3094
17388TIP3    H273656   2.890   2.880  12.666  0.1674  0.1136 -2.1180
17389TIP3   OH273657   3.857   6.704   4.956 -0.3558 -0.0844 -0.1709
17389TIP3    H173658   3.798   6.726   5.029  0.9190  1.0017  0.5876
17389TIP3    H273659   3.886   6.615   4.975 -1.5728 -0.5615 -0.4514
17390TIP3   OH273660   3.672   3.460  12.913 -0.0882  0.1754  0.0830
17390TIP3    H173661   3.644   3.378  12.871 -0.8521  0.1389  0.6599
17390TIP3    H273662   3.591   3.502  12.941  0.3748  0.5540  0.8748
17391TIP3   OH273663   2.449   3.010  11.545  0.0483  0.1812 -0.0262
17391TIP3    H173664   2.361   2.974  11.554 -0.6500  1.2023 -2.2094
17391TIP3    H273665   2.507   2.934  11.548 -0.7877 -0.4562  2.0506
17392TIP3   OH273666   4.546   0.801   4.775 -0.3487 -0.3495 -0.1753
17392TIP3    H173667   4.576   0.888   4.802 -1.0950 -0.6293  1.7208
17392TIP3    H273668   4.529   0.810   4.682  1.4297  0.9929 -0.4289
17393TIP3   OH273669   6.296   3.401  15.114 -0.0214  0.3601 -0.5636
17393TIP3    H173670   6.318   3.459  15.041 -0.4150  2.4983  0.9045
17393TIP3    H273671   6.374   3.402  15.169 -0.0475 -0.5087 -0.5071
17394TIP3   OH273672   2.572   4.840   1.593 -0.1351  0.3141 -0.2761
17394TIP3    H173673   2.488   4.814   1.630 -0.7071  1.0179 -1.0523
17394TIP3    H273674   2.614   4.758   1.569 -0.0408 -0.1244  1.2570
17395TIP3   OH273675   4.843   2.402  11.159 -0.5451 -0.2179  0.2825
17395TIP3    H173676   4.804   2.339  11.097  0.0859  0.6150 -1.0146
17395TIP3    H273677   4.834   2.487  11.115  1.4298  0.1770  0.5713
17396TIP3   OH273678   6.777   1.765  15.328 -0.2883 -0.2132 -0.2072
17396TIP3    H173679   6.758   1.791  15.419 -1.8711 -1.4167 -0.1392
17396TIP3    H273680   6.743   1.676  15.322  2.9047 -1.5128 -1.0306
17397TIP3   OH273681   3.979   0.063  12.096  0.2368  0.3498  0.2068
17397TIP3    H173682   3.929  -0.014  12.069  1.2104 -0.3364  0.3231
17397TIP3    H273683   4.009   0.102  12.015 -1.8017  1.7066  0.0343
17398TIP3   OH273684   5.270   3.967  11.029  0.2040  0.3083 -0.3624
17398TIP3    H173685   5.195   3.930  11.077  1.3226 -0.2246  1.0480
17398TIP3    H273686   5.342   3.964  11.092  1.4098  0.8567 -1.6742
17399TIP3   OH273687   6.082   1.530   2.464  0.3586  0.4158 -0.4516
17399TIP3    H173688   6.066   1.477   2.386  2.6112  1.1579 -1.5275
17399TIP3    H273689   6.045   1.480   2.536  2.0399 -2.4560 -1.4447
17400TIP3   OH273690   6.400   2.265  15.477  0.4102  0.1689  1.0180
17400TIP3    H173691   6.421   2.173  15.461 -0.0035  0.0720  1.0306
17400TIP3    H273692   6.427   2.310  15.398 -0.5530 -0.1433  0.4918
17401TIP3   OH273693   2.341   0.210  16.232 -0.0312 -0.0162  0.0477
17401TIP3    H173694   2.259   0.260  16.223 -0.5827 -0.2597  2.7652
17401TIP3    H273695   2.395   0.240  16.160 -2.3174  0.5329 -1.5703
17402TIP3   OH273696   5.854   6.137   0.670  0.0124  0.3171 -0.1664
17402TIP3    H173697   5.871   6.044   0.658 -4.2423 -0.6759 -0.1655
17402TIP3    H273698   5.764   6.149   0.639 -0.6056  3.8832  2.3515
17403TIP3   OH273699   1.256   6.352   0.300  0.0728 -0.1743 -0.1444
17403TIP3    H173700   1.312   6.388   0.368 -0.3027  0.4539 -0.1598
17403TIP3    H273701   1.298   6.379   0.218 -0.2412  0.2952 -0.1559
17404TIP3   OH273702   2.290   4.600  10.367 -0.2760  0.0496 -0.0813
17404TIP3    H173703   2.197   4.586  10.352 -0.3579 -1.1381  1.3507
17404TIP3    H273704   2.328   4.513  10.372  0.4821  0.4258  1.7524
17405TIP3   OH273705   6.629   5.732  13.700  0.0169 -0.2549  0.1676
17405TIP3    H173706   6.703   5.699  13.750  0.2527  0.1038  0.0590
17405TIP3    H273707   6.662   5.740  13.610  0.0120  0.4312  0.2246
17406TIP3   OH273708   1.987   3.489   4.182  0.1643  0.0911 -0.7252
17406TIP3    H173709   1.960   3.400   4.162 -0.0153  0.2886 -1.4054
17406TIP3    H273710   2.041   3.515   4.107 -0.4251  0.8198 -0.9182
17407TIP3   OH273711   2.147   4.096  16.735 -0.6320 -0.4835  0.0331
17407TIP3    H173712   2.139   4.013  16.689 -1.3280  0.2054 -1.1594
17407TIP3    H273713   2.123   4.076  16.826 -1.2584 -1.4907 -0.3391
17408TIP3   OH273714   2.291   2.357   5.603 -0.1488 -0.3292  0.3047
17408TIP3    H173715   2.318   2.292   5.668  1.7676  0.4551  0.3554
17408TIP3    H273716   2.268   2.305   5.525  0.6619 -1.1158  0.5685
17409TIP3   OH273717   4.705   4.398  14.167 -0.0392  0.0379  0.2048
17409TIP3    H173718   4.736   4.315  14.203 -0.2459 -0.9212 -1.7083
17409TIP3    H273719   4.685   4.379  14.075 -1.8284  1.7573  0.1607
17410TIP3   OH273720   0.770   1.374  14.383  0.0925  0.0973  0.3526
17410TIP3    H173721   0.835   1.417  14.327  0.0343 -0.4930 -0.1906
17410TIP3    H273722   0.781   1.281  14.364  0.7079 -0.2033  2.0452
17411TIP3   OH273723   0.633   1.041   3.538 -0.5330 -0.2910  0.0188
17411TIP3    H173724   0.677   0.999   3.464 -1.0623  0.4996 -0.7582
17411TIP3    H273725   0.701   1.046   3.605 -0.3068 -1.8788 -0.0495
17412TIP3   OH273726   5.931   0.136  14.541  0.6829 -0.3850 -0.8006
17412TIP3    H173727   5.986   0.061  14.564 -0.4963 -1.6106 -1.8039
17412TIP3    H273728   5.897   0.114  14.454 -0.0935  1.0974 -0.8975
17413TIP3   OH273729   6.245   2.048   4.814  0.7187  0.7137  0.2953
17413TIP3    H173730   6.252   1.978   4.879 -0.0364 -1.6532 -2.0122
17413TIP3    H273731   6.326   2.042   4.763 -0.4684 -0.3987 -1.6008
17414TIP3   OH273732   5.574   6.632   1.845 -0.5337 -0.1303 -0.7060
17414TIP3    H173733   5.550   6.615   1.754 -0.1063  0.4500 -0.9258
17414TIP3    H273734   5.602   6.546   1.878 -2.2028 -0.7002 -0.6348
17415TIP3   OH273735   2.498   5.052  15.252 -0.0028 -0.0224  0.3875
17415TIP3    H173736   2.500   5.064  15.157  0.2232 -1.4033  0.1962
17415TIP3    H273737   2.435   5.118  15.283  0.0028  0.5209 -0.6986
17416TIP3   OH273738   3.870   0.928  15.066 -0.2870 -0.3384 -0.1821
17416TIP3    H173739   3.912   0.978  14.996  0.0915 -1.3643 -0.7011
17416TIP3    H273740   3.942   0.892  15.117 -0.5432  0.8660  1.1282
17417TIP3   OH273741   3.914   0.608   3.393  0.0990 -0.2708 -0.3179
17417TIP3    H173742   3.927   0.699   3.366  0.2386 -0.4690 -0.9272
17417TIP3    H273743   3.984   0.592   3.456  1.3780 -0.5825 -1.7711
17418TIP3   OH273744   6.806   2.166   4.903 -0.1510 -0.3954  0.2671
17418TIP3    H173745   6.811   2.228   4.976  1.4351 -0.8645  0.6057
17418TIP3    H273746   6.754   2.094   4.937  1.3030 -1.0109  1.2998
17419TIP3   OH273747   3.447   0.921  14.984 -0.6564  0.4425  0.3355
17419TIP3    H173748   3.428   0.996  14.928 -1.8756 -0.6245 -0.7617
17419TIP3    H273749   3.477   0.959  15.067  2.6832  2.1223 -1.4231
17420TIP3   OH273750   0.625   5.006  12.556 -0.2006  0.1788  0.3529
17420TIP3    H173751   0.677   4.964  12.488 -0.2996 -0.0170  0.3964
17420TIP3    H273752   0.676   4.993  12.637 -0.6224 -0.5837  0.5082
17421TIP3   OH273753   4.152   4.836   2.453  0.2699 -0.2861  0.4432
17421TIP3    H173754   4.182   4.925   2.434 -0.0108 -0.0221  1.2426
17421TIP3    H273755   4.131   4.800   2.367 -0.9014  0.8769  0.2201
17422TIP3   OH273756   6.459   4.098   2.941  0.7452  0.0049 -0.1710
17422TIP3    H173757   6.376   4.069   2.903  0.5870 -0.6486  0.6592
17422TIP3    H273758   6.526   4.064   2.880  0.5089 -1.2463  0.2377
17423TIP3   OH273759   5.862   0.923   5.758 -0.3168 -0.1824  0.3082
17423TIP3    H173760   5.830   0.833   5.744 -0.6982 -0.0412  0.2627
17423TIP3    H273761   5.950   0.923   5.721 -0.6563 -0.2902 -0.5194
17424TIP3   OH273762   5.374   5.864   3.975 -0.3983 -0.1130 -0.7881
17424TIP3    H173763   5.453   5.911   4.001  0.9112 -2.2397 -0.6840
17424TIP3    H273764   5.319   5.865   4.054 -0.2550  0.8911 -0.6853
17425TIP3   OH273765   2.779   3.589   1.719  0.2311 -0.3369  0.4488
17425TIP3    H173766   2.691   3.626   1.725  0.1397  0.0522 -2.1547
17425TIP3    H273767   2.789   3.538   1.800 -0.7280  2.9124  2.8021
17426TIP3   OH273768   4.342   1.909  14.424  0.8368 -0.1942 -0.1911
17426TIP3    H173769   4.296   1.840  14.375  0.9396 -0.3068 -0.1313
17426TIP3    H273770   4.389   1.959  14.358  1.3527 -0.6313 -0.1640
17427TIP3   OH273771   3.847   3.714   1.323 -0.0855 -0.5360  0.4322
17427TIP3    H173772   3.813   3.793   1.282  0.1350 -0.7547 -0.1749
17427TIP3    H273773   3.942   3.722   1.316  0.0473  0.1984  2.3487
17428TIP3   OH273774   2.012   4.486   3.563  0.0034  0.2612 -0.4601
17428TIP3    H173775   1.942   4.476   3.627  1.3058  0.5663  1.0674
17428TIP3    H273776   1.971   4.463   3.479 -2.6747  2.9345 -0.0736
17429TIP3   OH273777   4.532   2.981   2.818 -0.1021  0.2528  0.4121
17429TIP3    H173778   4.481   2.981   2.737 -0.4500 -0.7942  0.6207
17429TIP3    H273779   4.616   2.943   2.794 -0.7251 -1.4643  0.8340
17430TIP3   OH273780   3.084   2.686   2.775  0.3606 -0.0332  0.4873
17430TIP3    H173781   3.163   2.719   2.733  0.0666  1.2857  0.9077
17430TIP3    H273782   3.036   2.765   2.800 -1.3918 -0.7996 -0.3019
17431TIP3   OH273783   1.778   3.503  14.591 -0.9424 -0.1547  0.0994
17431TIP3    H173784   1.695   3.546  14.574 -1.0785 -0.1221  0.8276
17431TIP3    H273785   1.760   3.410  14.576 -0.8906 -0.0649 -0.5495
17432TIP3   OH273786   3.344   0.237   0.111 -0.3811  0.4009 -0.0169
17432TIP3    H173787   3.309   0.306   0.054  1.3919  0.8289 -0.6705
17432TIP3    H273788   3.376   0.284   0.188  0.4251  0.2824 -0.2682
17433TIP3   OH273789   1.855   3.415   1.414 -0.6797 -0.0980 -0.0821
17433TIP3    H173790   1.944   3.449   1.413 -0.8746  0.4615 -1.5936
17433TIP3    H273791   1.843   3.380   1.502  0.8868  0.1818  0.2692
17434TIP3   OH273792   5.408   4.027   3.498  0.1444  0.4424  0.2087
17434TIP3    H173793   5.445   3.985   3.576 -0.6065  0.0896  0.3828
17434TIP3    H273794   5.322   4.058   3.526 -0.1856  0.1959 -0.5197
17435TIP3   OH273795   0.914   1.282   2.989  0.0291 -0.6389 -0.2399
17435TIP3    H173796   0.892   1.366   2.949  1.4977 -1.4485 -3.0574
17435TIP3    H273797   0.885   1.290   3.080 -1.6154  2.1722 -0.8859
17436TIP3   OH273798   6.695   0.866  11.508  0.2519 -0.1520 -0.2893
17436TIP3    H173799   6.618   0.889  11.560  0.5017  1.1202 -0.4353
17436TIP3    H273800   6.760   0.838  11.573  0.4437  1.0844  0.0839
17437TIP3   OH273801   0.057   0.841   3.204  0.0234  0.0209 -0.2705
17437TIP3    H173802   0.111   0.857   3.126  0.0807  1.2646  0.0012
17437TIP3    H273803   0.030   0.750   3.196  1.8920 -0.5497 -0.5793
17438TIP3   OH273804   0.454   6.511  12.554  0.5325  0.2585  0.0285
17438TIP3    H173805   0.454   6.606  12.569 -1.7260  0.6097 -1.6170
17438TIP3    H273806   0.363   6.491  12.530  1.1312 -2.1992 -0.4584
17439TIP3   OH273807   0.425   0.481  11.987 -0.5587  0.1219  0.4629
17439TIP3    H173808   0.446   0.405  11.933  0.7695  0.6665  0.1990
17439TIP3    H273809   0.384   0.444  12.065 -1.6279 -0.7345 -0.4617
17440TIP3   OH273810   5.682   3.205   6.399 -0.0081 -0.0851  0.0168
17440TIP3    H173811   5.655   3.115   6.421  0.3421 -0.0573  0.5713
17440TIP3    H273812   5.638   3.259   6.465  0.3829  0.0804  0.1393
17441TIP3   OH273813   6.698   5.091  16.187 -0.3958 -1.1143 -0.1127
17441TIP3    H173814   6.726   5.001  16.205 -1.6690 -1.6364 -0.5897
17441TIP3    H273815   6.668   5.089  16.096  0.3053 -0.0024 -0.3804
17442TIP3   OH273816   6.278   1.703  13.680  0.4241  0.0999  0.0423
17442TIP3    H173817   6.210   1.689  13.746 -0.1748 -0.5955 -0.7086
17442TIP3    H273818   6.319   1.618  13.669  0.7219  0.2809 -0.2756
17443TIP3   OH273819   0.612   3.466   2.870 -0.5589 -0.7999  0.2096
17443TIP3    H173820   0.541   3.530   2.871  0.6773  0.7863 -2.0948
17443TIP3    H273821   0.569   3.384   2.846 -1.7758 -0.1012 -0.1396
17444TIP3   OH273822   0.838   5.550   1.932  1.0016  0.4425 -0.0845
17444TIP3    H173823   0.756   5.594   1.906  1.0115  0.2064 -0.5160
17444TIP3    H273824   0.884   5.616   1.985  0.6448  0.6640 -0.0435
17445TIP3   OH273825   0.781   2.236  11.966 -0.1796  0.2312  0.1853
17445TIP3    H173826   0.847   2.200  11.906  0.4391 -1.1406  1.5906
17445TIP3    H273827   0.721   2.285  11.910 -1.9394 -4.1159 -2.2449
17446TIP3   OH273828   4.665   6.534   2.007 -0.1412  0.1474 -0.6728
17446TIP3    H173829   4.597   6.601   2.013  0.8899  1.4273 -2.2434
17446TIP3    H273830   4.628   6.457   2.049 -0.9678  1.9943  2.2960
17447TIP3   OH273831   5.475   5.490   2.948  0.5013 -0.3804  0.2481
17447TIP3    H173832   5.420   5.412   2.953  1.8527 -1.3643  0.2965
17447TIP3    H273833   5.422   5.554   2.900 -0.6715 -1.2722  0.3097
17448TIP3   OH273834   5.281   1.264   5.127 -0.0349  0.2131 -0.0839
17448TIP3    H173835   5.257   1.348   5.087 -1.0719  0.2457  0.5685
17448TIP3    H273836   5.288   1.203   5.053  2.0291  1.1247 -0.7192
17449TIP3   OH273837   5.271   1.581  13.404 -0.0326  0.5991 -0.7378
17449TIP3    H173838   5.221   1.661  13.391  1.0217  1.9194  2.3819
17449TIP3    H273839   5.244   1.548  13.490  2.1527 -0.3361 -0.3270
17450TIP3   OH273840   6.147   1.202  15.399  0.1524 -0.1038 -0.4981
17450TIP3    H173841   6.100   1.222  15.319  0.2151  0.4946 -0.3925
17450TIP3    H273842   6.109   1.120  15.430 -1.3183  0.7349 -0.0267
17451TIP3   OH273843   6.830   1.498  11.963  0.6711  0.2846 -0.2772
17451TIP3    H173844   6.790   1.549  11.893 -0.0360  0.3263  0.1492
17451TIP3    H273845   6.906   1.456  11.922  0.8821  1.1524 -0.7989
17452TIP3   OH273846   0.740   1.454  16.886  1.0363  0.3391 -0.0770
17452TIP3    H173847   0.645   1.461  16.872  1.2139  1.0230 -0.9771
17452TIP3    H273848   0.779   1.503  16.815  2.1793 -2.5289 -1.5925
17453TIP3   OH273849   1.298   6.542   4.754 -0.4214  0.5796  0.2204
17453TIP3    H173850   1.343   6.542   4.670 -0.3146  1.8571  0.2619
17453TIP3    H273851   1.325   6.460   4.796  2.5511  1.6444  0.5967
17454TIP3   OH273852   2.120   3.717   0.767 -0.4542 -0.1578  0.4167
17454TIP3    H173853   2.105   3.770   0.689 -1.0852  0.4495  0.9343
17454TIP3    H273854   2.180   3.648   0.739  0.2071  0.6962 -0.3360
17455TIP3   OH273855   1.100   5.322  13.022  0.3864  0.2436 -0.4525
17455TIP3    H173856   1.098   5.254  13.088  1.7173  1.2761  0.7102
17455TIP3    H273857   1.010   5.357  13.020 -0.5831 -2.0910 -1.7665
17456TIP3   OH273858   5.023   0.491   1.224 -0.1214 -0.6244 -0.5521
17456TIP3    H173859   4.948   0.482   1.166 -1.1311  0.8396  0.4435
17456TIP3    H273860   5.073   0.565   1.189 -1.0208  0.6089  0.6789
17457TIP3   OH273861   3.170   0.647   4.217  0.1461 -0.3021  0.4998
17457TIP3    H173862   3.212   0.712   4.273  1.5702 -0.0499 -0.8152
17457TIP3    H273863   3.238   0.581   4.202 -0.6927 -1.1392  0.2695
17458TIP3   OH273864   5.556   3.199   1.525 -0.1410 -0.0545  0.2753
17458TIP3    H173865   5.627   3.212   1.462  0.8302 -1.7719  0.9439
17458TIP3    H273866   5.484   3.162   1.473 -0.4562  1.3838 -0.3466
17459TIP3   OH273867   3.871   5.366  14.444 -0.0851 -0.4659 -0.3650
17459TIP3    H173868   3.880   5.443  14.387  0.1609 -0.5822 -0.4856
17459TIP3    H273869   3.813   5.395  14.514  0.3162 -0.0451 -0.2002
17460TIP3   OH273870   5.553   3.167  17.008 -0.0255  0.2663  0.4530
17460TIP3    H173871   5.563   3.217  16.927 -0.6114 -0.0604  0.1676
17460TIP3    H273872   5.602   3.216  17.073  0.9380  0.2291 -0.2260
17461TIP3   OH273873   1.953   2.881   0.537 -0.4096 -0.1328  0.5415
17461TIP3    H173874   1.989   2.882   0.626 -0.0002 -0.3935  0.3804
17461TIP3    H273875   1.861   2.857   0.549 -0.5189  0.4630  0.9504
17462TIP3   OH273876   5.893   0.505   3.778  0.6246 -0.6433  0.1905
17462TIP3    H173877   5.851   0.565   3.840 -2.1048 -1.1565 -1.0369
17462TIP3    H273878   5.922   0.562   3.707  1.3488 -0.3929  0.6646
17463TIP3   OH273879   1.688   2.635   0.945  0.2884 -0.2214  0.6054
17463TIP3    H173880   1.668   2.544   0.965 -2.9215  0.4572  1.1283
17463TIP3    H273881   1.640   2.685   1.012 -0.9249  1.8837 -1.6808
17464TIP3   OH273882   3.261   4.918   3.047 -0.2548  0.1169  0.2094
17464TIP3    H173883   3.330   4.980   3.071  0.3114 -0.4855  0.1499
17464TIP3    H273884   3.181   4.955   3.086  0.2856  0.2394  1.2401
17465TIP3   OH273885   3.655   2.185  15.219  0.0021 -0.3136 -0.6685
17465TIP3    H173886   3.580   2.204  15.275  2.6215 -0.4870  3.3266
17465TIP3    H273887   3.648   2.091  15.199 -0.7105 -0.3666 -0.1689
17466TIP3   OH273888   2.566   0.671   1.855  0.3373  0.2281  0.0813
17466TIP3    H173889   2.611   0.755   1.862  0.9767 -0.2406  2.0118
17466TIP3    H273890   2.514   0.665   1.934 -1.6899 -0.1202 -1.2123
17467TIP3   OH273891   0.821   1.159  16.065 -0.3584  0.0639  0.9798
17467TIP3    H173892   0.879   1.151  15.990 -0.6183 -0.5459  0.8333
17467TIP3    H273893   0.779   1.245  16.054 -0.4728 -0.0639  0.3656
17468TIP3   OH273894   3.844   1.473   0.332  0.2706 -0.0111 -0.4857
17468TIP3    H173895   3.918   1.469   0.271  1.3987  1.8242  0.6433
17468TIP3    H273896   3.880   1.518   0.409 -1.9978  0.8286  0.1465
17469TIP3   OH273897   4.253   2.313  13.248 -0.1913  0.0871  0.2297
17469TIP3    H173898   4.207   2.261  13.314  0.5331 -0.2502  0.4836
17469TIP3    H273899   4.344   2.315  13.278 -0.3543  2.3040  0.7121
17470TIP3   OH273900   6.303   0.343   5.655 -0.4420  0.3336  0.1011
17470TIP3    H173901   6.397   0.326   5.662 -0.1034  1.2023 -1.8439
17470TIP3    H273902   6.273   0.346   5.746  1.6318  1.1387  0.8219
17471TIP3   OH273903   0.690   3.495   1.995 -0.5545 -0.4355  0.1237
17471TIP3    H173904   0.747   3.434   2.041 -0.7500 -0.2739  0.5834
17471TIP3    H273905   0.746   3.569   1.974  0.0315 -1.3235 -1.6263
17472TIP3   OH273906   0.542   3.222   4.526 -0.0680 -0.0500  0.4748
17472TIP3    H173907   0.633   3.193   4.512  0.4413  0.8125  1.8257
17472TIP3    H273908   0.509   3.166   4.596 -0.7660 -0.6775 -0.3292
17473TIP3   OH273909   3.070   1.951  14.031 -1.0881  0.2448  0.2309
17473TIP3    H173910   3.146   1.906  14.065  0.0243  0.9222 -1.2490
17473TIP3    H273911   3.065   1.924  13.939 -0.7687  2.5385 -0.5322
17474TIP3   OH273912   2.684   0.509  11.562 -0.1470 -1.2176 -0.1210
17474TIP3    H173913   2.774   0.483  11.581  0.4291 -0.5734 -1.8027
17474TIP3    H273914   2.682   0.521  11.467 -1.3355  1.3004  0.1588
17475TIP3   OH273915   5.909   4.149  13.457 -0.1041 -0.0184  0.4548
17475TIP3    H173916   5.892   4.139  13.551 -0.7168 -0.3247  0.3185
17475TIP3    H273917   5.822   4.157  13.418  0.0033 -2.0650 -0.3380
17476TIP3   OH273918   0.853   5.349  13.608  0.0686 -0.1951  0.1815
17476TIP3    H173919   0.817   5.336  13.520 -1.1279 -0.9141  0.7500
17476TIP3    H273920   0.936   5.393  13.593 -0.4561  0.3829 -1.2714
17477TIP3   OH273921   6.824   2.851  11.282  0.0388  0.1303 -0.5633
17477TIP3    H173922   6.888   2.783  11.304 -0.7883 -0.5356 -0.1633
17477TIP3    H273923   6.873   2.913  11.228  1.3522  0.2796  0.7318
17478TIP3   OH273924   4.774   3.239   4.741  0.6205 -0.5076 -0.4360
17478TIP3    H173925   4.800   3.191   4.663  1.6738 -1.8163  0.6678
17478TIP3    H273926   4.818   3.194   4.813  0.7442  1.4416  0.7902
17479TIP3   OH273927   6.429   1.422   2.411  0.2622 -0.5074 -0.1764
17479TIP3    H173928   6.451   1.486   2.343  0.1260 -2.9402 -2.6775
17479TIP3    H273929   6.356   1.462   2.458 -0.6075  0.7149 -2.4084
17480TIP3   OH273930   0.448   5.669  14.553  0.4056 -0.2519  0.0707
17480TIP3    H173931   0.434   5.643  14.644  0.2120  0.0684  0.1354
17480TIP3    H273932   0.463   5.587  14.506  0.7247 -0.3985  0.4288
17481TIP3   OH273933   6.022   3.783  14.261 -0.3631  0.0687 -0.9597
17481TIP3    H173934   6.106   3.737  14.257 -0.7344 -0.7296 -0.2066
17481TIP3    H273935   6.045   3.874  14.278  0.3590 -0.6623  2.9402
17482TIP3   OH273936   4.872   5.405  11.346  0.7512 -0.1117 -0.5290
17482TIP3    H173937   4.832   5.348  11.281 -0.7258 -1.4497  1.4117
17482TIP3    H273938   4.885   5.349  11.422  2.3645  1.3839  0.3680
17483TIP3   OH273939   1.958   4.823  13.041 -0.0746  0.5975  0.0976
17483TIP3    H173940   2.008   4.769  12.980  2.0365  0.3475  1.9475
17483TIP3    H273941   1.915   4.888  12.985  1.6909  0.3370 -1.6923
17484TIP3   OH273942   6.562   1.379   4.858  0.2771 -0.3626  0.2474
17484TIP3    H173943   6.514   1.384   4.941  0.9691 -1.4316  0.7394
17484TIP3    H273944   6.634   1.319   4.877  2.5127  2.0498 -0.1061
17485TIP3   OH273945   1.809   0.234  13.592  0.0461  0.6587  0.4622
17485TIP3    H173946   1.838   0.325  13.600 -1.3124  1.2169 -0.5018
17485TIP3    H273947   1.714   0.240  13.584  0.0233 -0.7343 -0.8596
17486TIP3   OH273948   1.639   5.949  11.044 -0.6256  0.4191 -0.3611
17486TIP3    H173949   1.644   6.015  11.113 -0.4986 -0.4364  0.4671
17486TIP3    H273950   1.678   5.992  10.967 -0.7473  1.3746  0.0903
17487TIP3   OH273951   3.995   2.454   6.489  0.4356  0.9152 -0.3142
17487TIP3    H173952   3.902   2.464   6.507  0.9345  3.6588  1.1805
17487TIP3    H273953   4.027   2.398   6.559  0.5165  3.0981  1.4825
17488TIP3   OH273954   4.455   4.096  14.818 -0.5221 -0.0923 -0.5420
17488TIP3    H173955   4.392   4.075  14.749 -1.0591  0.6179 -0.2729
17488TIP3    H273956   4.416   4.169  14.865 -0.1389 -0.5303  0.4849
17489TIP3   OH273957   1.304   6.709  16.966 -0.2979  0.1442 -0.1343
17489TIP3    H173958   1.374   6.725  16.903 -1.8947 -0.9057 -2.2900
17489TIP3    H273959   1.243   6.651  16.920 -0.7791 -2.0447  2.9279
17490TIP3   OH273960   4.321   1.008  15.732 -0.2752  0.0968 -0.9532
17490TIP3    H173961   4.355   1.017  15.643  0.3363  0.1717 -0.7198
17490TIP3    H273962   4.367   0.931  15.767 -2.2654 -1.4251 -1.4869
17491TIP3   OH273963   1.538   2.028  11.546  0.3818 -0.6413  0.3852
17491TIP3    H173964   1.486   2.079  11.484 -0.3027 -0.7193  0.8810
17491TIP3    H273965   1.547   1.942  11.505  0.8452 -0.3716 -0.0858
17492TIP3   OH273966   5.900   3.632  14.630  0.0120 -0.0437 -0.0653
17492TIP3    H173967   5.885   3.630  14.725 -0.4838 -1.7268 -0.1376
17492TIP3    H273968   5.972   3.693  14.618  0.2283  0.0329  1.4274
17493TIP3   OH273969   3.091   0.858   2.725 -0.2336  0.1132 -0.4247
17493TIP3    H173970   3.047   0.917   2.787  0.8721  1.4866 -0.8796
17493TIP3    H273971   3.181   0.854   2.757  0.6080  1.6257 -2.4005
17494TIP3   OH273972   0.194   3.088   1.676  0.4071  0.3490 -0.2262
17494TIP3    H173973   0.119   3.028   1.673  0.4218  0.3715 -1.6931
17494TIP3    H273974   0.258   3.043   1.731 -1.0346  0.8033  1.9956
17495TIP3   OH273975   1.621   5.843  13.183 -0.2158 -0.1091 -0.3102
17495TIP3    H173976   1.646   5.860  13.274 -0.5943  1.5739 -0.4914
17495TIP3    H273977   1.702   5.811  13.142 -0.0105 -0.7725  0.5737
17496TIP3   OH273978   1.920   5.056  12.417 -0.1742  0.3784 -0.3373
17496TIP3    H173979   1.864   4.978  12.425  2.2331 -1.4923 -0.7121
17496TIP3    H273980   1.954   5.053  12.328  0.9370  1.1622  0.0375
17497TIP3   OH273981   6.507   0.557  15.987 -0.0488  0.2623 -0.2455
17497TIP3    H173982   6.486   0.481  16.041 -1.0104  0.9586  0.4181
17497TIP3    H273983   6.568   0.608  16.040  0.2901  0.1421 -0.5215
17498TIP3   OH273984   2.769   5.414   4.316  0.2905  0.6771  0.2242
17498TIP3    H173985   2.762   5.382   4.406  2.5754 -0.5990  0.0397
17498TIP3    H273986   2.681   5.444   4.294 -0.3108  1.1405  2.9033
17499TIP3   OH273987   4.752   3.370  13.570  0.5333  0.4005 -0.2860
17499TIP3    H173988   4.678   3.344  13.515  0.3487  1.5400 -0.6079
17499TIP3    H273989   4.827   3.322  13.534  0.0137 -0.5659 -0.1178
17500TIP3   OH273990   1.328   2.384  15.887 -0.1589  0.0762  0.1657
17500TIP3    H173991   1.293   2.443  15.820 -0.7428  0.8225  1.0961
17500TIP3    H273992   1.393   2.437  15.933  0.0642 -0.3501  0.3451
17501TIP3   OH273993   4.362   4.659  10.853  0.0924 -0.0656  0.4102
17501TIP3    H173994   4.282   4.613  10.878 -0.4255  1.1577  1.1267
17501TIP3    H273995   4.350   4.682  10.761  0.9464 -2.4724 -0.3670
17502TIP3   OH273996   5.625   1.918  11.409 -0.0049  0.0190  0.2406
17502TIP3    H173997   5.594   2.002  11.443 -0.4249 -0.4105  0.9363
17502TIP3    H273998   5.591   1.914  11.320  0.9386  1.0716 -0.1901
17503TIP3   OH273999   6.046   4.995   5.444  0.6317 -0.2423  0.3939
17503TIP3    H174000   6.083   4.974   5.529  0.6943  1.7032  0.8917
17503TIP3    H274001   5.998   5.077   5.458  0.1058 -0.2190 -1.2996
17504TIP3   OH274002   3.483   3.455  16.454 -0.2777 -0.1300 -0.7447
17504TIP3    H174003   3.422   3.390  16.490  0.5411 -1.2543 -1.3067
17504TIP3    H274004   3.540   3.478  16.528 -0.7718  0.1896 -0.4637
17505TIP3   OH274005   3.438   6.838  15.686  0.0420  0.7085 -0.5286
17505TIP3    H174006   3.366   6.820  15.625 -1.2717  0.3875  1.0277
17505TIP3    H274007   3.403   6.905  15.745  0.1271 -1.0412  1.6444
17506TIP3   OH274008   2.629   1.698   3.082 -0.6141 -0.5701 -0.2635
17506TIP3    H174009   2.574   1.638   3.032 -1.0107 -0.0934 -0.4093
17506TIP3    H274010   2.568   1.763   3.116  0.0353  0.8047 -1.6243
17507TIP3   OH274011   3.372   0.163   4.880  0.9396 -0.0267 -0.3075
17507TIP3    H174012   3.423   0.134   4.956  1.7621  1.2384 -0.3480
17507TIP3    H274013   3.316   0.088   4.859  2.7079 -1.4372 -0.1956
17508TIP3   OH274014   2.972   3.249   4.995  0.3629 -0.1847 -0.3363
17508TIP3    H174015   2.969   3.277   5.086 -1.8058 -1.5886  0.0847
17508TIP3    H274016   2.931   3.320   4.946 -1.5404 -0.8132  0.2489
17509TIP3   OH274017   5.076   2.595  16.986  0.8348 -0.0244 -0.1549
17509TIP3    H174018   4.981   2.604  16.977  0.8941 -0.2450 -1.1906
17509TIP3    H274019   5.098   2.650  17.061  0.0122  0.8037 -0.4917
17510TIP3   OH274020   6.154   3.219  15.723  0.2920  0.1430 -0.4505
17510TIP3    H174021   6.069   3.244  15.758  0.1831 -0.2395 -0.4422
17510TIP3    H274022   6.178   3.139  15.771  0.0982 -0.4455 -1.3107
17511TIP3   OH274023   3.173   1.957  15.938 -0.1995 -0.3434 -0.5010
17511TIP3    H174024   3.205   1.910  16.015  1.0907 -1.0400 -1.4217
17511TIP3    H274025   3.117   1.894  15.893 -2.3789  0.6295  0.7127
17512TIP3   OH274026   4.059   5.584  15.733  0.1913  0.2995  0.0652
17512TIP3    H174027   4.103   5.502  15.751 -0.3587 -0.0871 -0.2987
17512TIP3    H274028   4.124   5.652  15.753  0.5640 -0.2093  0.6020
17513TIP3   OH274029   1.552   3.669  12.747  0.1260 -0.2895 -0.0785
17513TIP3    H174030   1.495   3.696  12.675  1.3298  2.2789 -0.1752
17513TIP3    H274031   1.613   3.607  12.706 -2.0828 -2.5863 -0.1007
17514TIP3   OH274032   2.791   2.733  10.254 -0.5353  0.2421  0.2449
17514TIP3    H174033   2.716   2.676  10.239 -0.2974 -0.0179  0.0291
17514TIP3    H274034   2.759   2.800  10.314 -0.2256 -1.4319  2.4157
17515TIP3   OH274035   4.596   0.848  14.348  0.4890  0.5579 -0.0076
17515TIP3    H174036   4.576   0.889  14.264 -0.7367  0.6935  0.3360
17515TIP3    H274037   4.520   0.865  14.402  1.3905  0.7278  1.2474
17516TIP3   OH274038   3.358   4.440   3.175 -0.2361  0.2156 -0.4269
17516TIP3    H174039   3.332   4.447   3.267 -0.2267  0.0082 -0.4083
17516TIP3    H274040   3.319   4.516   3.133 -0.2168  0.3258 -0.2446
17517TIP3   OH274041   3.764   6.269  15.005  0.1518 -0.1869  0.1535
17517TIP3    H174042   3.676   6.234  15.015  0.3704 -1.9935 -3.0014
17517TIP3    H274043   3.820   6.192  14.999  1.7017  0.8935  0.0942
17518TIP3   OH274044   6.503   1.804   1.414  0.1553 -0.1435 -0.7853
17518TIP3    H174045   6.591   1.784   1.445  0.0793 -2.1543 -1.6987
17518TIP3    H274046   6.504   1.778   1.322 -1.0645  0.9488 -1.1356
17519TIP3   OH274047   2.711   3.990  13.968  0.5013  0.1724  0.1840
17519TIP3    H174048   2.767   4.055  14.011 -1.7538  2.4103 -0.0190
17519TIP3    H274049   2.676   4.037  13.892 -2.1713 -0.8511  0.6957
17520TIP3   OH274050   1.687   1.913   0.845 -0.1834 -0.8734 -0.0253
17520TIP3    H174051   1.697   1.875   0.933 -1.4327 -1.4058 -0.0864
17520TIP3    H274052   1.762   1.972   0.836  0.0580 -0.9226  1.3370
17521TIP3   OH274053   2.438   5.399   3.181 -0.1477 -0.3479  0.0485
17521TIP3    H174054   2.478   5.371   3.099  0.6386  1.2382 -0.1591
17521TIP3    H274055   2.349   5.366   3.177 -0.2483  0.0363 -1.6394
17522TIP3   OH274056   1.577   2.617  10.726 -0.1600 -0.1616 -0.0710
17522TIP3    H174057   1.620   2.594  10.644 -0.1479  0.6455 -0.3003
17522TIP3    H274058   1.649   2.629  10.788 -0.0532  0.9004 -0.3817
17523TIP3   OH274059   5.303   4.866   2.764  0.2051  0.1357  0.4197
17523TIP3    H174060   5.268   4.882   2.852  0.3989  1.7860  0.2281
17523TIP3    H274061   5.364   4.938   2.749 -2.1505  1.7516 -2.2912
17524TIP3   OH274062   0.536   6.173  13.531 -0.4916  0.2258 -0.5151
17524TIP3    H174063   0.564   6.124  13.454 -2.6710  1.0743 -1.9523
17524TIP3    H274064   0.466   6.120  13.569 -1.1304  0.9737 -0.6100
17525TIP3   OH274065   1.912   3.314   5.830  0.1088 -0.1364  0.4221
17525TIP3    H174066   1.885   3.223   5.816 -0.8980  0.3866 -1.2634
17525TIP3    H274067   1.945   3.315   5.920 -1.0947 -1.8651  0.9352
17526TIP3   OH274068   5.517   5.491   3.440  0.0836  0.5570 -0.7148
17526TIP3    H174069   5.546   5.565   3.493  1.1558  0.3005 -0.9326
17526TIP3    H274070   5.480   5.531   3.361 -1.9014  0.9584  0.3543
17527TIP3   OH274071   1.249   0.889  15.878  0.0655 -0.0318 -0.3935
17527TIP3    H174072   1.272   0.960  15.938 -0.4560  1.0780 -1.4630
17527TIP3    H274073   1.222   0.934  15.798 -2.0441 -1.3784 -0.5052
17528TIP3   OH274074   2.898   3.126  10.693 -0.2773 -0.1732 -0.2373
17528TIP3    H174075   2.896   3.156  10.602 -0.6518  1.4311  0.2601
17528TIP3    H274076   2.989   3.135  10.720 -0.7573  3.4902  0.7476
17529TIP3   OH274077   4.898   6.059  10.834 -0.1621 -0.4574  0.8004
17529TIP3    H174078   4.940   6.007  10.766 -1.0363 -0.1494  0.0123
17529TIP3    H274079   4.957   6.134  10.846 -0.4064 -0.0971 -0.2019
17530TIP3   OH274080   3.247   4.002   1.719 -0.0858  0.0144 -0.1519
17530TIP3    H174081   3.275   4.084   1.679  2.2128 -0.6599 -0.0431
17530TIP3    H274082   3.153   3.996   1.698 -0.6289  3.2072  0.8811
17531TIP3   OH274083   2.401   4.450  13.528  0.1291  0.0770  0.5406
17531TIP3    H174084   2.477   4.392  13.518 -0.7706 -0.9826 -0.5085
17531TIP3    H274085   2.336   4.396  13.573 -0.8133  0.1548 -0.6777
17532TIP3   OH274086   3.322   0.196  11.187  0.2468 -0.0952 -0.5323
17532TIP3    H174087   3.409   0.235  11.193  0.5183 -0.1423 -3.1398
17532TIP3    H274088   3.327   0.137  11.111 -2.4790  1.1007 -1.7634
17533TIP3   OH274089   5.881   3.563   6.509  0.2012  0.6572  0.3404
17533TIP3    H174090   5.802   3.592   6.465 -0.2984 -0.8849  0.1801
17533TIP3    H274091   5.853   3.545   6.599  0.0171 -1.2656 -0.0721
17534TIP3   OH274092   3.011   2.433  11.576 -0.2682 -0.0547  0.0395
17534TIP3    H174093   2.968   2.404  11.495 -0.8449 -1.3899  0.7801
17534TIP3    H274094   3.044   2.352  11.615 -0.3473  0.5149  1.3373
17535TIP3   OH274095   2.527   1.664  15.639 -0.1714 -0.2063 -0.2491
17535TIP3    H174096   2.519   1.725  15.712 -0.0331  0.7009 -0.9693
17535TIP3    H274097   2.442   1.668  15.595  0.1115  0.1207 -0.7818
17536TIP3   OH274098   2.371   2.461  13.396  0.5409 -0.0946  0.5284
17536TIP3    H174099   2.402   2.501  13.477  0.6432  1.3041 -0.1733
17536TIP3    H274100   2.437   2.484  13.331 -0.9132  1.2844 -0.5645
17537TIP3   OH274101   3.061   1.712  16.927 -0.3186 -0.4811 -0.5255
17537TIP3    H174102   3.006   1.701  16.850 -1.1498 -1.9254  0.2251
17537TIP3    H274103   3.017   1.778  16.980  0.9968  1.5767 -1.8784
17538TIP3   OH274104   1.335   0.802   2.376 -0.0848  0.0465 -0.0794
17538TIP3    H174105   1.353   0.792   2.283  2.4115  0.0495  0.3345
17538TIP3    H274106   1.329   0.897   2.389  1.3927  0.1464  0.0210
17539TIP3   OH274107   6.113   3.531  16.392 -0.3098 -0.3293  0.1499
17539TIP3    H174108   6.209   3.527  16.383 -0.2731  1.0343 -0.2678
17539TIP3    H274109   6.098   3.608  16.447 -1.1441 -1.0526  0.9671
17540TIP3   OH274110   5.577   1.123   0.357 -0.0848  0.3737 -0.3902
17540TIP3    H174111   5.521   1.050   0.331  0.4437 -0.1438 -0.1044
17540TIP3    H274112   5.593   1.172   0.276 -0.0644 -0.0973 -0.6728
17541TIP3   OH274113   2.272   2.950   0.535 -0.0817  0.2231 -0.5918
17541TIP3    H174114   2.180   2.948   0.563 -0.5775  2.5852 -1.7637
17541TIP3    H274115   2.312   3.016   0.592  0.6076  0.0472 -0.8692
17542TIP3   OH274116   3.043   2.538  12.881  0.5684  0.0044  0.1308
17542TIP3    H174117   2.983   2.521  12.809 -0.4002 -0.3003  0.9997
17542TIP3    H274118   3.020   2.627  12.910 -0.3017 -0.5746  1.2514
17543TIP3   OH274119   1.248   1.287  16.568 -0.7241 -0.2977 -0.0239
17543TIP3    H174120   1.229   1.348  16.640 -0.3391 -0.9295  0.6301
17543TIP3    H274121   1.325   1.324  16.525 -2.3826  1.4284 -1.7024
17544TIP3   OH274122   4.128   4.139  11.181  0.1228 -0.8862 -0.1507
17544TIP3    H174123   4.107   4.231  11.171  0.3703 -0.5296  2.0335
17544TIP3    H274124   4.081   4.095  11.111  0.1648  0.9092 -1.3558
17545TIP3   OH274125   0.459   2.358   1.291  0.6699 -1.3743  0.2692
17545TIP3    H174126   0.403   2.413   1.235  2.2764  1.7045  1.4889
17545TIP3    H274127   0.397   2.312   1.348 -0.8718  2.8786  2.4850
17546TIP3   OH274128   6.747   6.330  16.615 -0.2765 -0.2464 -0.4345
17546TIP3    H174129   6.796   6.372  16.544  0.6195  2.0638  1.4382
17546TIP3    H274130   6.656   6.335  16.586 -0.1128  2.2388 -0.7448
17547TIP3   OH274131   4.731   6.774  15.783  0.1090  0.0037 -0.0909
17547TIP3    H174132   4.649   6.733  15.812  0.2518  0.4772  0.9872
17547TIP3    H274133   4.703   6.840  15.719 -0.6081  1.9111  2.0890
17548TIP3   OH274134   1.857   1.622  16.968 -0.5979 -0.0801 -0.1876
17548TIP3    H174135   1.856   1.710  17.007 -1.9184 -0.4244  0.6413
17548TIP3    H274136   1.868   1.563  17.043  0.1584 -0.6313 -0.7210
17549TIP3   OH274137   0.813   5.111   3.151  0.5186 -0.1246  0.0302
17549TIP3    H174138   0.810   5.109   3.056 -0.5490 -1.0933  0.0552
17549TIP3    H274139   0.756   5.039   3.178  0.4930  0.3800  1.4024
17550TIP3   OH274140   6.251   1.884  11.461 -0.1531  0.0935 -0.2540
17550TIP3    H174141   6.165   1.850  11.485  0.1160 -0.4246 -0.0115
17550TIP3    H274142   6.252   1.881  11.366 -0.4267  0.1611 -0.2607
17551TIP3   OH274143   6.809   2.195   2.800  0.1905 -0.1816 -0.7464
17551TIP3    H174144   6.753   2.225   2.872 -1.7649 -2.2500 -1.2866
17551TIP3    H274145   6.811   2.100   2.810  1.9334 -0.3217 -2.0070
17552TIP3   OH274146   2.000   2.071   4.301  0.3407 -0.1251 -0.2789
17552TIP3    H174147   2.086   2.068   4.342  0.1358  0.6710  0.2234
17552TIP3    H274148   1.970   1.979   4.300  0.5869 -0.2255  0.8313
17553TIP3   OH274149   5.292   1.012   4.986 -0.3049  0.1586 -0.1532
17553TIP3    H174150   5.358   1.010   5.055 -0.5121 -0.3937  0.0311
17553TIP3    H274151   5.281   0.920   4.960 -2.0881  0.0493  0.8486
17554TIP3   OH274152   1.207   4.597  11.591 -0.3757 -0.2454  0.0886
17554TIP3    H174153   1.147   4.544  11.644 -0.9921  0.3635  0.0166
17554TIP3    H274154   1.168   4.599  11.504  0.3165 -0.7333 -0.2351
17555TIP3   OH274155   5.046   0.050   6.355  0.0427 -0.0088 -0.1440
17555TIP3    H174156   5.026  -0.040   6.377 -1.0418  0.1662 -0.3554
17555TIP3    H274157   5.138   0.062   6.381  0.6030 -1.5213 -1.2495
17556TIP3   OH274158   3.525   1.118  12.856 -0.1868 -0.2442  0.1231
17556TIP3    H174159   3.448   1.102  12.911 -0.2624 -0.5467 -0.0651
17556TIP3    H274160   3.497   1.186  12.794 -0.2851 -0.3077  0.0964
17557TIP3   OH274161   3.737   6.382  13.871  0.4216  0.0359  0.3338
17557TIP3    H174162   3.681   6.318  13.826 -0.4570  1.2401 -0.3457
17557TIP3    H274163   3.782   6.428  13.801  0.1989  0.8968  0.7422
17558TIP3   OH274164   2.960   6.228  16.240  0.0937  0.3410 -0.3401
17558TIP3    H174165   3.056   6.232  16.249 -0.0764  1.2667  1.5109
17558TIP3    H274166   2.945   6.230  16.146  1.8880  0.4718 -0.6663
17559TIP3   OH274167   6.289   4.669  17.028 -0.1897  0.0187  0.7815
17559TIP3    H174168   6.328   4.755  17.007  1.2766 -0.7288  0.2938
17559TIP3    H274169   6.304   4.659  17.122  1.3567 -0.4996  0.5026
17560TIP3   OH274170   3.371   0.384  13.729  0.6705  0.0815  0.1657
17560TIP3    H174171   3.285   0.390  13.769  0.8386  0.3780  0.4908
17560TIP3    H274172   3.428   0.437  13.785  0.9126  0.4996 -0.4558
17561TIP3   OH274173   1.467   0.393  15.646  0.1798  0.5991 -0.5272
17561TIP3    H174174   1.393   0.333  15.645 -0.1401  0.9814 -0.2722
17561TIP3    H274175   1.441   0.465  15.589  0.9377  0.0731 -1.5866
17562TIP3   OH274176   0.797   6.387  16.865  0.4457 -0.2320 -0.4386
17562TIP3    H174177   0.883   6.425  16.884  0.1960 -0.5574  1.5515
17562TIP3    H274178   0.758   6.370  16.951 -2.0625  0.8773 -1.2477
17563TIP3   OH274179   6.316   4.093   5.501  0.2346 -0.1487  0.1876
17563TIP3    H174180   6.238   4.148   5.491  0.4846 -0.0548 -1.6694
17563TIP3    H274181   6.312   4.033   5.426  0.9575 -1.4237  1.1318
17564TIP3   OH274182   4.519   4.111   0.387 -0.3320 -0.7688  0.1777
17564TIP3    H174183   4.518   4.164   0.307  2.1342  1.7273  1.6398
17564TIP3    H274184   4.478   4.167   0.453  0.3801 -1.5649  1.3188
17565TIP3   OH274185   3.481   3.823  13.767 -0.4789  0.0840 -1.1530
17565TIP3    H174186   3.450   3.735  13.746 -1.0757  0.2977 -1.1990
17565TIP3    H274187   3.505   3.861  13.683 -1.1654  0.3100 -1.2522
17566TIP3   OH274188   3.342   4.150   6.497  0.4948 -0.7112  0.0430
17566TIP3    H174189   3.350   4.059   6.467  0.3292 -1.0572  0.9840
17566TIP3    H274190   3.253   4.175   6.472 -0.1349 -1.4635  1.4067
17567TIP3   OH274191   1.789   0.073  11.839  0.4427 -0.3026 -0.2113
17567TIP3    H174192   1.874   0.116  11.847 -0.3504  1.3746 -0.2508
17567TIP3    H274193   1.803  -0.015  11.874  1.7850  0.4854  1.4037
17568TIP3   OH274194   3.422   3.811   4.823  0.0093  0.1681  0.2977
17568TIP3    H174195   3.393   3.824   4.733 -0.0234 -0.2487  0.2473
17568TIP3    H274196   3.473   3.730   4.821  1.1332  0.8510  0.4027
17569TIP3   OH274197   2.943   0.783   5.834 -0.5794  0.2064  0.0517
17569TIP3    H174198   2.989   0.705   5.803 -0.9346  0.9876 -2.6709
17569TIP3    H274199   2.879   0.749   5.897 -0.5930 -1.6783 -0.9091
17570TIP3   OH274200   3.078   2.235  14.097 -0.6033 -0.2926  0.3010
17570TIP3    H174201   3.152   2.251  14.037 -0.5702  1.6699  0.7954
17570TIP3    H274202   3.051   2.145  14.078 -0.2548  0.0815 -2.2723
17571TIP3   OH274203   0.594   2.880   4.149 -0.1384 -0.3491  0.3507
17571TIP3    H174204   0.638   2.949   4.198 -0.1957  0.7086 -1.0194
17571TIP3    H274205   0.508   2.873   4.191 -0.5079  1.1359 -0.0740
17572TIP3   OH274206   2.289   0.299   3.548 -1.0494  0.1457  0.3510
17572TIP3    H174207   2.280   0.208   3.574  0.3967 -0.1811 -0.1731
17572TIP3    H274208   2.329   0.342   3.623  0.9661 -0.3035 -0.4071
17573TIP3   OH274209   3.839   5.919  11.224 -0.0276  0.3341 -0.3498
17573TIP3    H174210   3.848   6.014  11.223 -0.6102  0.4045 -1.8315
17573TIP3    H274211   3.904   5.888  11.161  0.3008 -0.2783  0.2761
17574TIP3   OH274212   3.341   1.882  13.517  0.4896  0.3661  0.1498
17574TIP3    H174213   3.370   1.812  13.458 -0.2698  0.8750 -0.8576
17574TIP3    H274214   3.355   1.962  13.467 -1.1144  0.7372  0.2559
17575TIP3   OH274215   0.480   0.032  12.317 -0.4965 -0.2930 -0.8388
17575TIP3    H174216   0.449  -0.046  12.272 -2.0710 -0.6783  0.7859
17575TIP3    H274217   0.489   0.005  12.409  1.3070  0.8039 -0.6476
17576TIP3   OH274218   0.708   6.480   5.044 -0.0437 -0.7559  0.2224
17576TIP3    H174219   0.707   6.573   5.066  0.6602 -1.0335  1.5316
17576TIP3    H274220   0.776   6.443   5.101  1.1554 -1.7189 -1.7443
17577TIP3   OH274221   0.886   3.531  15.987  0.4376  0.0145  0.1488
17577TIP3    H174222   0.830   3.456  16.007  2.7148 -1.7270  0.5824
17577TIP3    H274223   0.894   3.578  16.070  0.0253 -0.0108  0.2035
17578TIP3   OH274224   3.938   6.086  16.217 -0.0175  0.1474 -0.2685
17578TIP3    H174225   4.028   6.075  16.184 -0.2846  0.8861 -1.3154
17578TIP3    H274226   3.883   6.056  16.145 -0.6175 -0.4962  0.4505
17579TIP3   OH274227   1.172   3.816  11.483 -0.0227 -0.8095 -0.1086
17579TIP3    H174228   1.165   3.760  11.561 -0.1183 -0.1106  0.4035
17579TIP3    H274229   1.082   3.832  11.457 -0.1513  1.0738  1.2310
17580TIP3   OH274230   5.496   4.430  16.115  0.0912  0.0054  0.2212
17580TIP3    H174231   5.582   4.411  16.078  0.4709 -0.4197  1.2625
17580TIP3    H274232   5.492   4.525  16.118 -0.6975  0.1483 -2.5063
17581TIP3   OH274233   3.940   4.268   4.214  0.0418 -0.3375  0.0984
17581TIP3    H174234   4.008   4.334   4.205  0.7852 -1.2717 -1.4956
17581TIP3    H274235   3.878   4.306   4.277 -0.8111  2.9172 -2.4310
17582TIP3   OH274236   0.058   1.872   0.618  0.0190  0.4554 -0.3261
17582TIP3    H174237   0.072   1.955   0.572  2.0402 -0.2878 -1.1510
17582TIP3    H274238   0.070   1.894   0.711 -1.8169  1.5119 -0.2904
17583TIP3   OH274239   1.883   4.856   1.168 -0.3629 -0.6105  0.1885
17583TIP3    H174240   1.964   4.843   1.120 -0.5431  1.2449 -0.7226
17583TIP3    H274241   1.910   4.896   1.251 -0.3437  0.5288 -0.3446
17584TIP3   OH274242   6.303   4.121  12.134  0.0847  0.3925  0.0841
17584TIP3    H174243   6.256   4.182  12.077  0.5011 -0.1399 -0.8674
17584TIP3    H274244   6.252   4.119  12.215 -1.1481  0.3586 -0.6649
17585TIP3   OH274245   1.954   4.297  13.775  0.1033  0.4140  0.7339
17585TIP3    H174246   1.963   4.224  13.836  0.2140 -0.3226 -0.1225
17585TIP3    H274247   1.899   4.262  13.705  1.8434  0.4214 -0.7369
17586TIP3   OH274248   1.592   0.609  15.356 -0.4229  0.4209  0.3857
17586TIP3    H174249   1.644   0.590  15.434  1.3813  0.8988 -0.6556
17586TIP3    H274250   1.569   0.702  15.366  0.0904  0.5703  0.1919
17587TIP3   OH274251   6.699   5.269   5.891 -0.5672 -0.2410 -0.3241
17587TIP3    H174252   6.684   5.175   5.904 -0.8510 -0.0447  0.9105
17587TIP3    H274253   6.613   5.304   5.868 -0.3020 -0.3933 -1.6278
17588TIP3   OH274254   2.601   0.542  12.832  0.0528  0.0951 -0.8141
17588TIP3    H174255   2.628   0.465  12.782  1.1032  0.3128 -0.5920
17588TIP3    H274256   2.505   0.540  12.828 -0.0070 -1.9122  0.1992
17589TIP3   OH274257   6.758   2.886  16.604 -0.4540  0.2201  0.1491
17589TIP3    H174258   6.844   2.847  16.620  0.0652  0.6538 -1.4775
17589TIP3    H274259   6.710   2.820  16.555 -0.4643  0.6207 -0.3875
17590TIP3   OH274260   0.361   3.857  12.876 -0.4395  0.4590 -0.1863
17590TIP3    H174261   0.342   3.913  12.951  0.3167 -0.7780  0.9826
17590TIP3    H274262   0.275   3.841  12.836 -0.9830  0.4357  0.9560
17591TIP3   OH274263   4.422   1.218  11.328 -0.7233  0.0882  0.5585
17591TIP3    H174264   4.431   1.132  11.287 -1.6389  0.2825 -0.1026
17591TIP3    H274265   4.481   1.216  11.403  1.1632 -0.2103 -0.8729
17592TIP3   OH274266   1.440   3.637  16.178  0.0301 -0.1774 -0.1623
17592TIP3    H174267   1.495   3.685  16.239 -1.1756 -1.6319  2.2298
17592TIP3    H274268   1.355   3.630  16.222 -0.7348 -1.8361 -1.7271
17593TIP3   OH274269   6.762   4.548   5.001  0.1754  0.8362 -0.1789
17593TIP3    H174270   6.773   4.540   4.906  1.5622  0.6425 -0.0240
17593TIP3    H274271   6.770   4.458   5.033  0.5364  1.0013  0.1943
17594TIP3   OH274272   2.292   5.515   3.690  0.4431  0.0576 -0.4862
17594TIP3    H174273   2.260   5.527   3.600  1.5177 -0.4989 -0.9637
17594TIP3    H274274   2.330   5.427   3.690 -0.7605 -0.5010  0.9009
17595TIP3   OH274275   6.171   0.522  15.088  0.1603  0.3627  0.0356
17595TIP3    H174276   6.196   0.523  14.996  0.3557 -1.3309  0.0324
17595TIP3    H274277   6.079   0.549  15.089  0.2452  0.6986 -0.6091
17596TIP3   OH274278   6.821   5.175  11.694  0.2194 -0.8964  0.2387
17596TIP3    H174279   6.762   5.167  11.620  1.2019  0.9361 -0.8182
17596TIP3    H274280   6.907   5.153  11.659  0.9146  1.2680  0.4180
17597TIP3   OH274281   3.933   2.227   3.282 -0.4195  0.4453  0.5387
17597TIP3    H174282   3.951   2.233   3.376 -1.8996  0.3882  0.8437
17597TIP3    H274283   3.860   2.287   3.268 -1.6378 -1.1340 -0.1706
17598TIP3   OH274284   3.007   0.606  16.549 -0.5950 -0.0563  0.2191
17598TIP3    H174285   3.015   0.664  16.474 -0.0849 -1.1940 -0.6331
17598TIP3    H274286   2.921   0.566  16.540 -0.6786  0.0670  0.4499
17599TIP3   OH274287   0.413   6.818   3.273  0.3809  0.4470 -0.8678
17599TIP3    H174288   0.503   6.814   3.240  0.4378  1.2486 -0.8392
17599TIP3    H274289   0.359   6.822   3.194  0.4840  1.7900 -0.8868
17600TIP3   OH274290   0.030   4.622  12.121  0.2604 -0.2147 -0.5423
17600TIP3    H174291  -0.030   4.581  12.182  0.5609  1.4290  0.9328
17600TIP3    H274292   0.113   4.575  12.133  0.7383  1.0359  1.4844
17601TIP3   OH274293   1.409   3.501  12.101 -0.2056  0.2516 -0.4856
17601TIP3    H174294   1.320   3.486  12.131  0.0731 -1.9652 -0.6473
17601TIP3    H274295   1.407   3.482  12.007  0.8696 -2.1259 -0.0884
17602TIP3   OH274296   3.729   3.357  16.030 -0.0891  0.3168 -0.8071
17602TIP3    H174297   3.656   3.392  15.980 -0.9329  1.2993  1.0348
17602TIP3    H274298   3.692   3.331  16.114  1.5253  0.0896 -0.1135
17603TIP3   OH274299   1.531   0.465  10.602  0.0831 -0.1014  0.0107
17603TIP3    H174300   1.511   0.517  10.680 -1.5195  1.7425 -1.5309
17603TIP3    H274301   1.446   0.442  10.566  0.7946 -0.7143 -1.3441
17604TIP3   OH274302   0.290   6.668   0.116  0.2204 -0.0271 -0.4458
17604TIP3    H174303   0.205   6.704   0.142 -0.0050  0.4497 -1.7610
17604TIP3    H274304   0.334   6.740   0.072  0.7458 -0.6656 -0.9911
17605TIP3   OH274305   2.409   3.186  16.640 -0.6266  0.4309  0.1899
17605TIP3    H174306   2.331   3.242  16.638  0.3615  1.8875  0.8678
17605TIP3    H274307   2.445   3.192  16.552 -0.4555  1.0032  0.2909
17606TIP3   OH274308   2.047   6.137  13.409  0.1050  0.5358  0.0491
17606TIP3    H174309   2.132   6.130  13.367  1.0076  0.6310  1.7953
17606TIP3    H274310   2.041   6.058  13.463 -0.8577  0.6232  0.0877
17607TIP3   OH274311   3.605   1.340  13.789 -0.4862  0.2079  0.0022
17607TIP3    H174312   3.525   1.298  13.760  0.5062 -1.5374 -0.3412
17607TIP3    H274313   3.595   1.350  13.884 -0.9812 -0.2726  0.0030
17608TIP3   OH274314   3.682   0.938   3.930  0.0964 -0.4824 -0.0994
17608TIP3    H174315   3.663   0.903   4.017  2.4348 -1.0089  0.2614
17608TIP3    H274316   3.748   1.005   3.946  1.1836 -1.1833 -1.5548
17609TIP3   OH274317   2.284   4.497   1.027 -0.5780  0.1540 -0.5904
17609TIP3    H174318   2.241   4.438   0.965  0.7499 -0.0896 -1.3252
17609TIP3    H274319   2.359   4.447   1.059 -0.8697  0.5358  0.7156
17610TIP3   OH274320   5.421   2.076   3.393 -0.0964 -0.4149 -0.4786
17610TIP3    H174321   5.508   2.104   3.366  0.1650  1.0479  1.6414
17610TIP3    H274322   5.436   2.022   3.471 -1.0192 -1.1207 -0.7734
17611TIP3   OH274323   4.262   4.598  15.753  1.0604  0.2274  0.0834
17611TIP3    H174324   4.184   4.653  15.747 -0.8174 -2.3483 -1.4763
17611TIP3    H274325   4.293   4.609  15.843 -0.0068  2.7011  0.2104
17612TIP3   OH274326   1.696   5.652  16.989  0.3825 -0.0276 -0.0493
17612TIP3    H174327   1.791   5.661  16.982  0.3683 -0.3118 -0.6258
17612TIP3    H274328   1.679   5.660  17.083  0.8126  1.5684 -0.0850
17613TIP3   OH274329   5.279   0.315  15.753 -0.2671  0.6294  0.0804
17613TIP3    H174330   5.225   0.364  15.691  0.1589  1.8482  0.6326
17613TIP3    H274331   5.220   0.298  15.827 -0.9339 -1.2911 -0.8160
17614TIP3   OH274332   3.503   6.297   5.161  0.2829  0.1668 -0.1436
17614TIP3    H174333   3.488   6.237   5.087 -1.8603  0.7287 -0.2168
17614TIP3    H274334   3.529   6.379   5.119  0.6303  0.0491 -0.1681
17615TIP3   OH274335   4.836   5.210  12.525 -0.6372 -0.6324 -0.2292
17615TIP3    H174336   4.839   5.289  12.471 -0.2304  0.0594  0.7711
17615TIP3    H274337   4.928   5.187  12.539 -0.7193 -0.5571  0.4913
17616TIP3   OH274338   3.596   4.747   0.307  0.1356 -0.1975  0.8342
17616TIP3    H174339   3.534   4.764   0.378 -0.1774  1.3371  0.2221
17616TIP3    H274340   3.601   4.829   0.259  0.9787 -0.9595 -0.4397
17617TIP3   OH274341   2.430   1.236   6.356  0.3364  0.3181  0.2124
17617TIP3    H174342   2.349   1.223   6.307  0.4665 -0.6283  0.2305
17617TIP3    H274343   2.415   1.193   6.439  1.1781 -0.6793 -0.1338
17618TIP3   OH274344   5.605   3.125   4.177  0.4610  0.0482 -0.4940
17618TIP3    H174345   5.551   3.124   4.256 -1.8875 -0.3754 -1.9991
17618TIP3    H274346   5.659   3.047   4.183  0.0805 -0.1448  0.5284
17619TIP3   OH274347   6.754   4.326   2.584 -0.0401 -0.0420 -0.6522
17619TIP3    H174348   6.803   4.406   2.568  0.1327 -0.1960 -0.9045
17619TIP3    H274349   6.668   4.343   2.545 -0.5002  0.5624  0.5719
17620TIP3   OH274350   1.674   2.635   3.153  0.3980 -0.1054 -0.4769
17620TIP3    H174351   1.767   2.650   3.172  0.4565 -0.4793 -0.4639
17620TIP3    H274352   1.635   2.618   3.239  0.7071 -2.0483 -0.6911
17621TIP3   OH274353   1.704   5.117   2.062 -0.4032 -0.3216  0.3451
17621TIP3    H174354   1.616   5.096   2.031 -0.0327 -1.1781 -0.1746
17621TIP3    H274355   1.761   5.057   2.014  0.5779  0.9322 -0.1123
17622TIP3   OH274356   3.479   5.590  16.264  0.1340  0.0683 -0.1961
17622TIP3    H174357   3.478   5.591  16.168  3.2534  0.3845 -0.3088
17622TIP3    H274358   3.488   5.682  16.289 -0.6829 -0.0105  0.4265
17623TIP3   OH274359   6.588   2.923   4.997 -0.0701 -0.0639 -0.1053
17623TIP3    H174360   6.618   2.834   4.978  1.0345  0.4597 -0.9674
17623TIP3    H274361   6.589   2.929   5.093  0.7235 -0.7013 -0.0616
17624TIP3   OH274362   6.604   0.496   3.859  0.5139 -0.2600  0.3408
17624TIP3    H174363   6.559   0.434   3.916  0.0187 -0.6749 -0.4766
17624TIP3    H274364   6.613   0.575   3.913 -1.9741  0.1470  0.3108
17625TIP3   OH274365   3.838   4.548   2.215  0.3536  0.6128 -0.6273
17625TIP3    H174366   3.858   4.456   2.231  0.3239  0.6978 -0.0727
17625TIP3    H274367   3.785   4.575   2.290 -0.4949  0.8184 -1.2903
17626TIP3   OH274368   6.741   2.209  15.871 -0.3554 -0.5632  0.0805
17626TIP3    H174369   6.732   2.172  15.959 -2.0752 -0.1177  0.1300
17626TIP3    H274370   6.685   2.154  15.816 -1.1662  0.5567 -0.2598
17627TIP3   OH274371   5.899   5.673   1.086  0.8410 -0.7187  0.0059
17627TIP3    H174372   5.987   5.699   1.059  0.1960 -0.8272 -2.3850
17627TIP3    H274373   5.895   5.695   1.179  3.2551 -0.3851  0.0922
17628TIP3   OH274374   3.005   1.830  15.108 -0.5660  0.0661  0.1922
17628TIP3    H174375   2.945   1.756  15.102 -0.1553 -0.1914 -0.9455
17628TIP3    H274376   3.092   1.791  15.100 -0.1391  0.3373  2.5694
17629TIP3   OH274377   2.600   0.943  16.518  0.1818  0.5475  0.0723
17629TIP3    H174378   2.681   0.960  16.470 -0.6886  0.6799 -1.3845
17629TIP3    H274379   2.620   0.865  16.571  1.2035  0.4730 -0.4004
17630TIP3   OH274380   4.873   5.868   6.182 -0.1340  0.3121 -0.3997
17630TIP3    H174381   4.886   5.809   6.109  0.2996 -1.8574  1.3314
17630TIP3    H274382   4.781   5.896   6.174 -0.0561  0.2387 -1.8070
17631TIP3   OH274383   2.085   4.800   4.943  0.2298 -0.2173  0.2289
17631TIP3    H174384   2.179   4.809   4.956 -0.0411  1.9621  1.1004
17631TIP3    H274385   2.076   4.734   4.875  2.4496  0.7348 -1.0737
17632TIP3   OH274386   3.410   1.389   2.440 -0.6539 -0.3100 -0.3144
17632TIP3    H174387   3.381   1.479   2.448 -1.7835 -0.5384 -1.5921
17632TIP3    H274388   3.502   1.395   2.414  0.0166  0.4198  1.9552
17633TIP3   OH274389   0.248   5.601  11.325 -0.8894  0.6290  0.2178
17633TIP3    H174390   0.229   5.510  11.300 -1.1472  0.2262  1.7740
17633TIP3    H274391   0.212   5.609  11.413  2.4496  1.1014  1.6556
17634TIP3   OH274392   1.374   6.702   6.306  0.2872  0.1332 -0.2434
17634TIP3    H174393   1.420   6.785   6.319  0.4822  0.2145 -1.3693
17634TIP3    H274394   1.281   6.726   6.309  0.2731  0.0206  1.6876
17635TIP3   OH274395   2.503   6.776   4.333 -0.2354 -0.2801 -0.3134
17635TIP3    H174396   2.588   6.733   4.337 -0.5561 -0.9099 -0.1629
17635TIP3    H274397   2.471   6.757   4.244 -0.0374  0.3114 -0.5143
17636TIP3   OH274398   5.802   3.286   5.504  0.3192  0.3454  0.1629
17636TIP3    H174399   5.813   3.243   5.419 -1.0903 -0.0909  0.1878
17636TIP3    H274400   5.752   3.365   5.484  2.1589  1.6080  0.2474
17637TIP3   OH274401   4.630   6.523   0.723  0.3346 -0.1080 -0.5506
17637TIP3    H174402   4.718   6.562   0.727  1.2716 -2.1122  0.3423
17637TIP3    H274403   4.635   6.463   0.648  0.0260 -0.8287 -0.0049
17638TIP3   OH274404   6.598   1.675  10.962  0.0594  0.1897  0.5498
17638TIP3    H174405   6.537   1.749  10.951 -0.7269 -0.3383  1.2385
17638TIP3    H274406   6.650   1.675  10.881 -0.2213  1.2248  0.3477
17639TIP3   OH274407   1.907   6.041   2.109 -0.4891 -0.0037  0.1419
17639TIP3    H174408   1.863   6.045   2.194  0.9680 -2.2019  1.0926
17639TIP3    H274409   1.934   5.949   2.100  0.6618  0.4721 -2.0532
17640TIP3   OH274410   3.608   0.327  14.294  0.7250 -0.3831  0.3557
17640TIP3    H174411   3.694   0.366  14.315 -0.3518  1.9379  0.8285
17640TIP3    H274412   3.568   0.310  14.380  0.0231  0.2410  0.1612
17641TIP3   OH274413   1.992   3.044   1.513  0.2186  0.2462  0.1128
17641TIP3    H174414   2.048   3.033   1.589  2.0935 -3.0973 -1.5463
17641TIP3    H274415   2.036   3.111   1.460  1.4769 -0.7425 -0.1244
17642TIP3   OH274416   1.966   1.271  16.945 -0.2573 -0.5022 -0.3300
17642TIP3    H174417   1.918   1.298  17.023 -0.3873  3.1426 -1.4856
17642TIP3    H274418   2.057   1.266  16.972 -0.3451  0.4274  0.1643
17643TIP3   OH274419   1.657   5.509  16.225  0.6265 -0.5734  0.2653
17643TIP3    H174420   1.580   5.464  16.191  0.8160 -1.0308  0.4293
17643TIP3    H274421   1.691   5.559  16.151 -0.8648  1.1066  0.6546
17644TIP3   OH274422   5.224   1.278  11.877  0.6215  0.9985  0.0941
17644TIP3    H174423   5.168   1.296  11.952 -0.2656  0.3501 -0.3867
17644TIP3    H274424   5.211   1.185  11.858 -0.0201  1.3625 -1.4915
17645TIP3   OH274425   1.733   6.391  15.498  1.0624  0.9733 -0.2121
17645TIP3    H174426   1.823   6.359  15.487  1.6152  1.6695  1.8008
17645TIP3    H274427   1.693   6.329  15.559 -0.0740  0.3227 -1.5493
17646TIP3   OH274428   3.633   3.902   1.081  0.1750  0.1818  0.5121
17646TIP3    H174429   3.585   3.947   1.012  1.4929  0.5071 -0.2352
17646TIP3    H274430   3.599   3.939   1.162 -3.6500 -2.3969  0.3211
17647TIP3   OH274431   5.723   5.812  15.111  0.3129  0.0521  0.0271
17647TIP3    H174432   5.746   5.719  15.113 -0.7953 -0.2744 -1.0240
17647TIP3    H274433   5.658   5.822  15.181 -0.2192 -0.1727 -0.4238
17648TIP3   OH274434   3.930   2.914  11.072  0.4102  0.6303 -0.3827
17648TIP3    H174435   4.017   2.889  11.041  0.3827  0.9226 -0.7069
17648TIP3    H274436   3.874   2.909  10.994  0.4727  1.9897 -0.5403
17649TIP3   OH274437   5.884   6.543  14.403  0.3200 -0.5598  0.6020
17649TIP3    H174438   5.864   6.489  14.327 -0.5557 -0.7814  0.9821
17649TIP3    H274439   5.864   6.632  14.375 -0.2890 -0.6738  0.6625
17650TIP3   OH274440   1.462   0.575  16.180  0.0514  0.1335 -0.3983
17650TIP3    H174441   1.452   0.630  16.103 -2.1343  0.8133  0.2913
17650TIP3    H274442   1.387   0.598  16.236 -0.9950 -3.4572 -0.0482
17651TIP3   OH274443   6.761   2.202  10.941  0.6442 -0.1438 -0.1630
17651TIP3    H174444   6.792   2.285  10.903 -0.0119  0.1422 -0.0915
17651TIP3    H274445   6.815   2.135  10.899  1.7334  0.3732  0.3599
17652TIP3   OH274446   3.623   1.072  12.123 -0.2624 -0.0883 -0.5042
17652TIP3    H174447   3.547   1.124  12.150 -0.1761  0.3983 -1.1920
17652TIP3    H274448   3.644   1.020  12.200  0.2311  1.5715  0.5240
17653TIP3   OH274449   1.371   2.395  15.264 -1.0429 -0.2676 -0.6471
17653TIP3    H174450   1.299   2.455  15.281 -1.7068 -1.5519  1.4411
17653TIP3    H274451   1.448   2.451  15.261 -1.5594  0.7324  1.7847
17654TIP3   OH274452   4.907   3.536  13.195  0.3128 -0.7855 -0.3577
17654TIP3    H174453   4.982   3.503  13.146  1.1699 -0.7741  0.8974
17654TIP3    H274454   4.929   3.518  13.287 -0.7525  0.1673  0.1019
17655TIP3   OH274455   3.929   4.735  11.373  0.5026  0.1356 -0.3068
17655TIP3    H174456   3.941   4.642  11.392 -0.2925 -0.0578 -0.6943
17655TIP3    H274457   4.007   4.777  11.408  0.4838 -0.5758  0.6348
17656TIP3   OH274458   3.273   5.881   5.281  0.1267 -0.0491 -0.0425
17656TIP3    H174459   3.322   5.876   5.364  0.4735  1.3450 -0.1386
17656TIP3    H274460   3.234   5.794   5.271  1.7874 -0.9071  0.5299
17657TIP3   OH274461   6.397   0.444   1.369  0.2078 -0.8910  0.1902
17657TIP3    H174462   6.483   0.449   1.409  1.4039  0.8321 -2.3082
17657TIP3    H274463   6.413   0.407   1.282 -1.3221  0.5589 -0.7848
17658TIP3   OH274464   4.555   3.044  13.666 -0.0775 -0.0681  0.0325
17658TIP3    H174465   4.632   2.987  13.673 -0.2804 -0.3965 -0.4085
17658TIP3    H274466   4.504   3.025  13.745 -0.0527 -0.3603 -0.0217
17659TIP3   OH274467   1.323   6.562   0.466 -0.0152 -0.5470 -0.0354
17659TIP3    H174468   1.344   6.612   0.545  1.0970 -0.9912 -0.0305
17659TIP3    H274469   1.399   6.575   0.409 -0.7512 -0.3338 -0.9938
17660TIP3   OH274470   2.307   4.611   1.469  0.4835  0.0313 -0.4353
17660TIP3    H174471   2.334   4.627   1.560  1.0371 -0.4688 -0.4993
17660TIP3    H274472   2.215   4.585   1.475  0.3539  0.5713 -0.0737
17661TIP3   OH274473   5.843   2.034  16.270  0.2807 -0.3064  0.4938
17661TIP3    H174474   5.772   2.046  16.333  0.6504 -0.9810  1.0633
17661TIP3    H274475   5.855   2.120  16.230  0.0565  0.1488  1.3805
17662TIP3   OH274476   0.546   1.994  16.627  0.0133 -0.0153 -0.2670
17662TIP3    H174477   0.634   1.991  16.590  0.5232 -0.1431  0.9090
17662TIP3    H274478   0.511   2.079  16.601  0.2353 -0.2213 -1.2731
17663TIP3   OH274479   5.724   4.653   4.042  0.2854  0.5075  0.1849
17663TIP3    H174480   5.779   4.673   4.117  0.5059 -0.4351  0.2881
17663TIP3    H274481   5.781   4.668   3.966  0.0358  1.5449  0.1832
17664TIP3   OH274482   2.649   4.243   5.432  0.3350  0.0988 -0.7079
17664TIP3    H174483   2.631   4.180   5.502  1.0591 -0.7545 -1.2730
17664TIP3    H274484   2.589   4.219   5.362 -0.2504  0.8297 -0.4702
17665TIP3   OH274485   3.626   6.381  12.990  0.6656  0.4826  0.6191
17665TIP3    H174486   3.551   6.397  12.932  0.6444  0.4190  0.6296
17665TIP3    H274487   3.683   6.457  12.977  0.3915  0.7458  0.9397
17666TIP3   OH274488   5.278   6.553   1.226 -0.4668 -0.3075  0.0448
17666TIP3    H174489   5.245   6.633   1.267  0.1127 -0.0602  0.0384
17666TIP3    H274490   5.276   6.571   1.133  0.9510  0.2359  0.0860
17667TIP3   OH274491   0.323   0.235  15.755  0.5757 -0.0378  0.3958
17667TIP3    H174492   0.408   0.202  15.783  0.1990  0.9950  3.0077
17667TIP3    H274493   0.277   0.257  15.836 -1.1675  1.9160 -1.0036
17668TIP3   OH274494   6.041   2.845   6.087 -0.5253  0.1137  0.5863
17668TIP3    H174495   6.043   2.937   6.114  0.3500 -0.5798  3.1739
17668TIP3    H274496   5.997   2.800   6.159 -0.2567 -1.6010 -0.2716
17669TIP3   OH274497   6.644   4.848   2.555  0.3173  0.3589 -0.7757
17669TIP3    H174498   6.621   4.786   2.624  0.9747 -0.0387 -0.9130
17669TIP3    H274499   6.668   4.928   2.602 -0.9652  0.6784 -0.6132
17670TIP3   OH274500   5.150   0.262  13.891 -0.0968  0.0136  0.8707
17670TIP3    H174501   5.192   0.182  13.860  0.8755 -0.9991  4.3396
17670TIP3    H274502   5.070   0.231  13.934 -0.4141  1.0848  1.0678
17671TIP3   OH274503   5.431   0.355  16.993  0.4367 -0.3224  0.5291
17671TIP3    H174504   5.344   0.390  17.010  1.1352  2.1028 -0.4565
17671TIP3    H274505   5.486   0.393  17.063  0.8572 -1.2043  0.6941
17672TIP3   OH274506   4.334   2.233  13.972  0.1487 -0.7853  0.1292
17672TIP3    H174507   4.375   2.319  13.982 -0.7499 -0.2155 -0.9312
17672TIP3    H274508   4.358   2.205  13.884  0.6173 -1.7411  0.5429
17673TIP3   OH274509   3.726   4.211  11.170 -0.3108 -0.3629  0.2654
17673TIP3    H174510   3.795   4.221  11.105 -0.1460 -1.3504  0.2795
17673TIP3    H274511   3.673   4.291  11.161 -1.1361 -1.0932 -2.0484
17674TIP3   OH274512   5.199   3.542  10.695 -0.6939  0.0680 -0.3094
17674TIP3    H174513   5.193   3.456  10.654  1.0585 -0.2051 -0.0646
17674TIP3    H274514   5.115   3.584  10.677 -1.0076 -1.1254 -1.7111
17675TIP3   OH274515   5.856   6.517   1.022  0.0288  0.0875 -0.5177
17675TIP3    H174516   5.950   6.536   1.020  0.8023 -3.1270 -2.0546
17675TIP3    H274517   5.841   6.462   0.945 -2.8387 -0.7000  0.4632
17676TIP3   OH274518   4.605   1.953   4.900  0.2199 -0.1059  0.1250
17676TIP3    H174519   4.553   1.905   4.964  1.1022 -0.2378  0.7678
17676TIP3    H274520   4.561   2.037   4.891 -1.7503 -1.2154 -1.5225
17677TIP3   OH274521   4.714   4.019  15.384 -0.4156  0.0635 -0.3443
17677TIP3    H174522   4.791   3.964  15.397 -0.9979 -1.1371 -1.6679
17677TIP3    H274523   4.697   4.015  15.290 -1.7147  0.8385 -0.1798
17678TIP3   OH274524   3.746   2.596  14.657  0.3809 -0.1400 -0.2628
17678TIP3    H174525   3.679   2.527  14.661 -0.7398  0.8690 -0.9178
17678TIP3    H274526   3.698   2.676  14.678  1.1316  0.7691 -1.8520
17679TIP3   OH274527   5.465   6.587  15.682  0.2519  0.1457 -0.1398
17679TIP3    H174528   5.468   6.682  15.670  1.6851  0.5031  2.2391
17679TIP3    H274529   5.545   6.555  15.640  0.6900  0.2570  0.5843
17680TIP3   OH274530   4.401   0.763   3.410 -0.3335 -0.3056 -0.2811
17680TIP3    H174531   4.357   0.777   3.494  3.1940  2.1298  1.3697
17680TIP3    H274532   4.395   0.847   3.365  0.2033 -0.7705 -1.2504
17681TIP3   OH274533   2.189   2.575   6.586  0.1156 -0.3016 -0.6791
17681TIP3    H174534   2.095   2.557   6.583 -0.2273  1.4508 -1.5928
17681TIP3    H274535   2.212   2.564   6.678 -1.3523  0.8555 -0.1186
17682TIP3   OH274536   4.891   4.158  15.673 -0.8544 -0.4314 -0.9041
17682TIP3    H174537   4.953   4.189  15.606  0.8334 -1.9453 -0.1297
17682TIP3    H274538   4.813   4.133  15.623 -0.1170 -0.3507 -2.1632
17683TIP3   OH274539   2.133   1.044  16.414 -0.0480 -0.2041  0.8615
17683TIP3    H174540   2.091   1.047  16.500 -0.1706  1.6709  0.7809
17683TIP3    H274541   2.075   1.095  16.357 -0.1516 -1.7183 -0.4448
17684TIP3   OH274542   0.745   1.904  11.505 -0.1147  0.3206  0.3021
17684TIP3    H174543   0.742   1.948  11.420  2.1238 -0.1828 -0.1170
17684TIP3    H274544   0.809   1.955  11.555 -0.5213 -0.0945  1.2638
17685TIP3   OH274545   6.796   1.059   1.086  0.3452  0.0678  0.5288
17685TIP3    H174546   6.881   1.090   1.055  1.3135 -1.7710  1.1785
17685TIP3    H274547   6.812   1.032   1.176 -0.7042 -1.1624  0.3694
17686TIP3   OH274548   3.389   5.716   3.964 -0.0144  0.1077 -0.0498
17686TIP3    H174549   3.484   5.712   3.955  0.0638  0.5359  0.5089
17686TIP3    H274550   3.369   5.810   3.965 -0.0934  0.1692  2.9003
17687TIP3   OH274551   5.556   3.869  14.103 -0.4010  0.3423 -0.4675
17687TIP3    H174552   5.605   3.852  14.023 -1.9649 -0.0164 -1.3939
17687TIP3    H274553   5.527   3.960  14.095  0.8047  0.8364  0.4855
17688TIP3   OH274554   4.959   5.856  16.688 -0.1699  0.3007 -0.4193
17688TIP3    H174555   4.867   5.833  16.686 -0.6645  2.0020  0.7807
17688TIP3    H274556   4.976   5.896  16.603 -1.1628  2.0804  0.1788
17689TIP3   OH274557   6.457   2.265   4.891  0.3933  0.1051 -0.5841
17689TIP3    H174558   6.487   2.214   4.967  1.2993  0.6091 -0.5898
17689TIP3    H274559   6.447   2.201   4.821  1.6504 -0.0709 -0.6273
17690TIP3   OH274560   2.203   1.544  15.178 -0.4338  0.1225 -0.4535
17690TIP3    H174561   2.179   1.479  15.111  0.4511  0.0700 -0.7370
17690TIP3    H274562   2.207   1.627  15.130  0.1479  0.0943 -0.4632
17691TIP3   OH274563   1.231   1.859  11.615  0.0246  0.6092  0.9457
17691TIP3    H174564   1.274   1.943  11.631  1.9676 -0.0234 -0.5749
17691TIP3    H274565   1.139   1.876  11.632  0.1650  3.3997 -0.4693
17692TIP3   OH274566   6.296   5.736  14.443 -0.1052 -0.3763  0.4270
17692TIP3    H174567   6.301   5.831  14.428  1.8752 -0.4264  0.6007
17692TIP3    H274568   6.348   5.721  14.522 -0.6232 -1.6014  0.5622
17693TIP3   OH274569   4.766   1.274   6.292 -0.2447 -0.3562  0.2185
17693TIP3    H174570   4.836   1.324   6.335 -0.0083 -1.1292  0.7575
17693TIP3    H274571   4.688   1.293   6.343  0.1858 -1.8886  1.5303
17694TIP3   OH274572   1.249   4.907   0.604  0.5014  0.5148 -0.2717
17694TIP3    H174573   1.211   4.946   0.526 -0.3058  0.8332  0.2601
17694TIP3    H274574   1.286   4.981   0.653 -0.2134  0.5201  0.2912
17695TIP3   OH274575   5.195   0.229   3.098  0.0424  0.0881  0.4834
17695TIP3    H174576   5.224   0.176   3.023  0.1227 -0.5178  0.9406
17695TIP3    H274577   5.268   0.288   3.114 -0.2016  0.6171 -0.2755
17696TIP3   OH274578   1.375   2.230   5.174  0.5248  0.1696 -0.4322
17696TIP3    H174579   1.366   2.138   5.149  0.2698  0.1497 -0.2691
17696TIP3    H274580   1.329   2.278   5.105 -0.6593  0.0828  0.2627
17697TIP3   OH274581   4.762   6.544   6.323 -0.0405 -0.0584  0.0124
17697TIP3    H174582   4.739   6.452   6.337  2.4306 -0.7176  0.1516
17697TIP3    H274583   4.730   6.563   6.235 -0.0554 -1.2495 -0.2616
17698TIP3   OH274584   1.502   6.239  14.772 -0.1360 -0.0019 -0.5431
17698TIP3    H174585   1.532   6.299  14.841 -1.7370 -0.0557  0.2380
17698TIP3    H274586   1.485   6.296  14.697 -2.2801  0.6770  0.3975
17699TIP3   OH274587   2.959   0.827  11.406  0.4065 -0.5640 -1.0068
17699TIP3    H174588   2.919   0.799  11.324 -2.0614  0.3304 -0.1828
17699TIP3    H274589   2.887   0.828  11.470  2.2442 -1.3442  1.2384
17700TIP3   OH274590   3.817   2.672  16.607 -0.5178  0.3866 -0.7613
17700TIP3    H174591   3.906   2.653  16.638 -0.5825 -0.9230 -1.3182
17700TIP3    H274592   3.794   2.597  16.553 -0.8765  2.0389 -3.0297
17701TIP3   OH274593   6.565   2.355  12.479 -0.1412  0.6709  0.1421
17701TIP3    H174594   6.499   2.317  12.421 -1.2169 -0.0947  1.7932
17701TIP3    H274595   6.581   2.287  12.544  0.3765  1.8243  1.2579
17702TIP3   OH274596   5.158   3.459  14.053 -0.1012 -0.0074  0.0468
17702TIP3    H174597   5.131   3.375  14.091  0.4160  0.1197  0.7125
17702TIP3    H274598   5.080   3.491  14.007 -0.6525 -0.2986  0.7653
17703TIP3   OH274599   4.046   1.493   3.658  0.5899 -0.7946 -0.3757
17703TIP3    H174600   4.092   1.518   3.579  1.1859  1.9302  0.7381
17703TIP3    H274601   3.994   1.416   3.632 -1.3121  1.4653 -4.1662
17704TIP3   OH274602   5.857   4.973   6.346 -0.0703  0.2767 -0.7644
17704TIP3    H174603   5.906   5.030   6.405  0.8295  0.2009 -1.4174
17704TIP3    H274604   5.797   5.033   6.301 -2.2414  0.0656  1.6066
17705TIP3   OH274605   2.955   1.043  17.023  0.1862 -0.2842 -0.0373
17705TIP3    H174606   2.882   1.014  17.077  1.9361  0.1755  2.8430
17705TIP3    H274607   2.993   0.963  16.987 -0.6658 -0.6719 -0.0872
17706TIP3   OH274608   3.341   2.043   5.589 -0.5548  0.1734 -0.1350
17706TIP3    H174609   3.385   1.968   5.630 -0.2854  0.4948  0.1661
17706TIP3    H274610   3.383   2.051   5.503 -0.5529  0.0077 -0.1502
17707TIP3   OH274611   0.672   3.259   1.400 -0.7045 -0.7519  0.3623
17707TIP3    H174612   0.625   3.342   1.397 -0.2248 -0.5047 -1.7777
17707TIP3    H274613   0.716   3.260   1.486 -0.6289  1.2537  0.3605
17708TIP3   OH274614   0.667   0.676  14.742 -0.1561 -0.2101  0.3988
17708TIP3    H174615   0.614   0.741  14.788  0.2364  0.1859  0.3049
17708TIP3    H274616   0.656   0.697  14.649 -0.0131 -0.2641  0.3690
17709TIP3   OH274617   5.710   4.400   3.747 -0.8645 -0.0216  0.2685
17709TIP3    H174618   5.729   4.338   3.816 -1.2508 -0.8995 -0.3871
17709TIP3    H274619   5.614   4.400   3.741 -0.9249  1.3524  0.8855
17710TIP3   OH274620   4.876   6.337   5.963  0.2383 -0.0727 -0.6899
17710TIP3    H174621   4.926   6.281   6.023 -1.9067 -1.3037  0.0377
17710TIP3    H274622   4.932   6.343   5.885  1.2999 -1.8123 -0.1348
17711TIP3   OH274623   3.072   6.716   5.834 -0.2340 -0.0879 -0.3589
17711TIP3    H174624   3.162   6.746   5.818 -0.4479  0.7943  0.0213
17711TIP3    H274625   3.077   6.671   5.918 -0.4907  1.6910  0.6712
17712TIP3   OH274626   5.593   6.833  15.861  0.3606  0.5562 -0.1999
17712TIP3    H174627   5.628   6.916  15.893 -1.5657  0.7049  1.7559
17712TIP3    H274628   5.590   6.776  15.938 -1.0117 -0.3407 -0.8628
17713TIP3   OH274629   5.055   4.995  14.314 -0.8472 -0.7127 -0.2561
17713TIP3    H174630   5.034   4.972  14.405 -2.0832 -0.4680 -0.4574
17713TIP3    H274631   4.998   5.069  14.295 -1.9892 -1.9329 -1.8266
17714TIP3   OH274632   5.296   0.290  11.705  0.0836 -0.5245 -0.2156
17714TIP3    H174633   5.236   0.288  11.780  1.1287 -2.2355  0.6448
17714TIP3    H274634   5.242   0.259  11.632 -0.8686  0.8867 -0.1482
17715TIP3   OH274635   6.640   1.841   4.356  0.2709  0.0986 -0.1972
17715TIP3    H174636   6.713   1.835   4.418 -0.4911  1.9697  0.9778
17715TIP3    H274637   6.568   1.796   4.399  0.4492 -0.9393 -0.9475
17716TIP3   OH274638   6.160   6.838  11.881  0.6280 -0.2180  0.8875
17716TIP3    H174639   6.129   6.905  11.820  1.3690  0.8397  1.6348
17716TIP3    H274640   6.159   6.881  11.967  0.5260 -1.3719  1.4825
17717TIP3   OH274641   0.098   1.882   5.792  0.2232 -0.0321  0.9620
17717TIP3    H174642   0.031   1.832   5.746  1.7658  0.7800 -2.5267
17717TIP3    H274643   0.060   1.969   5.803 -0.2371 -0.2890  1.4019
17718TIP3   OH274644   5.412   5.200   5.393 -0.2527 -0.7991  0.1131
17718TIP3    H174645   5.443   5.116   5.428 -0.3951 -0.1963  1.8022
17718TIP3    H274646   5.467   5.216   5.317  0.9718 -1.5846  0.8007
17719TIP3   OH274647   1.605   6.319   5.180  0.1981 -0.0267 -0.1395
17719TIP3    H174648   1.619   6.275   5.097 -0.0092 -0.0793 -0.1479
17719TIP3    H274649   1.511   6.311   5.196  0.1732  0.3191 -0.0919
17720TIP3   OH274650   5.099   5.808   6.355 -0.3158  0.1450  0.8885
17720TIP3    H174651   5.057   5.727   6.385 -0.8386 -0.7317 -1.8531
17720TIP3    H274652   5.034   5.848   6.297  1.9038 -0.4871 -2.3150
17721TIP3   OH274653   6.657   5.807  12.176  0.6095 -0.6671 -0.6909
17721TIP3    H174654   6.671   5.898  12.149 -0.0042  0.1284  1.4421
17721TIP3    H274655   6.746   5.773  12.190  0.8587  0.4936  1.0050
17722TIP3   OH274656   6.487   3.976  15.686 -0.0532 -0.1433  0.1033
17722TIP3    H174657   6.463   3.918  15.614 -1.3026 -0.1489  0.5025
17722TIP3    H274658   6.557   3.930  15.732  0.0063 -0.6325 -0.4630
17723TIP3   OH274659   6.163   6.521   0.842 -0.4222  0.4493  0.2005
17723TIP3    H174660   6.150   6.599   0.788 -2.1780 -1.0699 -1.7351
17723TIP3    H274661   6.151   6.552   0.932 -3.3885  2.0771 -0.6189
17724TIP3   OH274662   4.520   6.722   3.352 -0.2527  0.3855 -0.4978
17724TIP3    H174663   4.496   6.728   3.444 -0.1487 -1.2960 -0.3297
17724TIP3    H274664   4.443   6.684   3.310  0.1988 -0.1251 -0.8673
17725TIP3   OH274665   2.291   1.031  13.728 -0.2904  0.1581 -0.7486
17725TIP3    H174666   2.348   1.086  13.782  0.0614 -1.5460  0.7125
17725TIP3    H274667   2.351   0.978  13.675 -0.5558 -0.2187 -0.6813
17726TIP3   OH274668   5.234   2.886   0.909 -0.8313  0.1070 -0.0059
17726TIP3    H174669   5.217   2.874   1.003 -0.6192  1.3433  0.1998
17726TIP3    H274670   5.310   2.944   0.905 -3.2005  3.4414 -0.8833
17727TIP3   OH274671   2.509   5.565   6.593 -0.0298  0.0556 -0.0039
17727TIP3    H174672   2.453   5.591   6.520 -1.1316  0.5229  0.9760
17727TIP3    H274673   2.541   5.647   6.629  1.1547 -0.2022 -0.4318
17728TIP3   OH274674   4.131   6.143  13.861  0.3893 -0.4012  0.0628
17728TIP3    H174675   4.149   6.176  13.773  1.4793 -1.4486 -0.1414
17728TIP3    H274676   4.216   6.145  13.905 -0.5286  2.6532  2.0697
17729TIP3   OH274677   1.778   0.683  12.258  0.2343  0.0012  0.2032
17729TIP3    H174678   1.784   0.587  12.263  0.5855  0.0092 -0.0199
17729TIP3    H274679   1.785   0.702  12.165 -1.3209  0.1589  0.0855
17730TIP3   OH274680   4.050   6.677  15.566  0.0236 -0.0518  0.3467
17730TIP3    H174681   4.022   6.703  15.654  0.9749  1.7058  0.1696
17730TIP3    H274682   4.012   6.744  15.509  0.9440 -0.1324 -0.3696
17731TIP3   OH274683   2.533   3.218  15.564  0.4696  0.1797 -0.2198
17731TIP3    H174684   2.450   3.257  15.534  1.1736  1.3356 -0.7303
17731TIP3    H274685   2.523   3.125  15.548  0.0458  0.5342 -2.2145
17732TIP3   OH274686   6.015   4.854   6.149 -0.6130 -0.0158  0.1711
17732TIP3    H174687   5.957   4.890   6.216 -0.2080 -1.0749  1.1118
17732TIP3    H274688   5.978   4.768   6.130 -0.4564  0.0891 -0.6587
17733TIP3   OH274689   0.340   3.028  11.858  0.2856  0.3543  0.0427
17733TIP3    H174690   0.342   2.972  11.936  0.7399  1.3827  0.7922
17733TIP3    H274691   0.279   3.098  11.880 -0.3709  0.1054 -0.9344
17734TIP3   OH274692   1.595   5.270  15.944  0.2116  0.0404  0.2598
17734TIP3    H174693   1.678   5.300  15.980 -0.2538  2.6104 -0.5962
17734TIP3    H274694   1.530   5.295  16.009 -0.1798  0.7998 -0.4052
17735TIP3   OH274695   1.059   6.603  15.852 -0.2028  0.5668 -0.0057
17735TIP3    H174696   1.033   6.669  15.917 -1.5993  1.8435 -1.7431
17735TIP3    H274697   0.984   6.544  15.848 -0.5835  1.1024 -1.1615
17736TIP3   OH274698   6.242   1.060  14.852 -0.4210 -0.0597  0.4345
17736TIP3    H174699   6.216   1.079  14.762 -1.2310  0.1712  0.7137
17736TIP3    H274700   6.296   1.135  14.877 -0.1764 -0.1346  0.1356
17737TIP3   OH274701   4.875   3.030   1.122 -0.0119 -0.3556  0.6562
17737TIP3    H174702   4.908   2.945   1.150  0.0425 -1.2950 -1.9714
17737TIP3    H274703   4.947   3.069   1.072 -1.2467 -0.4669 -1.3314
17738TIP3   OH274704   1.825   4.042   1.537  0.1935 -0.4184  0.5581
17738TIP3    H174705   1.874   3.966   1.567  0.3224 -0.7280 -0.3961
17738TIP3    H274706   1.787   4.015   1.453 -0.7627  0.1640  0.7834
17739TIP3   OH274707   2.641   3.746  14.835 -0.1663  0.2478  0.7101
17739TIP3    H174708   2.562   3.726  14.886 -0.8088 -0.3873 -0.4903
17739TIP3    H274709   2.608   3.776  14.750  0.8799  0.1945  0.2704
17740TIP3   OH274710   3.179   5.953  12.187 -0.2825 -0.2378 -0.1797
17740TIP3    H174711   3.222   5.889  12.245  0.1836  1.1905  1.1065
17740TIP3    H274712   3.086   5.933  12.194 -0.2371 -0.0487  1.1476
17741TIP3   OH274713   3.673   0.216   0.313  0.2672  0.7190  0.3079
17741TIP3    H174714   3.637   0.188   0.228 -1.2312 -0.1762  1.1873
17741TIP3    H274715   3.670   0.137   0.367  2.5054  0.9260  0.8187
17742TIP3   OH274716   1.281   2.834  13.889  0.1284  0.2196  0.5646
17742TIP3    H174717   1.192   2.817  13.919 -0.2315 -0.1117 -0.6302
17742TIP3    H274718   1.335   2.768  13.933 -0.5880 -1.1557 -0.5495
17743TIP3   OH274719   6.301   0.884  15.456 -0.2132  0.0778 -0.0354
17743TIP3    H174720   6.237   0.924  15.515  0.3788 -0.8838  1.3103
17743TIP3    H274721   6.257   0.883  15.371 -0.5394  2.8174  0.0065
17744TIP3   OH274722   3.088   1.824  13.356 -0.1009  0.0888 -0.6419
17744TIP3    H174723   3.109   1.769  13.431 -1.0253 -0.0578 -0.4720
17744TIP3    H274724   3.150   1.798  13.288  0.2725 -0.2840 -0.1598
17745TIP3   OH274725   6.176   3.888   3.255 -0.0046 -0.1732  0.1995
17745TIP3    H174726   6.260   3.897   3.210 -0.9865  2.4359 -1.3960
17745TIP3    H274727   6.121   3.838   3.193 -0.2585  0.0792  0.2173
17746TIP3   OH274728   1.203   5.085  12.908  0.1603  0.0290  0.3415
17746TIP3    H174729   1.147   5.162  12.912 -0.2715 -0.3134  1.0149
17746TIP3    H274730   1.222   5.063  12.999 -0.7744 -1.4037  0.2304
17747TIP3   OH274731   6.053   4.756   4.623  0.9940 -0.2749  0.3223
17747TIP3    H174732   6.105   4.675   4.631  1.5844  0.0903  0.2718
17747TIP3    H274733   6.079   4.793   4.539 -0.6700 -0.9755 -0.5393
17748TIP3   OH274734   6.167   1.350   4.142  0.2909  0.1527 -0.4580
17748TIP3    H174735   6.187   1.294   4.217  0.2057  1.0702  0.2652
17748TIP3    H274736   6.143   1.289   4.072  2.1195 -0.8370 -0.3064
17749TIP3   OH274737   3.037   1.991   1.152  0.1342  0.1885 -0.4143
17749TIP3    H174738   2.953   1.964   1.189  0.4356 -0.2547 -0.0455
17749TIP3    H274739   3.023   1.991   1.057 -0.3948  0.4969 -0.3404
17750TIP3   OH274740   0.265   0.009  11.936  0.7999 -0.4862  0.5025
17750TIP3    H174741   0.231   0.041  12.020  0.7765  1.3916 -0.1722
17750TIP3    H274742   0.312   0.085  11.900 -0.5119 -0.7496 -1.8983
17751TIP3   OH274743   6.368   4.645  11.749 -0.2114 -0.6479 -0.0157
17751TIP3    H174744   6.417   4.597  11.815 -1.4408 -0.2340  1.2639
17751TIP3    H274745   6.303   4.695  11.799 -1.1880 -0.3085 -1.5393
17752TIP3   OH274746   3.144   0.358   5.669  0.2374 -0.7008 -0.1148
17752TIP3    H174747   3.098   0.421   5.613  0.9445 -1.7297 -1.9418
17752TIP3    H274748   3.128   0.389   5.758 -4.2244 -1.1445 -0.5637
17753TIP3   OH274749   4.801   3.798   5.758 -0.0536 -0.3326 -0.0521
17753TIP3    H174750   4.727   3.748   5.722 -1.3612  2.8668 -2.2363
17753TIP3    H274751   4.846   3.832   5.681  0.7910  1.7344  1.2958
17754TIP3   OH274752   0.341   2.567   5.652  0.1955  0.1701 -0.7805
17754TIP3    H174753   0.249   2.542   5.662  0.6284 -1.9345 -1.6547
17754TIP3    H274754   0.375   2.568   5.741 -0.2911 -0.6785 -0.5726
17755TIP3   OH274755   0.051   3.120  11.869 -0.2190 -0.5377  0.2149
17755TIP3    H174756   0.080   3.209  11.889 -1.1968 -0.1913  0.1446
17755TIP3    H274757   0.031   3.122  11.775  1.6722 -1.3902 -0.2510
17756TIP3   OH274758   3.994   4.115  15.499 -0.8167 -0.0517  0.6610
17756TIP3    H174759   4.031   4.055  15.563 -1.8205 -0.5307  0.7956
17756TIP3    H274760   3.941   4.060  15.441 -0.5532  0.4885 -0.1126
17757TIP3   OH274761   5.951   3.452   3.842 -0.0248 -0.0442  0.1926
17757TIP3    H174762   5.872   3.471   3.791  0.6300 -0.9808 -1.2433
17757TIP3    H274763   6.021   3.448   3.776  1.2702  0.9645  1.4509
17758TIP3   OH274764   3.750   0.737  12.555 -0.0027  0.4413  0.2477
17758TIP3    H174765   3.659   0.710  12.563  0.6540 -2.1220 -0.2013
17758TIP3    H274766   3.773   0.771  12.642 -1.2258  0.6899  0.4848
17759TIP3   OH274767   1.136   4.392   1.352 -0.2937 -0.0786  0.6122
17759TIP3    H174768   1.050   4.417   1.317 -1.4902 -0.0821  3.2769
17759TIP3    H274769   1.196   4.457   1.316 -1.4068  0.0554 -1.1570
17760TIP3   OH274770   4.612   0.932   5.630  0.1512 -0.1789 -0.0484
17760TIP3    H174771   4.667   1.000   5.589  0.5297 -0.3939  0.0920
17760TIP3    H274772   4.614   0.953   5.723 -1.9987  1.2466 -0.2566
17761TIP3   OH274773   4.898   6.488   4.313  0.0329  0.4440 -0.0702
17761TIP3    H174774   4.880   6.405   4.268 -0.5230  0.6539 -0.2455
17761TIP3    H274775   4.829   6.547   4.282 -0.1863  0.6776  0.8326
17762TIP3   OH274776   1.395   4.068   3.717  0.3327  0.1819  0.0095
17762TIP3    H174777   1.446   4.010   3.773  1.5242  1.7358  0.6020
17762TIP3    H274778   1.426   4.049   3.628  1.7033  0.8035  0.3227
17763TIP3   OH274779   1.019   6.168   1.155  0.3359 -0.1116 -0.6982
17763TIP3    H174780   0.985   6.156   1.244 -1.0154  0.8522 -1.0418
17763TIP3    H274781   1.052   6.258   1.154 -0.1808  0.0767 -1.3214
17764TIP3   OH274782   6.181   3.047   1.460 -0.0412 -0.1009  0.5762
17764TIP3    H174783   6.225   2.980   1.407  1.1780  0.8743  0.3017
17764TIP3    H274784   6.244   3.069   1.528 -0.0433  1.4053  0.1248
17765TIP3   OH274785   2.648   6.042   3.895  0.1282 -0.2375  0.0219
17765TIP3    H174786   2.624   5.962   3.942 -2.3923  0.9422  0.8989
17765TIP3    H274787   2.730   6.070   3.936  1.4581 -2.6813 -0.7822
17766TIP3   OH274788   2.348   1.905   4.335 -0.2021  0.4319  0.2995
17766TIP3    H174789   2.302   1.981   4.371  0.0201  1.1717 -0.9464
17766TIP3    H274790   2.313   1.831   4.385 -0.2726  1.3520  1.6794
17767TIP3   OH274791   2.439   3.756   2.535 -0.3684  0.3272 -0.2739
17767TIP3    H174792   2.383   3.832   2.550 -0.4319  0.0340  1.1200
17767TIP3    H274793   2.432   3.705   2.616  2.8122  0.8692  0.4894
17768TIP3   OH274794   0.938   1.366   5.335  0.4163  0.2386 -0.4456
17768TIP3    H174795   0.964   1.386   5.425  1.5308  0.0788 -0.7220
17768TIP3    H274796   1.000   1.299   5.307 -1.0474 -1.0403 -0.7317
17769TIP3   OH274797   0.395   2.360  17.086 -0.1122  0.0032  0.1692
17769TIP3    H174798   0.352   2.357  17.001 -0.8793  1.3664  0.4682
17769TIP3    H274799   0.448   2.439  17.084  1.7065 -1.1612  0.1556
17770TIP3   OH274800   6.594   6.323  16.308 -0.7352  0.1627 -0.0766
17770TIP3    H174801   6.523   6.270  16.270 -1.2102  0.5138  0.3136
17770TIP3    H274802   6.558   6.411  16.312 -0.5424  0.2061  0.8007
17771TIP3   OH274803   6.338   2.431  10.579 -0.3136 -0.0623  0.2421
17771TIP3    H174804   6.279   2.372  10.531  0.7161  0.6210 -2.0192
17771TIP3    H274805   6.281   2.499  10.614 -1.1083 -0.5833 -0.0033
17772TIP3   OH274806   6.264   4.833  12.911  0.3656  0.8517 -0.2764
17772TIP3    H174807   6.224   4.823  12.825 -2.8437  0.5316  1.1015
17772TIP3    H274808   6.316   4.754  12.923 -0.0991  0.3488 -1.4436
17773TIP3   OH274809   1.091   3.041   0.880  0.3446 -0.0083 -0.2444
17773TIP3    H174810   1.041   3.114   0.916  0.4581  1.8374 -3.3991
17773TIP3    H274811   1.025   2.987   0.835  0.6522 -0.0342 -0.6683
17774TIP3   OH274812   2.103   2.113  16.627 -0.5731 -0.4067 -0.6948
17774TIP3    H174813   2.045   2.037  16.615 -2.1211  0.6320 -0.0596
17774TIP3    H274814   2.050   2.176  16.676  1.1697  0.5378  0.0393
17775TIP3   OH274815   3.588   6.443   3.443 -0.5799  0.9563  0.2447
17775TIP3    H174816   3.622   6.354   3.440  1.5016  1.6991  0.4126
17775TIP3    H274817   3.532   6.450   3.366 -1.2156 -0.6309  0.5230
17776TIP3   OH274818   4.668   2.362  16.471 -0.6228 -0.0637 -0.2876
17776TIP3    H174819   4.636   2.407  16.549 -3.0265 -1.3957 -0.4059
17776TIP3    H274820   4.636   2.415  16.398 -0.0019  0.1658 -0.3979
17777TIP3   OH274821   1.528   3.434  10.551 -0.0323  0.1978 -0.1918
17777TIP3    H174822   1.481   3.355  10.523 -0.6860 -0.0055  1.3587
17777TIP3    H274823   1.619   3.407  10.556 -0.3527 -0.7282  1.1195
17778TIP3   OH274824   4.860   0.141  16.378  0.0202 -0.5913 -0.4642
17778TIP3    H174825   4.805   0.217  16.399  0.8400  0.4154 -1.8134
17778TIP3    H274826   4.801   0.066  16.383 -0.7981  0.1030  0.9559
17779TIP3   OH274827   4.960   3.160   4.912  0.2063 -0.1337  0.2166
17779TIP3    H174828   5.021   3.233   4.903 -1.4088  1.2261 -0.0336
17779TIP3    H274829   4.938   3.158   5.006  0.6722 -0.6753  0.3211
17780TIP3   OH274830   6.173   6.449   3.987 -0.2592 -0.6309  0.4479
17780TIP3    H174831   6.145   6.531   3.947 -1.3302  0.0612  2.4896
17780TIP3    H274832   6.260   6.432   3.950 -0.7339  0.5008 -1.2796
17781TIP3   OH274833   5.797   4.242   2.611  0.6315 -0.8482  0.0900
17781TIP3    H174834   5.856   4.315   2.595 -1.8346  1.3765  0.4593
17781TIP3    H274835   5.768   4.215   2.523 -1.4535  1.3636  0.0033
17782TIP3   OH274836   4.721   1.013   0.235  0.2238 -0.6313  0.0488
17782TIP3    H174837   4.665   1.090   0.235 -1.1801 -1.5947  1.2894
17782TIP3    H274838   4.795   1.037   0.180 -0.8157  1.1202 -0.6607
17783TIP3   OH274839   6.516   1.819  13.160  0.3005  0.6062 -0.2674
17783TIP3    H174840   6.492   1.752  13.224 -0.8932  2.2692  1.1268
17783TIP3    H274841   6.605   1.796  13.133  1.5159  0.6777  3.2137
17784TIP3   OH274842   1.728   4.048  11.716  0.4004 -0.1230 -0.5379
17784TIP3    H174843   1.771   3.963  11.722 -0.6583 -0.5857  1.2007
17784TIP3    H274844   1.776   4.103  11.778 -0.7256 -0.3141  0.5355
17785TIP3   OH274845   5.929   5.340   4.373  0.7584 -0.8495  0.2100
17785TIP3    H174846   5.855   5.398   4.351  0.3732 -2.1823 -2.4771
17785TIP3    H274847   6.005   5.398   4.372  0.0479  0.1401  0.7093
17786TIP3   OH274848   2.188   2.514   0.899  0.5716 -0.1281  0.5510
17786TIP3    H174849   2.119   2.527   0.965  0.7551  2.5583  0.2988
17786TIP3    H274850   2.268   2.544   0.942  0.6047  2.1912 -0.9879
17787TIP3   OH274851   3.319   2.766   4.685 -0.6962  0.5937 -0.1362
17787TIP3    H174852   3.248   2.796   4.741 -0.0915  0.0328  0.9664
17787TIP3    H274853   3.293   2.679   4.657 -1.1513  1.0023 -1.0297
17788TIP3   OH274854   1.433   4.749  12.196  0.5112 -0.2521  0.7213
17788TIP3    H174855   1.346   4.737  12.158  0.2668  1.9617  0.4413
17788TIP3    H274856   1.481   4.797  12.129  0.9448  1.3036  2.0835
17789TIP3   OH274857   1.745   4.703   1.751  0.2559  0.1255  0.3183
17789TIP3    H174858   1.673   4.654   1.709  0.5462 -0.4870  0.5288
17789TIP3    H274859   1.708   4.789   1.768 -0.4802 -0.2200  0.5300
17790TIP3   OH274860   2.181   6.059  14.067  0.1344  0.3881 -0.1114
17790TIP3    H174861   2.187   6.048  13.972 -0.9125 -0.3084 -0.1096
17790TIP3    H274862   2.239   5.993  14.103  0.6356  0.7402 -0.2618
17791TIP3   OH274863   0.318   0.344  14.573  0.0442  0.0082  0.1182
17791TIP3    H174864   0.285   0.255  14.559  0.5215 -0.1995  0.3140
17791TIP3    H274865   0.396   0.333  14.627  0.8561  0.4392 -0.9340
17792TIP3   OH274866   5.165   6.367   4.535  0.0626 -0.1245  0.0887
17792TIP3    H174867   5.230   6.411   4.590 -0.7294  0.7607  0.3408
17792TIP3    H274868   5.156   6.423   4.459 -1.2619  0.4047  0.6010
17793TIP3   OH274869   5.663   3.282   0.123  0.4250 -0.0462 -0.1022
17793TIP3    H174870   5.657   3.281   0.219  0.8296  1.4741 -0.0391
17793TIP3    H274871   5.751   3.251   0.105  0.9718  1.2773  0.1307
17794TIP3   OH274872   4.618   3.413  13.969  0.0800 -0.4652 -0.7284
17794TIP3    H174873   4.654   3.343  14.022 -1.4224 -1.2091 -0.6297
17794TIP3    H274874   4.568   3.369  13.900 -1.8665  0.4397  0.0082
17795TIP3   OH274875   3.324   3.609   0.062 -0.4060  0.1986  0.4859
17795TIP3    H174876   3.264   3.668   0.107 -0.6280 -0.3765  0.9558
17795TIP3    H274877   3.309   3.524   0.103  0.8850  0.0859  0.7578
17796TIP3   OH274878   1.882   2.014   2.851  0.2231 -0.3858 -0.0331
17796TIP3    H174879   1.869   1.919   2.860 -0.4516 -0.3317 -0.3528
17796TIP3    H274880   1.806   2.053   2.894 -0.2496 -0.0259 -1.1432
17797TIP3   OH274881   1.566   4.448  14.555  0.3727 -0.0359  0.0547
17797TIP3    H174882   1.494   4.395  14.590 -0.4680  0.6047 -0.6702
17797TIP3    H274883   1.635   4.384  14.535 -0.3934 -0.7810 -0.2293
17798TIP3   OH274884   2.772   3.657  11.225 -0.5117  0.5207  0.1710
17798TIP3    H174885   2.715   3.646  11.301 -0.1744  0.5151  0.4288
17798TIP3    H274886   2.714   3.682  11.154 -0.7598  1.1151  0.5760
17799TIP3   OH274887   0.591   0.325  12.870  0.4301 -0.4714  0.3072
17799TIP3    H174888   0.551   0.280  12.796 -0.6077  2.6938 -1.2596
17799TIP3    H274889   0.521   0.334  12.934  0.9173 -1.8797  1.0768
17800TIP3   OH274890   4.698   3.548   0.150 -0.4113 -0.5556 -0.2033
17800TIP3    H174891   4.693   3.606   0.226  0.9224 -0.2677 -0.2982
17800TIP3    H274892   4.688   3.460   0.186  2.0142 -0.5797  0.6537
17801TIP3   OH274893   2.924   1.052   5.716  0.1796  0.5924 -0.0448
17801TIP3    H174894   2.933   0.970   5.765 -0.1318  1.1205  0.9080
17801TIP3    H274895   2.858   1.032   5.649 -0.5871  0.3408  0.7781
17802TIP3   OH274896   2.095   6.336  12.118 -0.5669  0.4513  0.2405
17802TIP3    H174897   2.142   6.367  12.195  0.7404 -0.1804 -0.2775
17802TIP3    H274898   2.128   6.389  12.046  1.2847 -1.6111 -0.5609
17803TIP3   OH274899   3.239   4.789   3.412  0.4839 -1.1610  0.2134
17803TIP3    H174900   3.259   4.782   3.319 -2.5855 -0.0121 -0.6675
17803TIP3    H274901   3.310   4.844   3.448  0.3858  0.5456 -2.0114
17804TIP3   OH274902   1.957   0.217   4.667 -0.0735  0.4341  0.4530
17804TIP3    H174903   1.998   0.251   4.746  2.6329 -0.1227 -0.6006
17804TIP3    H274904   1.999   0.265   4.595 -0.5246 -0.9119 -0.7626
17805TIP3   OH274905   3.838   2.531  15.959  0.4736  1.0188 -0.0413
17805TIP3    H174906   3.911   2.503  16.013 -0.1631  1.2609  0.9746
17805TIP3    H274907   3.836   2.626  15.968  1.2548  1.2266 -1.6858
17806TIP3   OH274908   6.294   2.385   6.017 -0.1498 -0.5286 -0.0578
17806TIP3    H174909   6.295   2.478   6.036 -0.9409 -0.1089 -1.8506
17806TIP3    H274910   6.234   2.347   6.081 -1.7692  0.5924 -0.8701
17807TIP3   OH274911   5.779   6.310   2.994 -0.1409  0.0118 -0.0846
17807TIP3    H174912   5.759   6.384   3.051  0.2139 -0.2611  0.4009
17807TIP3    H274913   5.798   6.350   2.909 -0.0595  0.4708  0.1456
17808TIP3   OH274914   2.974   1.150   3.484  0.4568  0.0795 -0.3917
17808TIP3    H174915   3.063   1.127   3.508  1.0132 -0.6757 -2.9465
17808TIP3    H274916   2.978   1.242   3.458  0.4147  0.1299 -0.2230
17809TIP3   OH274917   5.001   0.906  13.763  0.5089 -0.5022  0.2603
17809TIP3    H174918   4.954   0.983  13.730  0.4082  0.3542  2.2272
17809TIP3    H274919   4.932   0.848  13.794  0.4380 -2.4568 -3.0843
17810TIP3   OH274920   3.920   4.952  15.198 -0.1753 -0.3280  0.2417
17810TIP3    H174921   4.014   4.961  15.187 -0.2254 -1.5292 -1.5533
17810TIP3    H274922   3.885   5.041  15.192  0.8115  0.1135  0.8656
17811TIP3   OH274923   3.348   4.094  16.661 -0.2161  0.3621 -0.6163
17811TIP3    H174924   3.395   4.062  16.738  1.6253  1.6682 -1.1306
17811TIP3    H274925   3.273   4.142  16.697  0.6593  1.0180  0.4068
17812TIP3   OH274926   3.957   2.807  15.433  0.2380  0.8337 -0.3633
17812TIP3    H174927   3.890   2.873  15.415 -0.3149  0.6549  0.9229
17812TIP3    H274928   3.920   2.753  15.502  0.9019 -0.5161 -1.0264
17813TIP3   OH274929   6.369   2.720   0.017  0.5736 -0.1339  0.0469
17813TIP3    H174930   6.412   2.767  -0.054  2.2090  1.9616  2.2243
17813TIP3    H274931   6.421   2.641   0.030  1.0723  0.1503 -0.2094
17814TIP3   OH274932   4.403   2.588  14.277  0.9477  0.5008 -0.1577
17814TIP3    H174933   4.392   2.573  14.184  1.3301  0.1356 -0.1470
17814TIP3    H274934   4.449   2.672  14.283 -1.4422  1.9164 -0.2090
17815TIP3   OH274935   0.659   2.049   0.137 -0.6415  0.2775 -0.3142
17815TIP3    H174936   0.568   2.033   0.112 -0.2742  0.5502 -1.9259
17815TIP3    H274937   0.711   2.007   0.069  0.4405  0.6179  0.2754
17816TIP3   OH274938   4.256   0.469  17.112 -0.1923 -0.3828 -0.2336
17816TIP3    H174939   4.196   0.492  17.040 -0.2735  1.1069  0.2676
17816TIP3    H274940   4.255   0.546  17.169  1.8830 -0.4790  0.0109
17817TIP3   OH274941   2.411   0.059  15.101 -0.2720  0.3990  0.4161
17817TIP3    H174942   2.415  -0.026  15.056  0.9250  0.8175 -0.3125
17817TIP3    H274943   2.320   0.087  15.089 -0.1315  0.2564 -1.3490
17818TIP3   OH274944   6.122   6.605  13.070 -0.0471 -0.1599  0.2133
17818TIP3    H174945   6.161   6.688  13.041  0.6358 -0.1218  1.1781
17818TIP3    H274946   6.028   6.620  13.065 -0.0532 -0.4943 -2.8894
17819TIP3   OH274947   4.233   5.122  15.560  0.1970 -0.4772 -0.8931
17819TIP3    H174948   4.211   5.082  15.644 -0.4982 -0.5782 -1.1141
17819TIP3    H274949   4.176   5.078  15.497 -0.1097  0.3962 -1.2411
17820TIP3   OH274950   2.614   3.202   4.546  0.0418 -0.5944 -0.1894
17820TIP3    H174951   2.647   3.209   4.457  3.3731  1.8905  1.0080
17820TIP3    H274952   2.572   3.286   4.563 -0.4007 -0.9698  0.6497
17821TIP3   OH274953   6.124   6.704   0.513  0.5050  0.1989 -0.2854
17821TIP3    H174954   6.213   6.686   0.544 -0.2778  0.1680  2.1259
17821TIP3    H274955   6.134   6.779   0.455  2.4027 -1.3298 -2.0917
17822TIP3   OH274956   2.331   2.410  15.951 -0.2019 -0.4652 -0.1644
17822TIP3    H174957   2.341   2.395  15.857 -2.5523  1.0639 -0.7551
17822TIP3    H274958   2.248   2.367  15.973 -0.1424 -0.0105  1.0182
17823TIP3   OH274959   4.038   4.765  14.295 -0.3995  0.4620 -0.1141
17823TIP3    H174960   4.096   4.703  14.337  0.3455  0.4733 -1.0887
17823TIP3    H274961   3.962   4.713  14.267 -0.9734  0.4865  1.3440
17824TIP3   OH274962   0.394   1.174   3.554 -0.4854 -0.0460 -0.2056
17824TIP3    H174963   0.470   1.116   3.563 -2.1343 -2.1390  1.0022
17824TIP3    H274964   0.388   1.220   3.637  0.0393  0.9646 -0.6960
17825TIP3   OH274965   3.878   1.323   4.420  0.4142 -0.4180 -0.5276
17825TIP3    H174966   3.844   1.235   4.435 -0.2746 -0.0804 -0.0568
17825TIP3    H274967   3.807   1.382   4.447  1.4996  0.3082  0.8948
17826TIP3   OH274968   2.257   1.204  13.334 -0.3572  0.4441  0.3761
17826TIP3    H174969   2.202   1.156  13.395  0.2753  0.3028  0.8384
17826TIP3    H274970   2.334   1.148  13.321 -0.2166  0.7384 -0.0911
17827TIP3   OH274971   2.211   3.525   3.971 -0.2300  0.1443  0.3775
17827TIP3    H174972   2.249   3.451   4.018 -0.7484 -1.4113 -1.5685
17827TIP3    H274973   2.269   3.599   3.992  0.6261 -0.9070  1.8930
17828TIP3   OH274974   2.523   4.826  12.201  0.6344  0.1836 -0.3615
17828TIP3    H174975   2.508   4.783  12.117  3.1556 -1.9437  0.1285
17828TIP3    H274976   2.569   4.907  12.178 -1.4879  1.2584 -1.1218
17829TIP3   OH274977   2.483   2.614  13.636  0.0402  0.4234 -0.7496
17829TIP3    H174978   2.551   2.577  13.692 -0.1284 -0.6509 -1.2348
17829TIP3    H274979   2.451   2.690  13.685  0.5501  0.0652  0.1705
17830TIP3   OH274980   4.237   2.839  15.024 -0.2181  0.4386 -0.4825
17830TIP3    H174981   4.209   2.770  14.964 -1.0932 -0.2377  0.6457
17830TIP3    H274982   4.257   2.914  14.969 -0.2700 -0.3877 -1.6564
17831TIP3   OH274983   1.203   3.874   1.094 -0.0753  0.3182  0.2635
17831TIP3    H174984   1.229   3.796   1.046 -1.3581 -0.5230  0.8829
17831TIP3    H274985   1.210   3.849   1.186 -0.5086  0.9341  0.4681
17832TIP3   OH274986   3.012   4.737  15.229  0.0875 -0.1863  0.1715
17832TIP3    H174987   2.988   4.795  15.302 -0.7717 -1.1241  0.6630
17832TIP3    H274988   3.083   4.683  15.263 -0.0052 -0.3169  0.1569
17833TIP3   OH274989   1.047   6.102   3.193  0.0532 -0.6044  0.6155
17833TIP3    H174990   0.985   6.072   3.127  0.5594 -1.4099  0.4825
17833TIP3    H274991   1.133   6.093   3.151  0.2591  0.7773  0.6881
17834TIP3   OH274992   4.383   5.762   5.480  0.5517  0.8557 -0.0113
17834TIP3    H174993   4.436   5.701   5.429 -0.4756 -0.4323  0.3942
17834TIP3    H274994   4.324   5.706   5.530 -0.7814  2.2007  0.0036
17835TIP3   OH274995   6.285   0.208  16.520 -0.0400 -0.4147  0.7577
17835TIP3    H174996   6.214   0.221  16.457 -0.3306 -1.3715  0.8826
17835TIP3    H274997   6.323   0.123  16.498  2.8439  1.1438 -1.0301
17836TIP3   OH274998   1.298   4.353   4.142 -0.0629  0.0242 -0.0825
17836TIP3    H174999   1.312   4.302   4.062 -2.1685 -3.2814  1.4344
17836TIP3    H275000   1.336   4.300   4.212 -0.7121  1.4766  1.4615
17837TIP3   OH275001   0.988   2.946  13.622  0.3666 -0.2182 -0.3505
17837TIP3    H175002   0.947   2.885  13.684  0.4171  0.1860  0.0832
17837TIP3    H275003   0.918   2.967  13.560 -0.8667  2.2911  1.7100
17838TIP3   OH275004   3.525   1.072   1.011 -0.1426 -0.1426  0.5453
17838TIP3    H175005   3.459   1.038   1.070  0.5350 -0.3227  1.2119
17838TIP3    H275006   3.480   1.081   0.927 -1.7128  2.0144  1.5107
17839TIP3   OH275007   3.558   2.767  12.204 -0.3877  0.4313 -0.5115
17839TIP3    H175008   3.577   2.719  12.123 -2.5188  0.0833 -0.8721
17839TIP3    H275009   3.570   2.703  12.274  0.5651  0.4817 -0.6143
17840TIP3   OH275010   5.663   5.745   5.127 -0.1849 -0.3357 -0.1517
17840TIP3    H175011   5.631   5.832   5.105  0.4218 -0.0013  0.2635
17840TIP3    H275012   5.756   5.758   5.147 -0.4294 -0.8006  1.4260
17841TIP3   OH275013   4.787   2.928  12.722  0.2241 -0.4619 -0.2839
17841TIP3    H175014   4.825   3.013  12.702 -0.9289 -0.1979 -1.5005
17841TIP3    H275015   4.741   2.903  12.642 -1.2871 -1.2284  0.7843
17842TIP3   OH275016   5.998   1.247   1.291  0.4965  0.4339 -0.1306
17842TIP3    H175017   6.029   1.281   1.207  0.1310 -0.8477 -0.8121
17842TIP3    H275018   6.027   1.311   1.355  3.2756  0.0602 -0.8957
17843TIP3   OH275019   0.992   1.024  14.005 -0.0063 -0.1381  0.1179
17843TIP3    H175020   1.050   1.096  14.028 -0.2019  0.2942 -0.6985
17843TIP3    H275021   1.049   0.947  14.003  0.1900 -0.0239  1.0647
17844TIP3   OH275022   0.299   1.093   6.142 -0.2455 -0.3575  0.2089
17844TIP3    H175023   0.304   1.139   6.226  0.7789  1.2708 -0.6917
17844TIP3    H275024   0.390   1.083   6.115 -0.6116  1.3428 -1.8318
17845TIP3   OH275025   0.264   3.828   2.915 -0.5183  0.1397 -0.0841
17845TIP3    H175026   0.287   3.880   2.992 -0.8823 -0.2924  0.3228
17845TIP3    H275027   0.206   3.759   2.949 -1.7190  0.6954 -0.9519
17846TIP3   OH275028   2.126   6.730   5.256 -0.5941 -0.0857  0.1655
17846TIP3    H175029   2.152   6.712   5.166  0.9350  3.3340 -0.2487
17846TIP3    H275030   2.058   6.797   5.248  0.8443  1.6311  1.4906
17847TIP3   OH275031   1.449   0.952  11.371  0.2327  0.6413 -0.3283
17847TIP3    H175032   1.400   0.871  11.360 -0.1023  0.7196  0.4921
17847TIP3    H275033   1.476   0.952  11.463 -0.3898  1.7942 -0.1221
17848TIP3   OH275034   2.163   2.787   2.394  0.3743  0.2994 -0.6791
17848TIP3    H175035   2.248   2.765   2.355  0.3239  1.1496 -1.3011
17848TIP3    H275036   2.116   2.834   2.325 -1.7813 -2.6311 -1.3663
17849TIP3   OH275037   0.476   4.467   0.633  0.2622  0.4847  0.0987
17849TIP3    H175038   0.516   4.552   0.651  0.5672  0.5311 -0.7755
17849TIP3    H275039   0.445   4.474   0.543 -3.1321  1.0162  1.1563
17850TIP3   OH275040   6.395   5.632   0.255 -0.2949 -0.2866 -0.4904
17850TIP3    H175041   6.464   5.623   0.189 -0.6741  0.1171 -0.9477
17850TIP3    H275042   6.348   5.711   0.229 -2.8432 -2.1694 -1.9819
17851TIP3   OH275043   0.240   6.415   1.137  0.3004  0.4491  0.1541
17851TIP3    H175044   0.175   6.408   1.207 -0.2923 -0.0233 -0.4342
17851TIP3    H275045   0.287   6.497   1.156 -0.6373  0.9344  0.4453
17852TIP3   OH275046   1.769   6.418   1.541  0.1960  0.2942  0.1030
17852TIP3    H175047   1.770   6.474   1.463 -0.9939 -0.2906 -0.3542
17852TIP3    H275048   1.859   6.421   1.573  0.3060  1.9726 -0.2606
17853TIP3   OH275049   4.345   5.331   3.674 -0.4783 -0.7856  0.7847
17853TIP3    H175050   4.260   5.364   3.704 -0.5918  0.2835 -0.5869
17853TIP3    H275051   4.323   5.257   3.618 -0.4865 -0.6486  0.6080
17854TIP3   OH275052   1.456   3.227  15.167 -0.1234  0.2565 -0.3051
17854TIP3    H175053   1.367   3.242  15.196 -0.0818 -1.0635  0.6047
17854TIP3    H275054   1.461   3.269  15.081 -0.6965  2.9893  0.8954
17855TIP3   OH275055   3.947   4.453   3.657 -0.2681 -0.1527  0.2126
17855TIP3    H175056   3.881   4.385   3.667  0.9720 -1.1829  2.1523
17855TIP3    H275057   3.972   4.449   3.565 -3.3729  0.8365 -0.8080
17856TIP3   OH275058   1.398   3.697   3.449 -0.0923  0.4476 -0.2190
17856TIP3    H175059   1.415   3.763   3.517 -2.0010  0.3331  0.4404
17856TIP3    H275060   1.361   3.747   3.376  0.1141  0.3261 -0.4077
17857TIP3   OH275061   3.352   3.555  11.474 -0.4053 -0.4832 -0.0900
17857TIP3    H175062   3.361   3.588  11.563 -1.9235  1.4538 -0.5728
17857TIP3    H275063   3.373   3.462  11.480  1.5089 -0.0061  1.8869
17858TIP3   OH275064   5.712   6.418  13.455  0.5091  0.2645 -0.4801
17858TIP3    H175065   5.710   6.499  13.405 -0.0784  0.8673  0.4793
17858TIP3    H275066   5.672   6.441  13.539 -0.7314 -1.3146 -0.6072
17859TIP3   OH275067   2.929   5.648   3.047  0.2529  0.0188  0.5259
17859TIP3    H175068   2.908   5.590   3.120 -1.1910  0.3727  0.4153
17859TIP3    H275069   2.889   5.732   3.070  0.0013  0.2117 -0.5504
17860TIP3   OH275070   2.770   6.264   1.090  0.5577 -0.8690 -0.9588
17860TIP3    H175071   2.801   6.177   1.064 -0.5333 -0.6353 -3.1934
17860TIP3    H275072   2.701   6.246   1.154  1.2154 -1.5830 -0.4228
17861TIP3   OH275073   0.041   0.143  13.080 -0.0645  0.7476 -0.4665
17861TIP3    H175074   0.129   0.150  13.044  0.5254 -0.7694  0.5675
17861TIP3    H275075   0.047   0.187  13.165  0.3713 -1.2512  0.6135
17862TIP3   OH275076   5.424   1.694  14.002 -0.3079 -0.0908  0.3560
17862TIP3    H175077   5.350   1.692  13.941 -0.0666 -0.0101  0.0597
17862TIP3    H275078   5.399   1.760  14.067 -0.5852 -0.2073  0.3680
17863TIP3   OH275079   3.815   6.021   2.124 -0.1833 -1.0733  0.1871
17863TIP3    H175080   3.732   6.008   2.077  0.0696 -2.0020 -0.0260
17863TIP3    H275081   3.790   6.067   2.204 -0.8236 -0.7966 -0.1611
17864TIP3   OH275082   2.553   0.068   6.021 -0.2484  0.1766 -0.0099
17864TIP3    H175083   2.463   0.039   6.038  0.3900 -0.8623  1.9073
17864TIP3    H275084   2.605   0.024   6.088  1.6619  0.9973 -0.8929
17865TIP3   OH275085   3.053   2.203   2.422  0.7155  0.8538  0.0104
17865TIP3    H175086   3.020   2.269   2.361 -0.2993 -0.0122 -0.4147
17865TIP3    H275087   2.991   2.205   2.495  1.5118  1.3729  0.6871
17866TIP3   OH275088   2.707   6.284  15.206 -0.1082 -0.5729  0.5820
17866TIP3    H175089   2.626   6.327  15.235  0.8789  2.8376 -1.2602
17866TIP3    H275090   2.759   6.275  15.286  1.0761  5.2482  0.8797
17867TIP3   OH275091   1.034   0.149  10.225 -0.3020  0.2551 -0.0434
17867TIP3    H175092   0.966   0.211  10.251  1.2718  1.7630  0.6923
17867TIP3    H275093   1.105   0.164  10.288  2.1309  1.2655 -2.7774
17868TIP3   OH275094   3.972   2.160   5.468  0.0882 -0.8035 -0.1596
17868TIP3    H175095   3.909   2.111   5.521  0.4251  0.4022  1.4424
17868TIP3    H275096   4.038   2.096   5.444  0.0797 -1.3281  1.1565
17869TIP3   OH275097   3.200   5.930  14.879 -0.2056  0.0832  0.7111
17869TIP3    H175098   3.130   5.867  14.864 -1.4502  1.6884 -0.5788
17869TIP3    H275099   3.250   5.894  14.952 -1.3720 -1.9341  0.5766
17870TIP3   OH275100   0.272   5.604  16.821  0.9935 -0.2751 -0.2101
17870TIP3    H175101   0.366   5.622  16.811  0.7726  2.0775  1.1708
17870TIP3    H275102   0.257   5.609  16.915 -1.0174  2.7506 -0.5387
17871TIP3   OH275103   1.018   2.801  12.905  0.1921 -0.3546  0.0905
17871TIP3    H175104   0.942   2.845  12.869  0.0889  0.8702  1.6892
17871TIP3    H275105   1.073   2.782  12.829 -0.3110  1.4970 -0.7963
17872TIP3   OH275106   1.367   2.940   0.664  0.4592  0.1509  0.2041
17872TIP3    H175107   1.434   2.879   0.633  1.7413  1.7060 -0.2334
17872TIP3    H275108   1.306   2.948   0.591  1.5643  1.1216 -0.6710
17873TIP3   OH275109   3.618   5.602   6.002 -0.1233 -0.2333  0.3006
17873TIP3    H175110   3.624   5.692   5.969  2.4221 -0.5215 -0.2259
17873TIP3    H275111   3.688   5.595   6.066 -0.8996 -1.6102  1.0550
17874TIP3   OH275112   5.177   6.599  14.841 -0.3733 -0.5318 -0.0672
17874TIP3    H175113   5.216   6.669  14.789 -0.4719  1.6888  2.6143
17874TIP3    H275114   5.083   6.615  14.835 -0.3590  0.1897  1.2639
17875TIP3   OH275115   6.550   5.046   5.965 -0.3507  0.8014 -1.3068
17875TIP3    H175116   6.603   4.981   6.012 -0.7752 -0.2989 -2.3062
17875TIP3    H275117   6.493   5.083   6.032  0.8754  1.1850 -0.4408
17876TIP3   OH275118   6.714   5.504   4.786  0.3442  0.9370 -0.1027
17876TIP3    H175119   6.804   5.477   4.799 -0.2909 -1.1898  0.2198
17876TIP3    H275120   6.668   5.475   4.865 -0.9563  0.2700 -1.0524
17877TIP3   OH275121   1.763   2.819   5.340  0.6634  0.2354  0.3543
17877TIP3    H175122   1.705   2.747   5.362 -0.7521  0.7560 -1.4666
17877TIP3    H275123   1.797   2.849   5.424 -0.5386 -1.0522  1.3375
17878TIP3   OH275124   4.901   0.588   0.856  0.2882  0.6355 -0.0102
17878TIP3    H175125   4.876   0.674   0.890 -3.1618 -0.4069  0.4592
17878TIP3    H275126   4.867   0.587   0.766 -1.0193 -0.7030  0.4679
17879TIP3   OH275127   1.927   2.182  15.116 -0.4306  0.0352 -0.0426
17879TIP3    H175128   1.947   2.193  15.023 -1.5856 -0.5181 -0.3730
17879TIP3    H275129   1.963   2.097  15.139 -2.6403 -1.1662 -0.7503
17880TIP3   OH275130   4.329   4.167   1.759  0.0537  0.5259 -0.3353
17880TIP3    H175131   4.274   4.089   1.761  0.7021  0.0771  0.1806
17880TIP3    H275132   4.305   4.216   1.838 -0.1323  0.7087 -0.5008
17881TIP3   OH275133   4.394   5.535   0.399 -0.2048 -0.1242  0.0196
17881TIP3    H175134   4.308   5.562   0.365 -0.5364 -0.2471  0.7488
17881TIP3    H275135   4.393   5.440   0.395  0.3699 -0.1035 -1.0917
17882TIP3   OH275136   2.686   2.935  12.410  0.1903 -0.2134 -0.1579
17882TIP3    H175137   2.591   2.950  12.408  0.1789  1.1295  3.5762
17882TIP3    H275138   2.723   3.016  12.375 -0.0918  0.5880  1.2938
17883TIP3   OH275139   5.176   5.697   2.336 -0.0793 -0.2391  0.3168
17883TIP3    H175140   5.106   5.729   2.393 -0.3456  0.2275 -0.2488
17883TIP3    H275141   5.175   5.758   2.262  1.6251  0.4285  0.7835
17884TIP3   OH275142   2.392   4.760  14.248 -0.1995 -0.1908  0.3947
17884TIP3    H175143   2.464   4.779  14.309  0.8162 -0.1429 -0.7627
17884TIP3    H275144   2.435   4.752  14.163 -1.4855 -0.9339 -0.2173
17885TIP3   OH275145   2.498   3.148   3.545 -0.5409  0.5185  0.2441
17885TIP3    H175146   2.492   3.221   3.606 -0.3338  1.4893 -0.8557
17885TIP3    H275147   2.434   3.168   3.477 -1.0789 -0.7599  0.3471
17886TIP3   OH275148   4.392   2.528  16.144 -0.6109  0.0022 -0.3350
17886TIP3    H175149   4.485   2.505  16.146 -1.0575 -2.0736  2.1795
17886TIP3    H275150   4.364   2.505  16.055  1.1175 -0.0220 -0.9122
17887TIP3   OH275151   6.083   6.558   2.702 -0.0204  0.1794  0.0474
17887TIP3    H175152   6.143   6.532   2.771  0.6256 -0.2234 -0.6595
17887TIP3    H275153   6.117   6.642   2.670  0.8281 -0.5659 -1.0918
17888TIP3   OH275154   3.013   6.744  16.732  0.0880  0.4982  0.1451
17888TIP3    H175155   3.003   6.798  16.654  1.2372 -0.7276 -0.9099
17888TIP3    H275156   3.057   6.665  16.701 -1.7756 -1.1955  1.5588
17889TIP3   OH275157   3.489   1.534   5.261 -0.1912 -0.3557  0.3086
17889TIP3    H175158   3.568   1.548   5.313  1.3610 -2.0687 -1.4226
17889TIP3    H275159   3.433   1.608   5.283  1.6255  0.5943  2.0871
17890TIP3   OH275160   3.814   0.800   2.449  0.2854 -0.7672  0.2328
17890TIP3    H175161   3.831   0.894   2.454 -0.1225 -0.7466  1.9222
17890TIP3    H275162   3.849   0.765   2.531 -1.7911 -1.6927  0.7890
17891TIP3   OH275163   3.734   3.798   5.813  0.2580 -0.0356  0.0428
17891TIP3    H175164   3.780   3.783   5.730 -0.2237  1.2492 -0.4841
17891TIP3    H275165   3.714   3.891   5.813 -3.9490 -0.7297 -0.6264
17892TIP3   OH275166   0.892   5.854   3.926 -0.2972  0.1842  0.7697
17892TIP3    H175167   0.831   5.854   4.000 -1.8474  0.8907 -0.4536
17892TIP3    H275168   0.874   5.772   3.880 -0.6454  0.6032  0.1547
17893TIP3   OH275169   2.699   2.579   2.329 -0.1919  0.0384 -0.4331
17893TIP3    H175170   2.682   2.490   2.361  0.0261  0.7769  1.9780
17893TIP3    H275171   2.631   2.633   2.370  0.6433  1.2179 -0.5515
17894TIP3   OH275172   5.899   5.436   1.629 -0.4871  0.4965  0.5997
17894TIP3    H175173   5.920   5.523   1.664 -0.4430  0.8526 -0.2799
17894TIP3    H275174   5.806   5.442   1.606 -0.9947 -0.3182  2.3043
17895TIP3   OH275175   2.792   1.192  16.457  0.0947  0.5527 -0.0999
17895TIP3    H175176   2.835   1.170  16.540 -0.3924  0.7938  0.2206
17895TIP3    H275177   2.833   1.134  16.393 -0.0457 -0.1633  0.4430
17896TIP3   OH275178   1.987   5.700  15.435  0.6481 -0.3785  0.6940
17896TIP3    H175179   1.918   5.654  15.483 -1.4427  0.2432 -1.5148
17896TIP3    H275180   1.968   5.793  15.449  0.5140 -0.1995 -0.6084
17897TIP3   OH275181   6.089   0.159  11.683 -0.0395  0.1118  0.1486
17897TIP3    H175182   6.123   0.102  11.614 -2.1526 -0.6638 -0.3176
17897TIP3    H275183   6.161   0.220  11.701  1.4173 -1.1609 -1.0413
17898TIP3   OH275184   0.959   5.839   4.886  0.3056 -0.1097  0.0350
17898TIP3    H175185   0.870   5.849   4.919  0.1043 -1.1665 -0.1423
17898TIP3    H275186   1.011   5.815   4.963  0.3276 -0.0497  0.0387
17899TIP3   OH275187   0.516   0.464   2.001 -0.1806  0.1837 -0.1787
17899TIP3    H175188   0.578   0.423   1.941 -2.3623 -3.1953 -0.4094
17899TIP3    H275189   0.503   0.552   1.966  1.8172 -0.2021 -2.1136
17900TIP3   OH275190   5.224   0.356   4.626  0.7152  0.3674 -0.0715
17900TIP3    H175191   5.282   0.429   4.605  0.3595  0.3276 -1.2687
17900TIP3    H275192   5.197   0.321   4.541  0.2813 -0.6864  0.4780
17901TIP3   OH275193   2.940   4.475  15.582 -0.2967 -0.4391  0.6477
17901TIP3    H175194   3.013   4.479  15.645 -0.4986 -1.6788  0.9881
17901TIP3    H275195   2.863   4.498  15.634 -0.3767 -0.8384  0.7090
17902TIP3   OH275196   2.150   6.572  11.104  0.0901 -0.4044  0.3872
17902TIP3    H175197   2.174   6.491  11.059  0.3018 -0.3034  0.3140
17902TIP3    H275198   2.138   6.636  11.034  0.8367 -0.1409  0.4900
17903TIP3   OH275199   4.260   5.676   3.283 -0.0188  0.2468  0.3574
17903TIP3    H175200   4.211   5.723   3.216 -0.7229 -0.9323  0.0079
17903TIP3    H275201   4.276   5.590   3.245 -0.9231 -0.6525  1.8949
17904TIP3   OH275202   1.387   2.611  14.022  0.1833  0.0339 -0.7446
17904TIP3    H175203   1.324   2.547  14.056  0.9488 -0.0534  0.5626
17904TIP3    H275204   1.396   2.587  13.930 -0.2267 -1.1818 -0.4992
17905TIP3   OH275205   4.126   6.822   1.639  0.4349  0.0547 -0.1473
17905TIP3    H175206   4.187   6.752   1.662 -0.7833 -1.1676 -0.5050
17905TIP3    H275207   4.047   6.802   1.689 -1.3322 -1.1305 -3.1895
17906TIP3   OH275208   5.369   2.509   3.932 -0.0622 -0.0513 -0.2497
17906TIP3    H175209   5.327   2.592   3.958 -1.5574 -1.0201  0.5436
17906TIP3    H275210   5.432   2.535   3.864 -0.6881  1.6970 -0.2215
17907TIP3   OH275211   0.917   2.078   3.869  0.0686 -0.0589  0.7142
17907TIP3    H175212   0.932   2.118   3.783 -0.9815 -2.1306 -0.5180
17907TIP3    H275213   0.958   2.138   3.931  1.9844  0.8829 -1.3288
17908TIP3   OH275214   3.138   1.861   4.132 -0.0093  0.1960 -0.0307
17908TIP3    H175215   3.164   1.859   4.040  1.5784  0.1704  0.3873
17908TIP3    H275216   3.060   1.918   4.134 -0.8963 -0.8864 -1.5469
17909TIP3   OH275217   6.096   5.827  14.820 -0.0894  0.3661 -0.1734
17909TIP3    H175218   6.191   5.834  14.822 -0.1597  1.5630 -0.3011
17909TIP3    H275219   6.070   5.866  14.737 -0.6409 -0.9229 -0.6402
17910TIP3   OH275220   3.347   5.250   2.743  1.1152 -0.3679  0.1221
17910TIP3    H175221   3.328   5.176   2.685 -0.6021  0.3350 -0.2668
17910TIP3    H275222   3.412   5.215   2.805  2.1583 -1.4628 -1.5104
17911TIP3   OH275223   3.763   4.679   3.543  0.1606  0.3203  0.1450
17911TIP3    H175224   3.713   4.648   3.467 -2.2423  2.0191  0.9070
17911TIP3    H275225   3.820   4.605   3.565 -0.4435 -0.9399 -2.1162
17912TIP3   OH275226   4.649   5.669   0.400  0.3806 -0.2099 -0.8279
17912TIP3    H175227   4.556   5.653   0.389  0.1101  1.8799 -2.2469
17912TIP3    H275228   4.671   5.628   0.484 -1.6373 -1.3236 -0.7913
17913TIP3   OH275229   0.108   0.713  16.247 -0.1806  0.1355  0.2206
17913TIP3    H175230   0.065   0.657  16.312  0.0681 -0.5156 -0.1678
17913TIP3    H275231   0.192   0.735  16.286  1.1295 -2.4222 -0.9246
17914TIP3   OH275232   5.268   5.662   0.877  0.0582 -0.6642  0.0743
17914TIP3    H175233   5.348   5.685   0.829  0.5880 -1.2872  0.6466
17914TIP3    H275234   5.212   5.739   0.866  2.0801  1.3973  2.5896
17915TIP3   OH275235   4.050   5.312  16.369  0.0335  0.3440  0.2386
17915TIP3    H175236   4.071   5.405  16.361  0.2110  0.1282 -3.3942
17915TIP3    H275237   3.963   5.303  16.330 -0.4505 -0.9148  1.5005
17916TIP3   OH275238   2.359   1.733   0.903  0.3872 -0.6379  0.3979
17916TIP3    H175239   2.379   1.825   0.888  0.5002 -0.6182  0.6650
17916TIP3    H275240   2.433   1.686   0.864 -0.2440 -0.6729 -0.8061
17917TIP3   OH275241   1.645   2.212   4.899 -0.0312 -0.3108  0.6407
17917TIP3    H175242   1.561   2.172   4.874 -0.8483  2.1617 -0.9512
17917TIP3    H275243   1.628   2.252   4.984 -0.2564 -0.4198  0.6470
17918TIP3   OH275244   2.279   1.088   5.457  0.0129  0.4956 -0.2836
17918TIP3    H175245   2.270   1.001   5.417  2.1290 -0.4145  1.0230
17918TIP3    H275246   2.260   1.074   5.550 -0.0936  1.5453 -0.1337
17919TIP3   OH275247   6.529   4.671  15.204  0.2183  0.3036  0.0864
17919TIP3    H175248   6.498   4.745  15.258 -0.6786  0.8271 -1.0940
17919TIP3    H275249   6.587   4.621  15.262 -1.3786  0.3572  1.8117
17920TIP3   OH275250   2.715   5.559  16.194 -0.5796  0.6964 -0.3188
17920TIP3    H175251   2.644   5.512  16.238  0.3962  1.7346  2.5177
17920TIP3    H275252   2.670   5.626  16.141 -1.7585  1.0563  1.0836
17921TIP3   OH275253   3.380   6.556  10.816  0.0420  0.2649 -0.1104
17921TIP3    H175254   3.407   6.466  10.802  0.4894  0.0243  1.9970
17921TIP3    H275255   3.285   6.551  10.828 -0.4769  0.5651 -3.2260
17922TIP3   OH275256   3.360   4.657   0.151  0.5052 -0.5979  0.1106
17922TIP3    H175257   3.382   4.661   0.245 -0.3972  0.9764  0.2988
17922TIP3    H275258   3.444   4.666   0.107  0.7183  1.6802  0.8122
17923TIP3   OH275259   5.495   0.356   2.277  0.3104  0.4833  0.3191
17923TIP3    H175260   5.537   0.420   2.334 -2.7559  1.4599  1.6271
17923TIP3    H275261   5.429   0.406   2.229  1.2567 -0.7685 -2.5031
17924TIP3   OH275262   5.370   2.284  16.909  0.2608 -0.2052  0.7322
17924TIP3    H175263   5.414   2.199  16.914  0.1348 -0.1908  2.5613
17924TIP3    H275264   5.286   2.270  16.953 -0.0714  0.6905  0.4060
17925TIP3   OH275265   6.036   0.912  13.308 -0.2961  0.4635 -0.3116
17925TIP3    H175266   5.984   0.987  13.278 -0.7104 -0.0696 -0.9441
17925TIP3    H275267   6.031   0.849  13.236 -0.3653 -0.3811  0.4247
17926TIP3   OH275268   3.761   5.493  15.097 -0.2756  0.3407 -0.1755
17926TIP3    H175269   3.682   5.467  15.144  1.0707 -1.6332  1.1682
17926TIP3    H275270   3.822   5.520  15.165  0.8953 -0.1844 -0.9739
17927TIP3   OH275271   3.240   0.382   2.361  0.2277  0.0561 -0.4242
17927TIP3    H175272   3.148   0.408   2.366  1.1400  3.6849  2.6991
17927TIP3    H275273   3.282   0.451   2.309  1.5872  0.2435  0.8420
17928TIP3   OH275274   1.176   2.687   0.403 -1.3030 -0.0460 -0.1932
17928TIP3    H175275   1.127   2.631   0.464 -0.2132 -1.3486 -0.4514
17928TIP3    H275276   1.173   2.774   0.443  0.3563 -1.0577  2.3842
17929TIP3   OH275277   0.119   5.967  11.459 -0.2478  0.9188  0.0766
17929TIP3    H175278   0.142   5.938  11.548 -0.8847  2.1753  0.6709
17929TIP3    H275279   0.137   6.061  11.459  2.8501  0.4636 -2.1584
17930TIP3   OH275280   0.132   0.033  13.698  0.1911  0.5379  0.4625
17930TIP3    H175281   0.039   0.053  13.711 -0.6399 -2.1909 -0.5047
17930TIP3    H275282   0.164   0.009  13.784 -0.8693 -1.4650  0.3494
17931TIP3   OH275283   4.867   2.259  16.708  0.5478 -0.0937  0.2636
17931TIP3    H175284   4.938   2.277  16.646  1.0671 -1.2593  0.4845
17931TIP3    H275285   4.794   2.312  16.677  1.2115  0.3732 -0.5523
17932TIP3   OH275286   2.449   4.461   6.229  0.7592 -0.7662  0.2218
17932TIP3    H175287   2.397   4.408   6.290  0.4151  0.5061  1.0690
17932TIP3    H275288   2.540   4.442   6.252  0.6393  0.4379  1.8390
17933TIP3   OH275289   0.245   3.314   0.778 -0.1911 -0.1438  0.0532
17933TIP3    H175290   0.158   3.307   0.817  0.8370 -2.1727  2.3275
17933TIP3    H275291   0.260   3.407   0.766 -3.8697  0.2292 -3.6285
17934TIP3   OH275292   3.010   6.093  12.640 -0.3035  0.5012 -0.0142
17934TIP3    H175293   3.047   6.101  12.727 -0.2216 -1.0729  0.1309
17934TIP3    H275294   3.084   6.106  12.581  0.0472 -0.4039  0.2156
17935TIP3   OH275295   3.169   1.335  13.530  0.3220 -0.2912  0.3273
17935TIP3    H175296   3.248   1.293  13.497 -0.0387 -1.5495  1.0241
17935TIP3    H275297   3.097   1.279  13.502 -0.2013  0.0319  0.9792
17936TIP3   OH275298   0.607   4.664   3.033 -0.2667 -0.0246  0.7982
17936TIP3    H175299   0.579   4.670   2.942 -2.2601 -0.0485  1.3601
17936TIP3    H275300   0.632   4.573   3.045  0.2911  0.0483  0.2084
17937TIP3   OH275301   2.128   6.325   5.996 -0.1568  0.1381  0.5433
17937TIP3    H175302   2.083   6.408   6.011 -1.6445 -0.5173 -0.1717
17937TIP3    H275303   2.203   6.328   6.056 -1.2635  1.1663  1.9424
17938TIP3   OH275304   6.308   2.248  11.701  0.3392  0.0584  0.1019
17938TIP3    H175305   6.212   2.251  11.700  0.3171 -0.1861  1.0144
17938TIP3    H275306   6.329   2.156  11.714  0.6550  0.3681  2.0547
17939TIP3   OH275307   5.754   4.402  15.634  0.0486  0.2097 -0.2310
17939TIP3    H175308   5.723   4.358  15.555  0.3707  0.4803 -0.5081
17939TIP3    H275309   5.842   4.432  15.612  1.6558 -2.8749  1.4149
17940TIP3   OH275310   3.166   3.220  16.438  0.2589  0.6708 -0.3758
17940TIP3    H175311   3.111   3.286  16.480  0.1818 -0.5915  1.6380
17940TIP3    H275312   3.250   3.225  16.484  0.7543  0.4032 -1.2373
17941TIP3   OH275313   3.614   0.675   2.820  0.3741  0.1359  0.2956
17941TIP3    H175314   3.700   0.697   2.785 -0.0537 -0.0487 -0.9527
17941TIP3    H275315   3.603   0.582   2.800 -0.6190  0.4457 -0.7699
17942TIP3   OH275316   4.574   5.529  11.480  0.0475 -0.7342  0.7978
17942TIP3    H175317   4.552   5.543  11.388  0.1649  1.1278  1.0181
17942TIP3    H275318   4.657   5.576  11.493 -0.5979  0.1335  2.1209
17943TIP3   OH275319   3.831   0.335   0.556 -0.6587 -0.6336  0.5831
17943TIP3    H175320   3.826   0.416   0.505  0.6962 -0.5691  0.5169
17943TIP3    H275321   3.752   0.287   0.533 -2.0453  1.1214  1.4172
17944TIP3   OH275322   2.856   0.895  14.032 -0.0335  0.0138  0.5233
17944TIP3    H175323   2.848   0.799  14.030  2.4080 -0.2210 -0.8550
17944TIP3    H275324   2.781   0.926  13.981 -0.9604 -1.1056  1.1401
17945TIP3   OH275325   5.425   3.547   0.192  0.2264 -0.3340 -0.0612
17945TIP3    H175326   5.364   3.614   0.160  3.2358  1.3203 -3.1152
17945TIP3    H275327   5.406   3.470   0.138  1.1652  0.4185 -1.5495
17946TIP3   OH275328   3.562   6.798   3.682  0.0981 -0.5720 -0.2761
17946TIP3    H175329   3.471   6.775   3.661 -0.6483 -0.8055  2.7584
17946TIP3    H275330   3.605   6.714   3.694  0.1530 -0.4474  0.4016
17947TIP3   OH275331   2.225   0.680  17.098  0.3702 -0.6669  0.4751
17947TIP3    H175332   2.160   0.662  17.165  0.2220  0.2683  0.5882
17947TIP3    H275333   2.184   0.652  17.016 -0.5570  0.7499  0.4214
17948TIP3   OH275334   1.613   1.834   1.771 -0.2123 -0.4949  0.4478
17948TIP3    H175335   1.572   1.862   1.853  0.8443  2.0227  0.2085
17948TIP3    H275336   1.684   1.897   1.757  0.0671 -1.2677 -2.0575
17949TIP3   OH275337   1.123   0.837  14.656 -0.0029  0.0537 -0.1054
17949TIP3    H175338   1.049   0.862  14.600 -0.8049 -0.1427  0.8519
17949TIP3    H275339   1.137   0.912  14.713  0.5258  0.0759 -0.2556
17950TIP3   OH275340   6.586   2.502  10.625  0.5880 -0.8449 -0.2989
17950TIP3    H175341   6.609   2.524  10.535 -0.8252 -0.8268 -0.6833
17950TIP3    H275342   6.492   2.483  10.622  0.2204  0.4749  1.4078
17951TIP3   OH275343   3.662   3.262   4.061 -0.2033 -0.2565 -0.4093
17951TIP3    H175344   3.573   3.237   4.086 -1.4688  2.4462 -1.6977
17951TIP3    H275345   3.667   3.240   3.968 -0.7623  2.2871 -1.1438
17952TIP3   OH275346   2.759   1.797   3.397 -0.0362 -0.2505  0.1343
17952TIP3    H175347   2.724   1.879   3.362 -0.3707  0.8249  2.7525
17952TIP3    H275348   2.736   1.798   3.490  3.2348 -1.4800  1.1251
17953TIP3   OH275349   1.472   3.628  16.459 -0.3819 -0.2255  0.3546
17953TIP3    H175350   1.489   3.719  16.438  1.0095 -0.4236  0.5363
17953TIP3    H275351   1.464   3.626  16.555  1.1897 -0.5168  0.5002
17954TIP3   OH275352   2.363   4.150   5.024  0.5441  0.2984  0.1580
17954TIP3    H175353   2.328   4.067   4.991 -0.5945 -0.2835  2.6332
17954TIP3    H275354   2.354   4.210   4.950  0.7016 -1.5620 -1.4673
17955TIP3   OH275355   1.862   5.341  13.309 -0.0874  0.7450 -0.4782
17955TIP3    H175356   1.946   5.304  13.284 -0.2430  0.4518 -0.5686
17955TIP3    H275357   1.877   5.436  13.312  0.5842  0.6252  0.7370
17956TIP3   OH275358   1.969   2.999  13.879  0.5021  0.0439  0.7374
17956TIP3    H175359   1.898   3.000  13.815 -0.6928 -0.2238  2.0175
17956TIP3    H275360   2.006   2.911  13.872  0.0433 -0.1531  0.7640
17957TIP3   OH275361   0.752   3.887   1.175  0.3838 -1.0114  0.1737
17957TIP3    H175362   0.807   3.880   1.098  0.5806 -0.8626  0.2976
17957TIP3    H275363   0.805   3.849   1.246 -0.5646 -2.9932 -0.1224
17958TIP3   OH275364   2.235   0.941  15.561  0.3559  0.3340 -0.9111
17958TIP3    H175365   2.269   0.875  15.501 -1.6833 -0.6312 -1.0840
17958TIP3    H275366   2.288   1.019  15.544  2.0259 -0.8922 -1.5457
17959TIP3   OH275367   0.858   5.546  11.161  0.1692  0.2406 -0.6158
17959TIP3    H175368   0.885   5.632  11.130 -0.1826 -0.0807 -1.8807
17959TIP3    H275369   0.823   5.502  11.083 -1.1011 -0.4812  0.3157
17960TIP3   OH275370   5.995   1.872   1.384  0.1526  0.0961 -0.0373
17960TIP3    H175371   6.016   1.861   1.291  0.4319  0.0178  0.0321
17960TIP3    H275372   5.945   1.954   1.388 -0.1523 -0.0764 -0.2982
17961TIP3   OH275373   1.460   0.442   2.607  0.0357 -0.0995  0.3166
17961TIP3    H175374   1.527   0.466   2.542 -0.2226  0.5952  0.3048
17961TIP3    H275375   1.484   0.491   2.686 -0.0780 -0.3702  0.5191
17962TIP3   OH275376   2.210   1.454   4.171  0.1367 -0.1698  0.3853
17962TIP3    H175377   2.253   1.470   4.255  2.0283 -1.8459 -0.1827
17962TIP3    H275378   2.254   1.377   4.136  0.1454  1.0753 -2.6473
17963TIP3   OH275379   3.671   0.972  12.367 -0.0448 -0.4830 -0.2036
17963TIP3    H175380   3.586   0.927  12.361 -0.4227  0.2785 -0.7224
17963TIP3    H275381   3.676   1.003  12.457 -1.0100  0.7655 -0.5474
17964TIP3   OH275382   0.596   4.907   3.179  0.0826 -0.0381  0.1378
17964TIP3    H175383   0.615   4.828   3.129  1.5636  1.3748 -1.6646
17964TIP3    H275384   0.500   4.912   3.182 -0.0287 -1.6460 -0.0675
17965TIP3   OH275385   0.896   2.392  16.357  0.0578 -0.2203  0.3403
17965TIP3    H175386   0.972   2.341  16.328  0.0718 -0.3367  0.5759
17965TIP3    H275387   0.824   2.362  16.302 -0.4621 -2.1505  1.9790
17966TIP3   OH275388   3.681   5.191   4.408 -0.0136 -0.1937  0.2064
17966TIP3    H175389   3.631   5.133   4.467 -2.1943  0.7491 -0.5979
17966TIP3    H275390   3.614   5.231   4.352  1.6762  1.3130 -0.8335
17967TIP3   OH275391   2.108   1.249   5.282  0.1244  0.2200  0.2145
17967TIP3    H175392   2.153   1.188   5.341  0.0887 -1.7183 -1.6093
17967TIP3    H275393   2.016   1.223   5.286 -0.0012  0.6050 -0.0820
17968TIP3   OH275394   6.738   2.872   2.540 -0.5956 -0.2521  0.1631
17968TIP3    H175395   6.815   2.818   2.556 -0.4107 -0.0627 -0.0826
17968TIP3    H275396   6.690   2.826   2.471  0.2748  0.6049 -1.0432
17969TIP3   OH275397   1.975   5.527   5.618 -0.3550 -0.0542 -0.4293
17969TIP3    H175398   1.996   5.440   5.652  1.2092  0.1042 -0.9131
17969TIP3    H275399   1.883   5.540   5.642  0.4392 -0.1366  3.2616
17970TIP3   OH275400   2.912   0.585  14.477 -0.0970  0.0967  0.0648
17970TIP3    H175401   2.884   0.662  14.527  1.2786  0.5092  0.2184
17970TIP3    H275402   2.976   0.541  14.532 -1.3799 -1.6042  0.2956
17971TIP3   OH275403   4.280   4.140   5.338 -0.8263 -0.5340 -0.4365
17971TIP3    H175404   4.328   4.083   5.276 -1.4327 -1.1982 -0.3098
17971TIP3    H275405   4.189   4.135   5.309 -1.1401 -0.9434  0.5661
17972TIP3   OH275406   1.713   1.806   0.403 -0.1200 -0.1755 -0.2442
17972TIP3    H175407   1.792   1.768   0.366 -0.4801  0.0329 -1.2804
17972TIP3    H275408   1.714   1.781   0.495  0.7025 -0.9049 -0.4451
17973TIP3   OH275409   5.231   4.118  11.368 -0.1953 -0.0514  1.0698
17973TIP3    H175410   5.198   4.137  11.456 -2.0508  0.4403  0.3139
17973TIP3    H275411   5.194   4.032  11.348 -4.0376  1.8528 -1.0562
17974TIP3   OH275412   5.611   5.212   4.192  0.5598 -0.0562 -0.0640
17974TIP3    H175413   5.637   5.289   4.242  0.7125  0.7526 -1.3477
17974TIP3    H275414   5.517   5.224   4.178  0.6494  0.0591 -0.5508
17975TIP3   OH275415   0.975   0.846   0.904 -0.1509 -0.8099  0.6166
17975TIP3    H175416   1.006   0.770   0.953  1.4415 -0.2968  0.4497
17975TIP3    H275417   0.992   0.920   0.961 -0.5147 -0.4469  0.2573
17976TIP3   OH275418   1.588   6.300  11.433 -0.1368  0.9416 -0.6083
17976TIP3    H175419   1.567   6.390  11.460  0.8151  1.0147 -0.0735
17976TIP3    H275420   1.550   6.293  11.345 -0.4951  1.7608 -0.5375
17977TIP3   OH275421   0.601   3.855  12.170 -0.3132 -0.3046 -0.5219
17977TIP3    H175422   0.522   3.838  12.119 -1.3086 -0.3804  0.9508
17977TIP3    H275423   0.568   3.898  12.250  1.1148 -0.4930  0.1978
17978TIP3   OH275424   2.684   6.810   1.471 -0.2243  0.7116 -0.2459
17978TIP3    H175425   2.655   6.820   1.561  1.0210  2.4025 -0.0018
17978TIP3    H275426   2.645   6.884   1.424 -1.4359 -0.5177 -1.3101
17979TIP3   OH275427   3.573   3.551   5.627 -0.5897 -0.6311 -0.1412
17979TIP3    H175428   3.534   3.625   5.581  2.0319 -1.0280 -3.3039
17979TIP3    H275429   3.530   3.474   5.591  0.0571 -0.8621 -0.4293
17980TIP3   OH275430   2.762   3.457  13.268 -0.5665 -0.1857 -0.9110
17980TIP3    H175431   2.822   3.452  13.342  0.3601  0.5171 -1.5933
17980TIP3    H275432   2.675   3.443  13.306  0.1313 -3.1667 -0.1652
17981TIP3   OH275433   2.169   6.186   3.578 -0.0420  0.5872  0.1020
17981TIP3    H175434   2.192   6.232   3.497 -1.5904  0.9983 -0.1241
17981TIP3    H275435   2.091   6.135   3.556  0.1656 -0.1661  1.0487
17982TIP3   OH275436   5.483   3.596  12.646 -0.3962 -0.5053  0.4956
17982TIP3    H175437   5.476   3.517  12.592 -0.3658 -1.5897  2.0111
17982TIP3    H275438   5.474   3.668  12.584  0.8439 -1.6621 -1.1151
17983TIP3   OH275439   3.614   2.818  13.380  0.0304  0.1518 -0.0292
17983TIP3    H175440   3.696   2.785  13.417  0.7833  0.1298 -1.6583
17983TIP3    H275441   3.630   2.912  13.368 -0.0155  0.0724 -0.7453
17984TIP3   OH275442   5.165   2.518  13.479 -0.4616 -0.5006 -0.3447
17984TIP3    H175443   5.134   2.589  13.535 -0.2879 -0.0744 -0.7894
17984TIP3    H275444   5.221   2.466  13.536 -0.3585 -0.1209 -0.0954
17985TIP3   OH275445   5.082   5.650   1.636  0.9163  0.1161  0.4375
17985TIP3    H175446   5.053   5.728   1.684 -2.4761 -0.0467 -1.0211
17985TIP3    H275447   5.038   5.577   1.680  1.6968 -0.6150  0.0189
17986TIP3   OH275448   0.743   4.548  12.026  0.2193 -0.5295 -0.2987
17986TIP3    H175449   0.825   4.593  12.007  0.5131 -0.4477  1.0326
17986TIP3    H275450   0.676   4.616  12.017  0.7498  0.5095  2.6098
17987TIP3   OH275451   0.544   0.200   6.129  0.7552  0.1215 -0.0551
17987TIP3    H175452   0.583   0.257   6.064 -0.2033 -1.5490 -2.2230
17987TIP3    H275453   0.616   0.178   6.189  1.3463  2.7256  0.2966
17988TIP3   OH275454   4.267   3.351  16.921 -0.1260  0.6265 -0.0501
17988TIP3    H175455   4.181   3.348  16.881  0.3060 -0.6332 -0.9862
17988TIP3    H275456   4.258   3.300  17.002 -0.3141  0.6688 -0.0461
17989TIP3   OH275457   3.965   1.894   1.803  0.2327  0.1167 -0.3583
17989TIP3    H175458   3.919   1.883   1.720  1.1240  1.1123 -1.0005
17989TIP3    H275459   3.954   1.986   1.825  0.1130 -0.1108  0.5738
17990TIP3   OH275460   3.558   0.503  15.212 -0.1291 -0.1054 -0.8031
17990TIP3    H175461   3.644   0.535  15.182 -0.6386  0.7296 -1.4110
17990TIP3    H275462   3.496   0.566  15.176 -0.7864  1.2330  2.3979
17991TIP3   OH275463   5.929   0.385   5.639  0.0949 -0.5844  0.5475
17991TIP3    H175464   5.928   0.304   5.691  1.6561 -2.1127 -1.6172
17991TIP3    H275465   5.981   0.446   5.692  0.1248 -1.4741  1.5879
17992TIP3   OH275466   5.861   2.095  15.303 -0.1367 -0.1677  0.1346
17992TIP3    H175467   5.877   2.015  15.352  0.6536 -0.6602 -0.8875
17992TIP3    H275468   5.908   2.083  15.220 -1.2023  0.7370 -0.6457
17993TIP3   OH275469   0.391   1.808  16.036 -0.1865 -0.4089  0.1070
17993TIP3    H175470   0.315   1.865  16.045  1.0224  0.9231  2.8374
17993TIP3    H275471   0.445   1.850  15.969 -0.8010 -0.1442 -0.2314
17994TIP3   OH275472   4.667   3.712  14.629 -0.1740  0.3654  0.1178
17994TIP3    H175473   4.720   3.678  14.557 -0.9343  0.0066 -0.2850
17994TIP3    H275474   4.683   3.807  14.627  0.2065  0.2970 -0.1949
17995TIP3   OH275475   4.212   0.988   4.855 -0.0529 -0.3098  0.3440
17995TIP3    H175476   4.139   0.975   4.794 -0.0547 -0.5315  0.3928
17995TIP3    H275477   4.276   1.038   4.805 -0.4129  0.2451  0.4373
17996TIP3   OH275478   2.204   6.843  12.520  0.4171  0.3927  0.2889
17996TIP3    H175479   2.148   6.915  12.491 -0.6095 -0.3338  0.4261
17996TIP3    H275480   2.293   6.876  12.510 -0.0291  1.4839 -0.1608
17997TIP3   OH275481   6.345   6.696  15.147 -0.3920 -0.2833 -0.3262
17997TIP3    H175482   6.407   6.747  15.199  0.0683 -2.0685  0.9353
17997TIP3    H275483   6.359   6.606  15.174 -4.7029 -0.6661  1.3565
17998TIP3   OH275484   4.047   5.593  11.207 -0.2939  0.6655 -0.0368
17998TIP3    H175485   4.011   5.603  11.119  0.7318  1.9121 -0.3353
17998TIP3    H275486   4.104   5.516  11.200 -1.6568 -0.3896  0.0511
17999TIP3   OH275487   4.573   4.516   0.422  0.4655 -0.0746 -0.2581
17999TIP3    H175488   4.653   4.466   0.437 -0.4644 -1.5835 -0.0745
17999TIP3    H275489   4.597   4.582   0.358  1.6180 -1.1575 -0.9981
18000TIP3   OH275490   6.577   2.089  13.108  0.1125  0.0054  0.3248
18000TIP3    H175491   6.526   2.014  13.140  1.1579 -0.7930  0.1577
18000TIP3    H275492   6.631   2.114  13.182 -0.3042  0.6711  0.4095
18001TIP3   OH275493   1.972   6.443  14.568 -0.4212  0.0703  0.2345
18001TIP3    H175494   2.029   6.502  14.519 -0.6308 -0.3944 -0.5798
18001TIP3    H275495   2.032   6.378  14.605 -0.2988  0.2486  0.3550
18002TIP3   OH275496   0.283   3.773   6.019 -0.2829 -0.5419 -0.2403
18002TIP3    H175497   0.251   3.810   6.101  0.9319 -0.8825  0.4089
18002TIP3    H275498   0.378   3.773   6.029  0.1334  2.0980 -2.7827
18003TIP3   OH275499   4.836   3.564  17.003 -0.0475 -0.3312 -0.5638
18003TIP3    H175500   4.799   3.519  17.079 -0.6538 -0.3869 -0.8882
18003TIP3    H275501   4.895   3.630  17.040 -1.4167  0.6021 -0.0009
18004TIP3   OH275502   2.234   5.258   5.941 -1.0534  0.2454 -0.4642
18004TIP3    H175503   2.187   5.233   6.021 -2.2996 -0.3191 -1.3522
18004TIP3    H275504   2.291   5.330   5.969 -0.5500 -0.7235  1.2049
18005TIP3   OH275505   4.296   4.318   3.465  0.5421  0.4917  0.1349
18005TIP3    H175506   4.316   4.344   3.375 -0.0833 -0.7317 -0.3867
18005TIP3    H275507   4.231   4.248   3.456 -1.2506  1.8792  1.6359
18006TIP3   OH275508   5.905   2.229  13.543 -0.3794 -0.3114 -0.7651
18006TIP3    H175509   5.990   2.231  13.588 -0.5103 -0.7933 -0.4906
18006TIP3    H275510   5.912   2.154  13.484 -0.8238 -0.7058 -0.3240
18007TIP3   OH275511   1.237   3.731   1.412 -0.1706 -0.4620 -0.1209
18007TIP3    H175512   1.329   3.739   1.435 -0.6540  0.3006  1.7940
18007TIP3    H275513   1.223   3.637   1.401  0.8378 -0.5739 -0.5204
18008TIP3   OH275514   0.775   5.411  12.381  0.2625  0.3297  0.3980
18008TIP3    H175515   0.782   5.330  12.431 -0.8088  1.5987  2.7480
18008TIP3    H275516   0.859   5.455  12.395  0.6168 -0.0813 -0.3840
18009TIP3   OH275517   2.544   2.802   2.766  0.1250  0.1652  0.1406
18009TIP3    H175518   2.467   2.782   2.713 -0.3699 -2.2987  1.6380
18009TIP3    H275519   2.617   2.799   2.704 -0.8089  1.3609 -1.0758
18010TIP3   OH275520   2.488   0.137  14.763  0.5555 -0.6662 -0.1747
18010TIP3    H175521   2.476   0.204  14.695 -0.3817 -0.7222 -0.0751
18010TIP3    H275522   2.474   0.054  14.717  1.3529 -0.7947 -0.2138
18011TIP3   OH275523   4.691   1.537  16.509 -0.6560 -0.0005  0.6521
18011TIP3    H175524   4.745   1.611  16.535 -0.1857  0.0712 -0.4890
18011TIP3    H275525   4.662   1.558  16.420 -2.2571 -0.2166  1.0926
18012TIP3   OH275526   2.639   0.725   0.535 -0.3702 -0.0793 -0.2747
18012TIP3    H175527   2.563   0.704   0.590 -1.2312  1.4505 -0.8320
18012TIP3    H275528   2.652   0.646   0.482 -0.5165 -0.9790  0.9759
18013TIP3   OH275529   3.307   6.718  13.603 -0.3020 -0.3318  0.6890
18013TIP3    H175530   3.239   6.655  13.579 -1.2093  0.5375  0.9144
18013TIP3    H275531   3.260   6.790  13.644  0.8206  0.0265  1.4061
18014TIP3   OH275532   0.917   4.192   1.049  0.3296  0.4769 -0.2242
18014TIP3    H175533   0.846   4.244   1.087  0.4870  2.3895 -2.3055
18014TIP3    H275534   0.879   4.105   1.037 -0.0777  0.1083  2.9931
18015TIP3   OH275535   6.697   1.161   0.712  0.3167 -0.1501 -0.0135
18015TIP3    H175536   6.699   1.236   0.772  1.2382  0.7467 -1.1242
18015TIP3    H275537   6.697   1.085   0.770  1.1892  0.6863  1.1465
18016TIP3   OH275538   0.496   0.462   2.268  0.3678  0.3060 -0.2033
18016TIP3    H175539   0.488   0.452   2.174 -1.2510 -0.4370 -0.0364
18016TIP3    H275540   0.449   0.543   2.288  0.5128  0.3445 -0.0130
18017TIP3   OH275541   3.190   5.653  12.088 -0.2210 -0.1119 -0.4827
18017TIP3    H175542   3.132   5.711  12.038 -1.3562 -0.0764  0.8381
18017TIP3    H275543   3.135   5.617  12.157  1.0568 -0.9717  0.1219
18018TIP3   OH275544   1.910   5.835  16.659  0.2777  0.1203  0.1425
18018TIP3    H175545   1.973   5.846  16.588  0.2900 -1.0480 -0.0534
18018TIP3    H275546   1.862   5.755  16.637  0.8115 -0.7288  1.8249
18019TIP3   OH275547   4.656   0.945  14.089  0.1445 -0.4293 -0.7561
18019TIP3    H175548   4.585   0.986  14.039  0.9803  1.7534 -0.2696
18019TIP3    H275549   4.698   0.885  14.027  0.3178  1.1923 -2.2773
18020TIP3   OH275550   3.200   4.070   3.191  0.2862 -0.0641  0.0874
18020TIP3    H175551   3.199   3.983   3.150 -0.8847 -0.2321  0.4213
18020TIP3    H275552   3.292   4.092   3.200  0.5941 -1.1817 -0.2015
18021TIP3   OH275553   4.747   1.242  16.528 -0.2536 -0.1495  0.1222
18021TIP3    H175554   4.750   1.338  16.537 -0.5557 -0.1009 -0.2983
18021TIP3    H275555   4.680   1.215  16.591 -0.1846 -0.0825  0.2247
18022TIP3   OH275556   5.879   3.208  16.883  0.1909 -0.6238  0.7556
18022TIP3    H175557   5.814   3.278  16.890 -0.9482 -1.2116 -2.2381
18022TIP3    H275558   5.933   3.217  16.961 -2.0966  1.3192  2.2588
18023TIP3   OH275559   5.675   5.011  11.427 -0.3256  0.1094 -0.3066
18023TIP3    H175560   5.672   5.100  11.391  3.0944 -0.1097 -1.5276
18023TIP3    H275561   5.696   5.023  11.519  0.8860  0.6287 -0.6239
18024TIP3   OH275562   1.903   6.803  12.282 -0.5101  0.5427 -0.1352
18024TIP3    H175563   1.899   6.710  12.262 -1.8423  0.7555 -0.9316
18024TIP3    H275564   1.864   6.810  12.370 -0.6790  0.3853 -0.1969
18025TIP3   OH275565   0.441   0.697  14.282  0.2885  0.7348 -0.2177
18025TIP3    H175566   0.349   0.670  14.279  0.0848  1.3290  0.4008
18025TIP3    H275567   0.488   0.617  14.306 -0.4324  1.0775  2.8333
18026TIP3   OH275568   6.025   3.537   3.382  0.4152 -0.7095 -0.2488
18026TIP3    H175569   5.976   3.523   3.301  0.1678 -1.2119 -0.0177
18026TIP3    H275570   5.959   3.547   3.450  0.5605 -3.2632  0.3824
18027TIP3   OH275571   0.746   6.399   4.032 -0.3402  0.0781 -0.4119
18027TIP3    H175572   0.700   6.348   3.964  1.1271 -0.6440 -0.9177
18027TIP3    H275573   0.743   6.343   4.110 -0.9152  0.3438 -0.2388
18028TIP3   OH275574   3.812   6.106  15.397 -0.4280 -0.3527  0.5393
18028TIP3    H175575   3.830   6.056  15.477 -0.0643  1.2938  1.5227
18028TIP3    H275576   3.887   6.089  15.340 -0.8787 -1.8541  0.3483
18029TIP3   OH275577   2.538   3.451  12.383  0.0919  0.8180  0.1057
18029TIP3    H175578   2.611   3.451  12.321  2.3715  2.2495  2.5389
18029TIP3    H275579   2.481   3.521  12.352 -0.4320 -0.4229 -1.9364
18030TIP3   OH275580   0.773   0.580  13.871  0.3890 -1.1008 -0.2454
18030TIP3    H175581   0.798   0.659  13.919  2.6092 -3.1746  2.2749
18030TIP3    H275582   0.693   0.605  13.825 -0.6452  1.7607  2.7341
18031TIP3   OH275583   3.632   0.046   3.026 -0.3185  0.6060 -0.2953
18031TIP3    H175584   3.653   0.135   3.052  1.0901  0.0586  0.5546
18031TIP3    H275585   3.540   0.034   3.052  0.1475  1.0631  1.7778
18032TIP3   OH275586   6.109   3.135   3.851  0.8004  0.2018  0.0518
18032TIP3    H175587   6.116   3.212   3.908  1.2599  0.2948 -0.1284
18032TIP3    H275588   6.148   3.163   3.768  1.2145 -0.3045  0.0712
18033TIP3   OH275589   3.268   4.315   4.048 -0.0225 -0.4046  0.9002
18033TIP3    H175590   3.242   4.405   4.029  1.8984  0.1933  0.9384
18033TIP3    H275591   3.213   4.262   3.990  1.4647  1.0308 -2.0879
18034TIP3   OH275592   5.526   5.639   4.739 -0.2027  0.2507 -0.1279
18034TIP3    H175593   5.451   5.604   4.787 -0.5671 -0.3916 -1.1225
18034TIP3    H275594   5.488   5.669   4.656  0.9341 -2.1673 -1.6175
18035TIP3   OH275595   0.367   1.716  13.717  0.4002 -0.4319 -0.8010
18035TIP3    H175596   0.291   1.720  13.775 -0.6604  0.1348 -2.2024
18035TIP3    H275597   0.378   1.622  13.699  0.2346 -0.5404 -0.3614
18036TIP3   OH275598   5.177   1.736  14.435  0.5236  0.3562 -0.0262
18036TIP3    H175599   5.186   1.831  14.446 -1.9473  0.5842  0.6108
18036TIP3    H275600   5.128   1.726  14.353  2.3144 -0.4997 -1.0438
18037TIP3   OH275601   1.453   0.197  13.387 -0.1810  1.0471 -0.6026
18037TIP3    H175602   1.404   0.271  13.421 -1.9352 -0.3183  0.0096
18037TIP3    H275603   1.387   0.142  13.344  0.4845 -1.5119  1.3942
18038TIP3   OH275604   2.240   3.244  13.799 -0.5812 -0.7836 -0.1378
18038TIP3    H175605   2.195   3.313  13.750 -3.1415 -1.3203  1.3250
18038TIP3    H275606   2.302   3.292  13.854  2.4728 -0.1555 -3.6763
18039TIP3   OH275607   6.834   3.821  16.882  0.4560  0.4016  0.3091
18039TIP3    H175608   6.831   3.748  16.943  1.7700  0.4085  0.4070
18039TIP3    H275609   6.894   3.884  16.923  1.7013  0.2182 -1.1644
18040TIP3   OH275610   1.158   3.615  12.959 -0.0409  0.0809 -0.1956
18040TIP3    H175611   1.137   3.656  12.875 -1.0761  1.6183  0.7594
18040TIP3    H275612   1.248   3.642  12.978  0.5290 -1.0244 -1.1973
18041TIP3   OH275613   0.394   1.665   4.943 -0.9822 -0.2586 -0.4137
18041TIP3    H175614   0.362   1.598   4.882  0.1485  0.2400 -1.5915
18041TIP3    H275615   0.475   1.629   4.978 -1.2065 -0.1900  0.1855
18042TIP3   OH275616   2.817   2.183  11.525  0.3133  0.2941 -0.2860
18042TIP3    H175617   2.879   2.172  11.598 -0.0338 -0.8793 -0.1512
18042TIP3    H275618   2.857   2.135  11.452  0.1743  0.6210 -0.5813
18043TIP3   OH275619   0.799   5.447   0.123  0.2092  0.3639  0.0222
18043TIP3    H175620   0.839   5.449   0.036 -1.0641  0.7997 -0.5729
18043TIP3    H275621   0.763   5.359   0.130  2.0538 -0.3662  0.9557
18044TIP3   OH275622   2.108   2.385   0.681 -0.1908  0.0320  0.4974
18044TIP3    H175623   2.184   2.406   0.626  0.0979  1.4197  1.3776
18044TIP3    H275624   2.131   2.417   0.768 -1.4307 -0.3274  0.9821
18045TIP3   OH275625   2.189   6.676   4.847  0.2177  0.6308 -0.0088
18045TIP3    H175626   2.095   6.692   4.838 -0.5709 -2.9117  0.5015
18045TIP3    H275627   2.221   6.667   4.758 -0.5997 -1.0686 -0.1664
18046TIP3   OH275628   6.074   4.067  14.360 -0.0143 -0.4486 -0.2130
18046TIP3    H175629   5.982   4.093  14.351  0.0398  0.9329  2.4053
18046TIP3    H275630   6.123   4.143  14.331  0.2218  0.1358  1.6211
18047TIP3   OH275631   5.295   5.440  12.296  0.5331 -0.5991  0.4651
18047TIP3    H175632   5.206   5.441  12.332  0.5669 -0.3289  0.5445
18047TIP3    H275633   5.304   5.353  12.258  0.3040 -0.6980  0.6310
18048TIP3   OH275634   3.881   4.730  11.847  0.9369 -0.5507  0.4198
18048TIP3    H175635   3.938   4.805  11.833 -1.9983  1.8688  0.2427
18048TIP3    H275636   3.874   4.689  11.761 -1.4567  2.2824 -0.9324
18049TIP3   OH275637   2.044   3.532  14.528  0.0437  0.1343 -0.1809
18049TIP3    H175638   1.963   3.534  14.579  0.0115 -1.7866 -0.1097
18049TIP3    H275639   2.015   3.538  14.437 -0.0038  1.6722 -0.1008
18050TIP3   OH275640   0.407   0.771  16.118 -0.4805 -0.6242 -0.1430
18050TIP3    H175641   0.430   0.787  16.026  0.9922 -0.5754  0.2041
18050TIP3    H275642   0.381   0.857  16.151  2.4409  0.1623  0.3775
18051TIP3   OH275643   0.754   2.719  13.081 -0.2830  0.2119  0.4832
18051TIP3    H175644   0.757   2.808  13.116  2.9630  0.6954 -0.7120
18051TIP3    H275645   0.844   2.689  13.084 -0.6128 -1.5489 -2.8551
18052TIP3   OH275646   3.829   5.554   1.297  0.3262  0.0859  0.1818
18052TIP3    H175647   3.847   5.607   1.374 -0.3339  0.3253  0.1765
18052TIP3    H275648   3.916   5.533   1.261  0.6255  0.1887  0.8345
18053TIP3   OH275649   1.443   4.680   1.744  0.0027 -0.5061 -0.8023
18053TIP3    H175650   1.430   4.586   1.732 -0.2141 -0.5451 -0.3117
18053TIP3    H275651   1.440   4.692   1.839  0.7350 -0.0996 -0.8263
18054TIP3   OH275652   5.484   4.513  13.561 -0.8452  0.2631  0.0398
18054TIP3    H175653   5.453   4.591  13.516  0.2556  1.1675  0.7917
18054TIP3    H275654   5.408   4.455  13.564 -1.6871  1.3099 -0.4996
18055TIP3   OH275655   4.243   0.716  13.906 -0.2518  0.5872  0.2451
18055TIP3    H175656   4.325   0.713  13.956 -1.8198  0.9503  3.1022
18055TIP3    H275657   4.251   0.646  13.842  1.4369 -0.8879  1.9243
18056TIP3   OH275658   3.355   1.643   3.035 -0.3657 -0.0562 -0.2478
18056TIP3    H175659   3.385   1.675   2.950  1.6696  1.5320  0.9658
18056TIP3    H275660   3.404   1.562   3.049 -1.7516 -1.0890 -1.1395
18057TIP3   OH275661   1.899   0.226  16.952  0.5220  0.1285 -0.1267
18057TIP3    H175662   1.853   0.310  16.954  1.9974  0.9561  1.0536
18057TIP3    H275663   1.903   0.199  17.044  1.0836 -0.6606 -0.3771
18058TIP3   OH275664   5.490   4.784  12.429  0.1860  0.3906 -0.3196
18058TIP3    H175665   5.413   4.735  12.400  0.0584  0.1149  0.4620
18058TIP3    H275666   5.564   4.740  12.385  0.1086 -0.7464  0.6436
18059TIP3   OH275667   2.261   0.514  16.006  0.1168 -0.2217 -0.1561
18059TIP3    H175668   2.205   0.525  15.929  0.1032  0.4564 -0.0577
18059TIP3    H275669   2.203   0.474  16.071  0.1002 -0.7023 -0.4610
18060TIP3   OH275670   2.710   1.820  14.890 -0.6764 -0.4470  0.2765
18060TIP3    H175671   2.700   1.762  14.815 -0.8150  0.8011 -0.7144
18060TIP3    H275672   2.736   1.763  14.962 -0.8610 -1.7229 -0.6385
18061TIP3   OH275673   5.910   4.077  15.170  0.2500  0.4594 -0.5382
18061TIP3    H175674   5.886   4.143  15.106 -0.5116  0.3493 -0.3791
18061TIP3    H275675   5.853   4.094  15.245  1.0391  0.5061  0.0682
18062TIP3   OH275676   5.961   0.032   2.092  0.4080  0.4163 -0.1903
18062TIP3    H175677   5.966   0.102   2.157 -1.7990  0.7505 -0.2949
18062TIP3    H275678   5.881   0.051   2.042 -0.2515 -2.1406 -0.2646
18063TIP3   OH275679   3.346   1.231   1.187 -0.5049  0.0806  0.0248
18063TIP3    H175680   3.287   1.228   1.111 -2.9708 -0.7374  1.8295
18063TIP3    H275681   3.289   1.215   1.262  1.5641  2.1261  2.2230
18064TIP3   OH275682   2.198   6.175  15.785  0.5580 -0.2368  0.2372
18064TIP3    H175683   2.204   6.216  15.871  0.4410 -1.8086  1.0361
18064TIP3    H275684   2.243   6.091  15.795  2.4506  0.4250 -1.8417
18065TIP3   OH275685   2.411   5.335  11.619  0.4940  0.7116 -0.1715
18065TIP3    H175686   2.333   5.336  11.564 -0.2388  0.4810  0.8341
18065TIP3    H275687   2.407   5.250  11.664 -0.3100  1.8663  2.1110
18066TIP3   OH275688   4.540   6.540  11.549  0.1276 -0.0611 -0.3495
18066TIP3    H175689   4.500   6.597  11.484 -1.0143 -0.4794 -0.0250
18066TIP3    H275690   4.506   6.453  11.530  0.3697 -0.3143  0.3432
18067TIP3   OH275691   2.829   3.095   3.314  0.1026 -0.2575  0.2908
18067TIP3    H175692   2.914   3.085   3.357  0.3725  2.6570  0.6911
18067TIP3    H275693   2.772   3.130   3.382 -1.2686 -1.5268 -0.1543
18068TIP3   OH275694   5.885   2.265  14.496 -0.6704 -0.6943 -0.0302
18068TIP3    H175695   5.802   2.220  14.510 -0.0177 -1.8529  0.2431
18068TIP3    H275696   5.903   2.254  14.403 -1.5760  0.9513 -0.4488
18069TIP3   OH275697   0.738   4.385   0.452 -0.3839 -0.1072  0.4645
18069TIP3    H175698   0.679   4.446   0.497 -0.8778  0.4969 -0.9530
18069TIP3    H275699   0.770   4.327   0.522 -0.4764  1.2952  1.7260
18070TIP3   OH275700   4.571   3.256  16.033 -0.0216 -0.4424  0.2208
18070TIP3    H175701   4.497   3.314  16.048 -0.0004 -0.3683  0.0404
18070TIP3    H275702   4.646   3.303  16.067 -0.0999 -0.6455  0.6804
18071TIP3   OH275703   3.850   2.486  14.211  0.0421 -0.6141 -0.2321
18071TIP3    H175704   3.891   2.531  14.138 -0.8745  0.6488 -0.0110
18071TIP3    H275705   3.821   2.402  14.175  0.2137 -0.2932 -1.1249
18072TIP3   OH275706   0.926   2.079   5.811 -0.1808 -0.0332  0.7133
18072TIP3    H175707   0.951   2.014   5.876 -1.2797 -0.4092  0.7824
18072TIP3    H275708   0.988   2.067   5.739 -0.8515 -1.7346  0.3650
18073TIP3   OH275709   4.480   3.173   3.777  0.6079  0.5953  0.0035
18073TIP3    H175710   4.552   3.234   3.791 -0.0025  1.8656 -1.9732
18073TIP3    H275711   4.450   3.191   3.688 -1.8292 -0.2193  0.5735
18074TIP3   OH275712   0.962   2.582  15.139  0.2947  0.5310  0.7967
18074TIP3    H175713   0.891   2.587  15.075  1.6081  1.1155 -0.6815
18074TIP3    H275714   0.999   2.670  15.140 -0.2503  0.7894  3.0745
18075TIP3   OH275715   0.332   2.722  14.656 -0.6094 -0.2089  0.0838
18075TIP3    H175716   0.268   2.720  14.728 -0.4131  1.5531  0.3538
18075TIP3    H275717   0.335   2.813  14.629  1.2774 -0.3624 -0.4022
18076TIP3   OH275718   5.346   2.669   3.561  0.8468  0.2765 -0.0815
18076TIP3    H175719   5.369   2.687   3.652  0.6283  0.9913 -0.1635
18076TIP3    H275720   5.279   2.600   3.567  1.3495 -0.1950  0.2574
18077TIP3   OH275721   2.401   4.303  12.852 -0.0947 -0.3499  0.0809
18077TIP3    H175722   2.462   4.377  12.863 -0.7365  0.1317  0.4412
18077TIP3    H275723   2.330   4.321  12.914  0.2083 -1.7778  0.8752
18078TIP3   OH275724   3.143   4.604   1.047  0.1383 -0.4431  0.2417
18078TIP3    H175725   3.152   4.537   0.979 -1.2935  0.7618 -1.2010
18078TIP3    H275726   3.080   4.566   1.109 -0.0913 -0.7327 -0.1608
18079TIP3   OH275727   1.298   5.967   2.282 -0.1343  0.1669  0.3357
18079TIP3    H175728   1.300   6.037   2.347  0.2071  0.1417  0.3512
18079TIP3    H275729   1.390   5.949   2.263 -0.2068 -0.5189  0.5949
18080TIP3   OH275730   4.914   4.983  11.704 -0.0687 -0.5827 -0.0332
18080TIP3    H175731   4.901   4.897  11.745 -2.0679 -1.6929 -2.6870
18080TIP3    H275732   4.981   4.967  11.637 -0.8991 -0.2336 -0.9540
18081TIP3   OH275733   2.551   3.156  14.880  0.2522 -0.1612 -0.3013
18081TIP3    H175734   2.559   3.156  14.785  0.1253  0.1756 -0.3157
18081TIP3    H275735   2.638   3.134  14.912 -0.0096 -1.5550 -0.5062
18082TIP3   OH275736   0.558   3.812   0.813  0.2512  0.0088  0.4758
18082TIP3    H175737   0.526   3.873   0.747  0.6988 -0.9959 -0.6998
18082TIP3    H275738   0.535   3.725   0.779 -0.2392 -0.5184  2.0365
18083TIP3   OH275739   0.842   5.706   2.958 -0.0235  0.5896 -0.6653
18083TIP3    H175740   0.900   5.716   2.883  0.3584  0.5071 -0.3868
18083TIP3    H275741   0.781   5.780   2.952 -1.2967 -0.5224 -2.1695
18084TIP3   OH275742   2.028   6.595  13.511  0.2457  0.8598  0.5764
18084TIP3    H175743   2.111   6.639  13.489 -0.2619  1.3769 -0.3536
18084TIP3    H275744   1.961   6.662  13.497 -0.5274 -0.1127 -0.6184
18085TIP3   OH275745   1.507   0.783   4.785  0.5145 -0.2985  0.8226
18085TIP3    H175746   1.510   0.748   4.696 -0.8654  0.2319  0.5362
18085TIP3    H275747   1.517   0.706   4.841 -0.8244 -0.9518  0.2030
18086TIP3   OH275748   3.762   0.877   5.647 -0.1942 -0.6173  0.2634
18086TIP3    H175749   3.734   0.948   5.705  1.2566 -1.1802  1.7230
18086TIP3    H275750   3.686   0.860   5.592 -0.8053  1.5796  0.3591
18087TIP3   OH275751   4.591   4.775  13.599 -0.4678  0.1898  0.2923
18087TIP3    H175752   4.613   4.794  13.508 -0.5691 -1.6073 -0.1491
18087TIP3    H275753   4.625   4.850  13.648  1.4177  0.2528 -0.9966
18088TIP3   OH275754   0.796   5.395   5.302 -0.5351  0.2254 -0.3996
18088TIP3    H175755   0.728   5.455   5.334  1.1910  1.3852  1.2797
18088TIP3    H275756   0.848   5.448   5.242 -0.4630 -0.3386 -0.8441
18089TIP3   OH275757   3.923   5.905  11.931 -0.3405 -1.0487 -0.4488
18089TIP3    H175758   3.843   5.953  11.954  0.1042 -0.1528 -0.7070
18089TIP3    H275759   3.948   5.859  12.011 -0.9382 -1.0774 -0.2794
18090TIP3   OH275760   2.911   2.576   1.914  0.2862 -0.7709 -0.4684
18090TIP3    H175761   2.858   2.616   1.982  0.4444 -1.9182  0.3438
18090TIP3    H275762   2.861   2.500   1.885  1.5805 -2.0801  0.5531
18091TIP3   OH275763   2.709   6.372   1.992  0.0207 -0.4544  0.4970
18091TIP3    H175764   2.719   6.290   1.943  1.5000  0.4224 -0.7841
18091TIP3    H275765   2.647   6.424   1.941  1.8056  0.5890 -0.7483
18092TIP3   OH275766   3.657   0.931  11.435 -0.6444 -0.0923  0.3642
18092TIP3    H175767   3.598   0.979  11.377 -0.1339 -0.5490 -0.5489
18092TIP3    H275768   3.723   0.996  11.462 -0.6626  0.0250  0.1258
18093TIP3   OH275769   1.652   2.780   2.538 -0.1775 -0.6613  0.0519
18093TIP3    H175770   1.635   2.760   2.629 -0.4371 -1.0256 -0.0781
18093TIP3    H275771   1.738   2.740   2.520 -0.3753 -1.0602 -0.0138
18094TIP3   OH275772   6.561   3.687  11.299 -0.6471  0.2220 -0.0746
18094TIP3    H175773   6.629   3.625  11.273  0.6686  1.8522 -0.7002
18094TIP3    H275774   6.507   3.698  11.220  0.8358  1.9835 -0.9030
18095TIP3   OH275775   2.735   1.672  10.984 -0.7038 -0.5956 -0.6194
18095TIP3    H175776   2.653   1.628  11.008 -0.5215 -1.7480 -2.0124
18095TIP3    H275777   2.799   1.602  10.976 -0.0545  0.0781 -1.5229
18096TIP3   OH275778   4.104   4.289   2.138  0.1083 -0.0788 -0.3568
18096TIP3    H175779   4.013   4.272   2.115  0.1957 -0.7669 -0.2217
18096TIP3    H275780   4.140   4.203   2.158  0.6289  0.2540  0.1749
18097TIP3   OH275781   0.974   3.222  11.995  0.5284  0.0703 -0.1631
18097TIP3    H175782   0.923   3.244  11.917 -0.9472 -0.8119  0.5215
18097TIP3    H275783   0.911   3.221  12.066  2.0545  2.1859  1.3477
18098TIP3   OH275784   3.575   1.676  11.901  0.2245 -0.4079  0.1976
18098TIP3    H175785   3.635   1.647  11.970 -0.1410 -0.0656  0.6612
18098TIP3    H275786   3.616   1.755  11.865 -1.4643  1.8111  2.7178
18099TIP3   OH275787   6.012   4.292  17.031  1.1303  0.1015 -0.1877
18099TIP3    H175788   5.959   4.316  16.955  1.4210  0.6584 -0.2157
18099TIP3    H275789   5.984   4.352  17.099 -0.1419 -1.2929  0.5868
18100TIP3   OH275790   0.102   4.001   0.631 -0.2977 -0.1415 -0.6947
18100TIP3    H175791   0.090   4.049   0.549 -2.4507 -0.1538 -0.4407
18100TIP3    H275792   0.142   4.064   0.690  4.3740 -0.9769 -2.4917
18101TIP3   OH275793   2.352   1.133  15.137 -0.1980 -0.5590  0.1280
18101TIP3    H175794   2.407   1.115  15.213 -0.5551  1.4510  0.9220
18101TIP3    H275795   2.401   1.198  15.087 -1.5694  0.8977  0.5877
18102TIP3   OH275796   0.735   6.849   4.916 -0.2817 -0.6139  0.1114
18102TIP3    H175797   0.749   6.802   4.998 -1.1035  0.7100  1.0378
18102TIP3    H275798   0.641   6.842   4.899 -0.3804  0.4420  0.1345
18103TIP3   OH275799   5.040   0.438   1.825 -0.5740 -0.0558 -0.3036
18103TIP3    H175800   4.967   0.383   1.798 -2.8555  1.6331  2.0324
18103TIP3    H275801   5.028   0.520   1.777  0.0699  0.0725 -0.2559
18104TIP3   OH275802   4.554   1.150  16.691 -0.2942 -0.0797  0.5518
18104TIP3    H175803   4.494   1.090  16.647  0.6499 -0.5084 -0.1883
18104TIP3    H275804   4.523   1.237  16.667  0.9376 -0.2870 -2.0754
18105TIP3   OH275805   2.136   1.514   3.349  0.2723  0.0146 -0.4851
18105TIP3    H175806   2.209   1.453   3.338 -0.2592 -0.4274 -1.7975
18105TIP3    H275807   2.155   1.585   3.287 -0.2511  0.0422 -0.6195
18106TIP3   OH275808   0.463   2.895   5.705 -0.4812 -0.0876  0.0509
18106TIP3    H175809   0.389   2.947   5.673 -0.2737 -0.0243 -0.3378
18106TIP3    H275810   0.469   2.822   5.643  0.1830  0.2590 -0.3039
18107TIP3   OH275811   2.187   1.045  14.721 -0.4328 -0.1373 -0.5183
18107TIP3    H175812   2.195   0.987  14.796  0.6647  1.3200  0.5401
18107TIP3    H275813   2.186   0.986  14.645  0.6582 -1.5315  0.4933
18108TIP3   OH275814   1.639   3.606  11.304 -0.4900 -0.4313  0.1807
18108TIP3    H175815   1.605   3.634  11.219 -1.7196 -0.2658  0.7069
18108TIP3    H275816   1.650   3.512  11.296 -2.4502 -0.7207  0.4253
18109TIP3   OH275817   4.884   0.223  14.969  0.0932 -0.1952 -0.2453
18109TIP3    H175818   4.976   0.231  14.941  0.0278 -0.0510 -0.4262
18109TIP3    H275819   4.887   0.230  15.064  0.1285  1.3322 -0.3251
18110TIP3   OH275820   4.621   3.299   5.032 -0.3872 -0.5872 -0.6359
18110TIP3    H175821   4.650   3.299   4.941  1.3081 -0.1889 -0.1388
18110TIP3    H275822   4.601   3.391   5.050 -0.0928 -0.5576 -0.4419
18111TIP3   OH275823   6.086   1.846  12.812 -0.2323 -0.1755  0.3666
18111TIP3    H175824   6.069   1.933  12.848 -0.9611 -0.1481 -0.0245
18111TIP3    H275825   6.160   1.813  12.863 -0.1904  0.5214  0.7693
18112TIP3   OH275826   1.652   3.690  13.018  0.6048 -0.2464  0.5437
18112TIP3    H175827   1.622   3.692  12.928 -2.0321  0.9536  1.3475
18112TIP3    H275828   1.720   3.623  13.020  0.3791 -0.6405 -2.1957
18113TIP3   OH275829   4.339   3.424   1.632  0.4421 -0.0295 -0.3186
18113TIP3    H175830   4.262   3.382   1.670  1.0203  0.1037  1.0262
18113TIP3    H275831   4.398   3.351   1.611  0.9250  0.0015  0.8608
18114TIP3   OH275832   4.671   4.209  11.892 -0.3016 -0.2503  0.0580
18114TIP3    H175833   4.734   4.201  11.820  0.2632  0.1263  0.4955
18114TIP3    H275834   4.706   4.152  11.961  0.2684  0.9286  0.7801
18115TIP3   OH275835   0.278   3.526   0.084 -0.1782  0.1832 -0.0777
18115TIP3    H175836   0.370   3.507   0.101 -0.1167 -0.7881 -1.3924
18115TIP3    H275837   0.263   3.611   0.126  0.7671 -0.5764  1.9340
18116TIP3   OH275838   0.169   1.981  15.994 -0.1098  0.4034 -0.8529
18116TIP3    H175839   0.074   1.966  15.991 -0.4478  2.0019  0.6866
18116TIP3    H275840   0.196   1.980  15.902 -1.2229 -2.1681 -1.2455
18117TIP3   OH275841   6.290   5.497  11.064  0.6244  0.2084  0.2356
18117TIP3    H175842   6.279   5.405  11.087  0.8606  0.4367  1.3122
18117TIP3    H275843   6.201   5.532  11.060  0.5963  0.4304  2.0263
18118TIP3   OH275844   2.407   1.156  15.486  0.1056  0.1876  0.0399
18118TIP3    H175845   2.383   1.234  15.437  0.0076  2.3662  3.2269
18118TIP3    H275846   2.496   1.173  15.517 -0.6489  0.0628  2.4826
18119TIP3   OH275847   4.605   0.609   3.691  0.2020  0.0333  0.1636
18119TIP3    H175848   4.696   0.603   3.662  0.3672  0.5954  0.5550
18119TIP3    H275849   4.555   0.561   3.624  0.7429  0.0460 -0.2522
18120TIP3   OH275850   4.092   1.024  14.867  0.9296  0.5698 -0.4579
18120TIP3    H175851   4.051   1.031  14.781  1.0141 -0.2434 -0.5751
18120TIP3    H275852   4.155   1.096  14.870  2.7141 -0.7962 -2.0864
18121TIP3   OH275853   5.330   4.050   4.022  0.0444 -0.8056 -0.2892
18121TIP3    H175854   5.421   4.028   4.000  0.3568 -0.0399  0.1816
18121TIP3    H275855   5.328   4.047   4.117 -0.5760 -1.3683 -0.3174
18122TIP3   OH275856   0.741   6.679  16.490  0.2449 -0.2032  0.0409
18122TIP3    H175857   0.739   6.585  16.472 -1.8687 -0.1020 -0.5352
18122TIP3    H275858   0.690   6.719  16.419  1.6574  1.4850 -0.1161
18123TIP3   OH275859   0.522   4.292  16.803  0.1729  0.6847 -0.5315
18123TIP3    H175860   0.500   4.378  16.836  0.5089  0.4177  0.4238
18123TIP3    H275861   0.442   4.260  16.761 -1.0244  0.1378  1.9802
18124TIP3   OH275862   5.407   6.770  15.347  0.2142 -0.5572  0.6250
18124TIP3    H175863   5.399   6.676  15.332  1.6031 -0.9219  1.8434
18124TIP3    H275864   5.487   6.778  15.399  0.7855  1.4243 -0.4760
18125TIP3   OH275865   5.337   6.029  15.304 -0.6391  0.0089  0.1905
18125TIP3    H175866   5.263   6.051  15.247  1.1095  2.1755 -1.4185
18125TIP3    H275867   5.318   6.073  15.387 -1.2211  0.4384 -0.1610
18126TIP3   OH275868   3.403   5.729   1.556 -1.0149 -0.2311  0.3604
18126TIP3    H175869   3.383   5.638   1.574 -1.4194 -1.1935 -3.8713
18126TIP3    H275870   3.320   5.767   1.528 -0.1913  0.3030 -1.5390
18127TIP3   OH275871   3.324   5.816   0.833  0.1475 -0.3165 -0.3124
18127TIP3    H175872   3.253   5.854   0.782 -1.2467  0.0812  1.7710
18127TIP3    H275873   3.288   5.735   0.869  0.3797  0.3146  1.4806
18128TIP3   OH275874   5.012   5.107   2.441 -0.0142  0.6570 -0.2452
18128TIP3    H175875   4.948   5.099   2.371  0.5307 -0.6909 -0.6061
18128TIP3    H275876   5.063   5.026   2.438  1.3236  1.4327  0.4180
18129TIP3   OH275877   2.302   3.012   0.121 -0.5004  0.6468  0.4016
18129TIP3    H175878   2.319   2.996   0.213  0.3490 -2.0025 -0.1285
18129TIP3    H275879   2.250   2.936   0.092  1.9700 -0.3299 -1.9410
18130TIP3   OH275880   4.527   3.620  11.555 -0.3078  0.6494  0.1581
18130TIP3    H175881   4.514   3.640  11.648 -0.7513  1.1468 -0.0072
18130TIP3    H275882   4.475   3.540  11.541 -0.2329  0.5685  0.3372
18131TIP3   OH275883   0.582   2.937  11.812  0.0390 -0.0025  0.0896
18131TIP3    H175884   0.582   2.892  11.896  1.8017  1.1770  0.7780
18131TIP3    H275885   0.494   2.974  11.804 -0.1523 -0.1294  1.4188
18132TIP3   OH275886   5.949   2.897   1.286 -0.1430  0.0388 -0.0447
18132TIP3    H175887   5.950   2.875   1.379 -2.1856 -0.9286 -0.2130
18132TIP3    H275888   5.877   2.958   1.276  0.3479  0.4916 -0.9457
18133TIP3   OH275889   3.994   3.858   2.016 -0.1906 -0.8155 -0.1408
18133TIP3    H175890   4.003   3.775   1.969 -0.4318 -0.5064 -0.7323
18133TIP3    H275891   3.902   3.882   2.006 -0.6962 -1.6321  1.9986
18134TIP3   OH275892   0.733   1.223  11.023 -0.6616 -0.2270  0.5654
18134TIP3    H175893   0.746   1.165  11.098 -1.3680 -0.4009  0.5613
18134TIP3    H275894   0.678   1.173  10.963 -0.8714  0.2652  0.3461
18135TIP3   OH275895   5.127   6.809   6.084  0.3830 -0.4450  0.5526
18135TIP3    H175896   5.207   6.842   6.125 -0.7368  4.2687 -0.4443
18135TIP3    H275897   5.058   6.826   6.149 -0.1993 -1.8523  0.3344
18136TIP3   OH275898   5.226   4.207   1.082 -0.2599  0.3938 -0.8657
18136TIP3    H175899   5.248   4.226   1.173 -1.0585  2.6300 -1.0748
18136TIP3    H275900   5.132   4.187   1.083  0.2331 -2.1434 -0.8956
18137TIP3   OH275901   6.230   0.664   4.016 -0.4298 -0.4590  0.2578
18137TIP3    H175902   6.191   0.642   3.931  1.7622 -1.0371 -0.6538
18137TIP3    H275903   6.245   0.579   4.058  2.5306 -0.5292 -0.7190
18138TIP3   OH275904   1.084   2.071   5.599  0.5575 -0.3238  0.2367
18138TIP3    H175905   1.037   2.026   5.528  1.9504 -0.0759 -0.8976
18138TIP3    H275906   1.135   2.138   5.554  0.1369  1.0053  1.6927
18139TIP3   OH275907   5.983   4.168  10.577 -0.0735  0.5865  0.1355
18139TIP3    H175908   5.981   4.086  10.528  3.6112  1.2862 -1.5270
18139TIP3    H275909   5.894   4.203  10.569 -2.4016 -3.8743  2.4244
18140TIP3   OH275910   3.861   4.225   2.030  0.1247 -0.6305 -0.0263
18140TIP3    H175911   3.813   4.146   2.005  1.5100 -0.9026 -2.0734
18140TIP3    H275912   3.805   4.297   2.000 -0.3766 -0.8611  0.3406
18141TIP3   OH275913   3.506   1.057  15.735  0.0233  0.5281  0.3911
18141TIP3    H175914   3.415   1.084  15.731  0.3249  1.4570 -2.2426
18141TIP3    H275915   3.521   1.034  15.827 -2.5676  1.2781  1.0661
18142TIP3   OH275916   5.743   5.750   5.680 -0.7055 -0.0843 -0.2983
18142TIP3    H175917   5.808   5.748   5.750  0.1098 -0.6593 -1.0574
18142TIP3    H275918   5.724   5.658   5.663 -0.6239  0.0435 -1.0912
18143TIP3   OH275919   5.384   4.480   4.864 -0.0768  0.4687  0.2051
18143TIP3    H175920   5.352   4.401   4.821  2.0239 -0.6414  0.5546
18143TIP3    H275921   5.480   4.474   4.857  0.1549  2.8552  0.4710
18144TIP3   OH275922   6.004   1.175   2.964  0.1764  0.1750 -0.0761
18144TIP3    H175923   5.998   1.267   2.989 -0.5283 -0.0106  0.4829
18144TIP3    H275924   5.973   1.173   2.873  0.6093  0.5418 -0.2379
18145TIP3   OH275925   5.356   5.356  11.975  0.2357 -0.0918  0.2061
18145TIP3    H175926   5.436   5.410  11.973 -0.1185  0.5475  1.6623
18145TIP3    H275927   5.369   5.298  12.050 -1.0089  0.6067  0.9974
18146TIP3   OH275928   6.594   4.948   3.105  0.3002  0.1346 -0.4718
18146TIP3    H175929   6.647   5.005   3.049  0.6907 -1.7198 -2.0682
18146TIP3    H275930   6.655   4.915   3.171  0.1500  1.2284  0.2435
18147TIP3   OH275931   1.302   4.345  12.617 -0.0182  0.1871 -0.5106
18147TIP3    H175932   1.304   4.382  12.528  1.1417 -0.0043 -0.5867
18147TIP3    H275933   1.238   4.274  12.612  1.2898 -0.9618 -1.6902
18148TIP3   OH275934   3.954   2.162   5.827 -0.4812 -0.2035  0.1438
18148TIP3    H175935   3.919   2.150   5.916  0.7881 -1.4132  0.5112
18148TIP3    H275936   4.035   2.211   5.839  0.8867 -2.2774 -0.0391
18149TIP3   OH275937   0.621   4.192  15.728 -0.1144  0.4398  0.2145
18149TIP3    H175938   0.588   4.203  15.817 -2.4155 -0.9592 -0.3733
18149TIP3    H275939   0.550   4.222  15.672  0.3046 -0.9741 -1.1520
18150TIP3   OH275940   1.713   5.520  10.841  0.1541  0.0215 -0.5663
18150TIP3    H175941   1.766   5.593  10.810 -0.6456 -0.3001 -2.9126
18150TIP3    H275942   1.777   5.457  10.875  0.8104  1.9707  2.1049
18151TIP3   OH275943   0.895   4.535  14.956 -0.0749 -0.5357  0.8368
18151TIP3    H175944   0.843   4.559  15.033 -2.4088  1.5480 -1.2352
18151TIP3    H275945   0.842   4.469  14.911  1.2040 -1.6273  0.8707
18152TIP3   OH275946   4.588   4.304  13.269 -0.2850 -0.4557 -0.4540
18152TIP3    H175947   4.554   4.314  13.358  0.2410  1.7570 -0.4462
18152TIP3    H275948   4.683   4.310  13.280 -0.1686 -1.1411 -1.0684
18153TIP3   OH275949   3.289   2.725  11.608 -0.4306 -0.4066 -0.4102
18153TIP3    H175950   3.232   2.714  11.532 -0.4432  1.8187 -0.7923
18153TIP3    H275951   3.377   2.703  11.576 -0.6595 -0.9842 -0.6363
18154TIP3   OH275952   1.411   0.163  15.358 -0.1348 -0.1614  0.7412
18154TIP3    H175953   1.423   0.102  15.285  0.4224  1.5121 -0.6437
18154TIP3    H275954   1.494   0.162  15.405  0.2990  0.4042  0.0027
18155TIP3   OH275955   1.428   6.501   2.255  0.8541  0.4471  0.2286
18155TIP3    H175956   1.453   6.455   2.174 -3.0167 -0.4117 -0.7187
18155TIP3    H275957   1.443   6.594   2.236  0.1183  0.2494 -1.5298
18156TIP3   OH275958   3.891   2.223   1.003  0.6448 -0.6541  0.5038
18156TIP3    H175959   3.926   2.300   0.959  1.6252 -0.7602  1.0676
18156TIP3    H275960   3.829   2.257   1.067 -2.6093 -0.5902 -2.4090
18157TIP3   OH275961   0.055   2.472  10.536 -0.2778 -0.3545  0.0628
18157TIP3    H175962   0.053   2.383  10.572 -2.3978 -0.4251 -0.1142
18157TIP3    H275963  -0.037   2.496  10.525  0.1600  2.4346  1.4773
18158TIP3   OH275964   5.013   6.550  11.712 -0.4776  0.3852  0.3675
18158TIP3    H175965   4.942   6.520  11.656 -0.3221  1.7507 -0.6276
18158TIP3    H275966   5.032   6.639  11.681  2.6939 -0.4463 -0.4554
18159TIP3   OH275967   5.409   6.104  12.522 -0.0676  0.2422 -0.2578
18159TIP3    H175968   5.495   6.092  12.484 -0.4753  1.1249 -1.5199
18159TIP3    H275969   5.375   6.015  12.534  0.8610 -0.0963 -0.0826
18160TIP3   OH275970   4.280   2.529   2.759  0.1626 -0.2301  0.0237
18160TIP3    H175971   4.215   2.519   2.689 -1.0060  1.5266  0.7857
18160TIP3    H275972   4.263   2.616   2.795  1.1536 -0.8214  2.0674
18161TIP3   OH275973   4.190   2.792   5.610 -0.0731 -0.6454 -0.6155
18161TIP3    H175974   4.236   2.710   5.628 -0.8583 -0.9219  0.2549
18161TIP3    H275975   4.153   2.781   5.522  0.9072 -0.6995 -1.0274
18162TIP3   OH275976   4.321   6.660   0.612  0.4424  0.5652 -0.1063
18162TIP3    H175977   4.272   6.691   0.688  0.3087  0.3329 -0.0974
18162TIP3    H275978   4.331   6.737   0.556 -0.9619  0.3573 -0.6757
18163TIP3   OH275979   2.661   0.122   5.518 -0.0269  0.0778 -0.3342
18163TIP3    H175980   2.719   0.057   5.558  0.2082  1.3513  1.5038
18163TIP3    H275981   2.716   0.168   5.455  1.1967  1.6272  1.7640
18164TIP3   OH275982   0.515   4.131   4.775  0.2219  1.0759  0.1987
18164TIP3    H175983   0.457   4.202   4.750 -0.8773 -0.0984 -0.7869
18164TIP3    H275984   0.540   4.090   4.691  1.3651  0.7087  0.6936
18165TIP3   OH275985   5.824   4.200   1.939  0.2828  0.4641 -0.3750
18165TIP3    H175986   5.858   4.267   1.880  0.5256 -0.3755 -1.2219
18165TIP3    H275987   5.863   4.220   2.024  3.3956 -0.7617 -1.3957
18166TIP3   OH275988   6.248   3.395   4.757 -0.1675 -0.2127 -0.1482
18166TIP3    H175989   6.306   3.330   4.717 -1.5769 -0.6880 -1.4627
18166TIP3    H275990   6.309   3.458   4.797  1.2627 -0.9611 -1.0344
18167TIP3   OH275991   4.635   0.930   0.889 -0.3485 -0.3452  0.4420
18167TIP3    H175992   4.583   0.866   0.937 -1.5235 -0.3792 -0.8088
18167TIP3    H275993   4.575   0.965   0.823  0.0063  2.6162  1.5613
18168TIP3   OH275994   3.475   0.213  13.544 -0.3584 -0.3358  0.1328
18168TIP3    H175995   3.418   0.270  13.596 -0.8395 -1.3554  0.7385
18168TIP3    H275996   3.561   0.220  13.586 -0.2960  0.3040 -0.0859
18169TIP3   OH275997   1.621   0.000   0.342 -0.7453 -0.4790  0.1766
18169TIP3    H175998   1.535  -0.039   0.325 -0.8338  0.8925 -3.3068
18169TIP3    H275999   1.676  -0.028   0.269  0.6048  1.8051  0.1999
18170TIP3   OH276000   2.372   4.432  11.428  0.3143 -0.3608 -0.6397
18170TIP3    H176001   2.412   4.347  11.442 -0.1733 -0.4780  0.0849
18170TIP3    H276002   2.341   4.459  11.515  1.8846  1.2848 -0.5356
18171TIP3   OH276003   4.217   5.756  16.547  0.1293 -0.2968  0.3346
18171TIP3    H176004   4.201   5.714  16.631 -1.1018  0.3283  0.4260
18171TIP3    H276005   4.199   5.849  16.562  3.2213  0.4464  0.2623
18172TIP3   OH276006   1.484   1.590   2.503 -0.1624  0.5392  0.3689
18172TIP3    H176007   1.413   1.637   2.461  0.0138  0.7411  0.2962
18172TIP3    H276008   1.451   1.570   2.591  0.6341  2.9447  1.3114
18173TIP3   OH276009   2.556   4.355   3.484 -0.0142  0.2962 -0.0660
18173TIP3    H176010   2.608   4.283   3.449  0.7585  0.2962  1.0206
18173TIP3    H276011   2.532   4.326   3.573 -0.3147  1.0685  0.1166
18174TIP3   OH276012   1.363   1.013   3.906  0.3129  0.4644 -0.7691
18174TIP3    H176013   1.425   0.993   3.976  0.3709 -0.1024 -0.9837
18174TIP3    H276014   1.303   0.938   3.905  0.7464  0.1259 -1.8100
18175TIP3   OH276015   6.539   4.022  11.126 -0.0091 -0.3745  0.7799
18175TIP3    H176016   6.506   3.933  11.137 -1.6874  0.1682  0.3246
18175TIP3    H276017   6.541   4.036  11.031  0.3626  0.0407  0.8433
18176TIP3   OH276018   2.078   4.498   1.546 -0.1583  0.3254  0.2129
18176TIP3    H176019   2.103   4.406   1.561 -1.5043  0.1717  1.7464
18176TIP3    H276020   2.053   4.530   1.633  0.1837  2.1324 -0.3236
18177TIP3   OH276021   3.160   2.633   5.658 -0.6287  0.2036 -0.1648
18177TIP3    H176022   3.242   2.683   5.655 -1.0031  0.7835 -1.8107
18177TIP3    H276023   3.152   2.594   5.571 -2.0981  0.1568 -0.0378
18178TIP3   OH276024   5.774   2.159   4.617  0.0060 -0.1202  0.1141
18178TIP3    H176025   5.724   2.103   4.676  0.0344  0.1716  0.4171
18178TIP3    H276026   5.836   2.205   4.673  0.9745 -0.8435 -0.3185
18179TIP3   OH276027   1.630   0.907   0.428 -0.1146  0.4473 -0.0422
18179TIP3    H176028   1.679   0.825   0.439 -0.0240  0.3538 -1.0337
18179TIP3    H276029   1.681   0.972   0.475  0.0255  0.0125  0.4174
18180TIP3   OH276030   4.819   1.854   1.323 -0.0794  0.0627 -0.3076
18180TIP3    H176031   4.745   1.794   1.328  0.3480 -0.5793 -1.1828
18180TIP3    H276032   4.782   1.937   1.295 -0.5795 -0.0034  0.1517
18181TIP3   OH276033   2.445   2.707  11.115 -0.2786  0.1359  0.6053
18181TIP3    H176034   2.414   2.634  11.061 -0.5223  0.6958 -0.0378
18181TIP3    H276035   2.461   2.778  11.052  1.1838  0.2458  1.0437
18182TIP3   OH276036   4.196   2.897   5.001 -0.1450  0.3710  0.1705
18182TIP3    H176037   4.188   2.969   5.063  2.6400  1.4833 -0.5889
18182TIP3    H276038   4.167   2.934   4.917 -0.1445  0.1372  0.0652
18183TIP3   OH276039   6.434   2.209  16.930  0.9877 -0.6130 -0.2106
18183TIP3    H176040   6.417   2.227  16.838  0.3757 -0.7271 -0.1270
18183TIP3    H276041   6.394   2.282  16.977  1.2691 -0.5711 -0.0309
18184TIP3   OH276042   3.455   6.441   6.055 -0.5576 -0.2059 -1.0539
18184TIP3    H176043   3.360   6.428   6.059 -0.7905  1.3595 -1.0842
18184TIP3    H276044   3.478   6.476   6.141 -0.4118  1.7538 -1.8469
18185TIP3   OH276045   1.270   3.944   2.082  0.1099  0.1796  0.5807
18185TIP3    H176046   1.273   3.977   1.993 -0.2490 -0.3497  0.3648
18185TIP3    H276047   1.298   3.853   2.075 -0.1433  0.0673  0.9703
18186TIP3   OH276048   3.708   5.133   6.066 -0.4019 -0.1860  0.4314
18186TIP3    H176049   3.701   5.185   6.146  0.2577  0.4785  0.0756
18186TIP3    H276050   3.719   5.043   6.097 -2.4198 -0.2593  1.0453
18187TIP3   OH276051   0.947   6.796  16.036  0.2938 -0.6510 -0.0857
18187TIP3    H176052   0.950   6.873  15.978  0.3191 -1.2125 -0.8409
18187TIP3    H276053   1.031   6.798  16.081  0.1057  0.0279  0.2504
18188TIP3   OH276054   5.267   6.700   3.469 -0.0382 -0.1540 -0.2945
18188TIP3    H176055   5.226   6.786   3.460  0.3687  0.1634  0.7066
18188TIP3    H276056   5.361   6.719   3.477  0.1006 -0.7257 -0.4791
18189TIP3   OH276057   0.877   4.858   3.781 -0.1254 -0.1179 -0.0165
18189TIP3    H176058   0.893   4.877   3.689  0.5261  0.4640  0.2168
18189TIP3    H276059   0.900   4.765   3.791 -0.3451 -0.2219 -0.4658
18190TIP3   OH276060   4.635   5.878  14.637  0.4759  0.3797  0.0769
18190TIP3    H176061   4.681   5.938  14.696 -0.6975  1.3549  0.0403
18190TIP3    H276062   4.690   5.876  14.558  0.7322  1.1088  0.2202
18191TIP3   OH276063   1.551   4.084  14.199 -0.0243  0.1869 -0.1965
18191TIP3    H176064   1.467   4.102  14.241 -1.1934 -1.9475 -1.4554
18191TIP3    H276065   1.586   4.008  14.245  1.7241  1.5438  0.8765
18192TIP3   OH276066   2.579   1.268  11.058 -0.1763 -0.3220  0.4282
18192TIP3    H176067   2.562   1.179  11.028  0.5212  0.1308 -1.4889
18192TIP3    H276068   2.658   1.261  11.111 -0.3489 -0.8929  0.6144
18193TIP3   OH276069   2.247   5.075   1.857 -0.0662 -0.0295  0.0756
18193TIP3    H176070   2.174   5.125   1.893 -0.6306  1.7150 -3.0921
18193TIP3    H276071   2.304   5.141   1.817  0.8916 -1.6757 -1.4455
18194TIP3   OH276072   4.713   6.284   2.099 -0.1866 -0.4234  0.4771
18194TIP3    H176073   4.788   6.249   2.147  0.5692 -1.3820 -1.3038
18194TIP3    H276074   4.726   6.254   2.009 -0.4393  2.9431 -0.8397
18195TIP3   OH276075   5.448   0.268  15.548 -0.6067 -0.1716 -0.4747
18195TIP3    H176076   5.516   0.329  15.576  0.9504 -1.6472 -0.8955
18195TIP3    H276077   5.385   0.267  15.620 -0.2861  1.3444 -0.1496
18196TIP3   OH276078   3.636   1.398   3.664  0.3228 -0.1390  0.3848
18196TIP3    H176079   3.593   1.318   3.692 -0.4650  0.0322 -0.3016
18196TIP3    H276080   3.573   1.468   3.683  0.3792  0.1416 -0.4231
18197TIP3   OH276081   1.319   0.063   0.341 -0.0346  0.8017  0.3317
18197TIP3    H176082   1.248   0.042   0.281 -0.7564  1.5171  0.9175
18197TIP3    H276083   1.350   0.150   0.313  0.5819  0.5144  0.1063
18198TIP3   OH276084   5.009   5.766   2.534  0.4297  0.1250 -0.0723
18198TIP3    H176085   4.964   5.850   2.538  0.8356  0.3127  0.8654
18198TIP3    H276086   4.939   5.701   2.548  0.0746  0.2723 -1.0552
18199TIP3   OH276087   3.809   1.067   1.763  0.1571  0.4894  0.4229
18199TIP3    H176088   3.785   0.978   1.738  1.3489  0.1141  0.5540
18199TIP3    H276089   3.885   1.057   1.820  0.9090  1.6353 -0.3247
18200TIP3   OH276090   1.619   3.464   2.862  0.8658 -0.1827  0.0108
18200TIP3    H176091   1.602   3.380   2.820 -0.5681 -0.6154  1.3720
18200TIP3    H276092   1.544   3.519   2.839  0.9528  0.1626  0.5353
18201TIP3   OH276093   2.936   5.531  16.038  0.5569  0.0229 -0.0770
18201TIP3    H176094   2.962   5.439  16.035 -0.2653 -0.2246  0.2974
18201TIP3    H276095   2.859   5.533  16.095  0.1201  0.8366 -0.6791
18202TIP3   OH276096   1.204   4.952   2.446  0.3616  0.0163 -0.9319
18202TIP3    H176097   1.225   5.004   2.368  0.3967  0.8685 -0.3605
18202TIP3    H276098   1.163   4.873   2.410  2.5795 -0.7618 -1.9542
18203TIP3   OH276099   6.522   0.541   5.016 -0.4224  0.2068 -0.2149
18203TIP3    H176100   6.551   0.608   4.954 -0.6556  0.2112 -0.3194
18203TIP3    H276101   6.461   0.487   4.966 -0.2325 -0.0836 -0.1303
18204TIP3   OH276102   6.368   3.603  14.943  0.5430  0.2887 -0.4114
18204TIP3    H176103   6.301   3.672  14.948  0.5175  0.2242  0.3095
18204TIP3    H276104   6.408   3.614  14.857  0.1735  0.8662 -0.5138
18205TIP3   OH276105   0.274   1.719   4.185  0.1805  0.1644 -0.9070
18205TIP3    H176106   0.319   1.795   4.221 -1.4412  1.9865 -2.5078
18205TIP3    H276107   0.233   1.677   4.260 -0.9940  2.3721 -0.2420
18206TIP3   OH276108   0.249   1.063   4.258  0.0090  0.1779 -0.2783
18206TIP3    H176109   0.228   1.046   4.166 -1.5730 -0.9803  0.2578
18206TIP3    H276110   0.215   1.151   4.274  1.3654  0.8844 -1.0734
18207TIP3   OH276111   3.272   1.762  14.082  0.3771 -0.5696 -0.6174
18207TIP3    H176112   3.339   1.762  14.014 -0.2511 -2.3540 -1.2820
18207TIP3    H276113   3.287   1.682  14.132  0.5842  0.5133  1.1407
18208TIP3   OH276114   6.035   3.741   5.356  0.4131  0.8063 -0.0788
18208TIP3    H176115   6.047   3.830   5.389 -0.2745  1.1336 -0.6796
18208TIP3    H276116   5.951   3.714   5.391  0.3469  0.6170 -0.3826
18209TIP3   OH276117   4.852   6.145   4.818 -0.3448 -0.0103 -0.0822
18209TIP3    H176118   4.876   6.226   4.774  0.3076  0.5425  1.2221
18209TIP3    H276119   4.758   6.153   4.833 -0.3995  0.2124 -0.5230
18210TIP3   OH276120   6.192   0.490  15.745 -0.1597  0.2583 -0.0889
18210TIP3    H176121   6.120   0.552  15.752 -0.5270 -0.2730  1.1947
18210TIP3    H276122   6.255   0.532  15.686 -1.0388  1.1997 -0.3717
18211TIP3   OH276123   4.493   6.822   2.461  0.1811 -0.5693 -0.5802
18211TIP3    H176124   4.424   6.843   2.524  0.9362  0.1471  0.0311
18211TIP3    H276125   4.567   6.794   2.516  0.9320  0.2987 -1.1247
18212TIP3   OH276126   0.130   2.567   1.380  0.8085  0.2407 -0.0176
18212TIP3    H176127   0.179   2.585   1.300 -0.4511 -1.5742 -1.2992
18212TIP3    H276128   0.095   2.478   1.367 -1.2873  0.7479  1.5657
18213TIP3   OH276129   1.320   3.826   3.185 -0.4402 -0.0547 -0.3991
18213TIP3    H176130   1.297   3.907   3.231 -0.8036 -0.9918  1.1123
18213TIP3    H276131   1.406   3.844   3.146  0.4936  0.3617  1.7225
18214TIP3   OH276132   4.963   0.878   1.841 -0.2898  0.1257 -0.3115
18214TIP3    H176133   5.008   0.883   1.926 -0.7239  0.1636 -0.0810
18214TIP3    H276134   4.982   0.790   1.809 -1.3386 -0.4238  0.5157
18215TIP3   OH276135   1.091   3.094  14.237  0.2618 -0.3185 -0.2324
18215TIP3    H176136   1.040   3.035  14.293  1.4785 -2.9789 -1.7610
18215TIP3    H276137   1.113   3.167  14.294 -1.6172 -1.1273  1.6772
18216TIP3   OH276138   5.990   4.419   3.731 -0.5530  0.8179  0.0293
18216TIP3    H176139   5.983   4.325   3.716 -1.2120  1.1878 -2.3050
18216TIP3    H276140   5.899   4.449   3.738 -0.3609  1.3590  0.3138
18217TIP3   OH276141   4.761   0.104   3.000  0.2020  0.2869  0.4596
18217TIP3    H176142   4.819   0.084   3.074 -0.8872  0.8836  1.5308
18217TIP3    H276143   4.817   0.150   2.937  1.2864 -0.7216  0.6521
18218TIP3   OH276144   3.784   5.753  13.485  0.2228 -0.1184 -0.3428
18218TIP3    H176145   3.836   5.734  13.563  0.2000 -2.2211 -0.7771
18218TIP3    H276146   3.694   5.737  13.512  0.1620 -0.2896 -0.6418
18219TIP3   OH276147   5.712   0.217   2.424 -0.3161 -0.1400 -0.5155
18219TIP3    H176148   5.702   0.279   2.352 -1.0373 -1.4741 -1.6312
18219TIP3    H276149   5.671   0.137   2.391 -1.8001 -0.4446  1.8422
18220TIP3   OH276150   4.060   5.138   4.455 -0.1097  0.0369 -0.4576
18220TIP3    H176151   4.099   5.056   4.426  0.8766  0.5495 -0.6203
18220TIP3    H276152   4.099   5.205   4.399 -0.4353  0.6985  0.0808
18221TIP3   OH276153   2.650   0.064   4.702 -0.2078  0.3953 -0.6715
18221TIP3    H176154   2.679  -0.027   4.699  0.3729  0.5824 -1.1117
18221TIP3    H276155   2.555   0.060   4.694 -0.3164 -0.2388  0.6676
18222TIP3   OH276156   3.918   2.474   6.085  0.5172 -0.4600  0.5375
18222TIP3    H176157   3.931   2.382   6.110 -2.1787 -0.9681  0.2788
18222TIP3    H276158   3.915   2.521   6.168  0.1390 -0.8751  0.7648
18223TIP3   OH276159   2.088   0.866   1.307  0.4865 -0.3506 -0.4099
18223TIP3    H176160   2.055   0.915   1.383 -0.3377  0.3336 -1.1887
18223TIP3    H276161   2.173   0.905   1.288 -0.2744  1.0119 -1.1833
18224TIP3   OH276162   1.512   2.773   1.110  0.1599 -0.1155 -0.5158
18224TIP3    H176163   1.463   2.826   1.047 -1.0269 -1.2615 -0.6009
18224TIP3    H276164   1.494   2.815   1.195 -2.8513 -1.7044 -0.2296
18225TIP3   OH276165   4.249   0.138   0.939 -0.2142 -0.1782  0.2540
18225TIP3    H176166   4.275   0.207   0.878 -0.5717  0.0948  0.4109
18225TIP3    H276167   4.323   0.131   0.999 -0.9727  1.4630  1.4579
18226TIP3   OH276168   0.289   5.587  16.541  0.1638 -0.3281 -0.0191
18226TIP3    H176169   0.258   5.670  16.505  1.9534  0.8911  1.0817
18226TIP3    H276170   0.244   5.579  16.625  0.0467 -0.4333 -0.0918
18227TIP3   OH276171   2.792   1.584  15.748 -0.1580 -0.5137  0.0198
18227TIP3    H176172   2.755   1.570  15.660  0.5005  0.0912 -0.3701
18227TIP3    H276173   2.717   1.612  15.801 -1.0803 -3.2586  0.3122
18228TIP3   OH276174   2.182   4.667   4.641 -0.1428  0.1258 -0.2380
18228TIP3    H176175   2.235   4.620   4.576  0.6112 -2.4352  2.0424
18228TIP3    H276176   2.154   4.599   4.702  0.4564  2.5483  2.9664
18229TIP3   OH276177   1.539   0.779  17.030 -0.2622 -0.8372  0.1966
18229TIP3    H176178   1.522   0.773  17.125 -0.7172  1.1508  0.2818
18229TIP3    H276179   1.470   0.837  16.998 -0.2663 -1.7024 -1.4246
18230TIP3   OH276180   4.827   6.490  10.551 -0.2298  0.1717 -0.0153
18230TIP3    H176181   4.921   6.508  10.541  0.3118 -1.1241  2.0385
18230TIP3    H276182   4.785   6.543  10.484  1.8062  2.4029  0.3366
18231TIP3   OH276183   5.092   5.219  16.794  0.1032 -0.4700  0.1654
18231TIP3    H176184   5.053   5.295  16.836 -2.0232 -2.1430  1.4422
18231TIP3    H276185   5.130   5.168  16.866  0.3133 -1.2467 -0.4760
18232TIP3   OH276186   5.565   0.953  11.864 -0.1182  0.0824 -0.3652
18232TIP3    H176187   5.587   0.982  11.953 -0.0744 -0.3342 -0.2403
18232TIP3    H276188   5.617   0.874  11.850 -1.4104 -0.8519 -0.1067
18233TIP3   OH276189   0.827   5.579   3.960  0.1691  0.6625  0.1493
18233TIP3    H176190   0.781   5.499   3.934  1.1109 -0.0038  0.4524
18233TIP3    H276191   0.863   5.558   4.047  0.7435  1.2765  0.0673
18234TIP3   OH276192   5.506   0.202  14.367  0.0503  0.2123  0.0440
18234TIP3    H176193   5.575   0.250  14.412 -0.0087 -0.5865  1.0292
18234TIP3    H276194   5.550   0.128  14.325  0.0134  0.6036 -0.7038
18235TIP3   OH276195   1.444   3.163  14.869  0.0097 -0.2440 -0.5940
18235TIP3    H176196   1.496   3.238  14.841  0.1020 -0.7919 -1.9448
18235TIP3    H276197   1.357   3.177  14.831 -0.7527  0.4304  1.2603
18236TIP3   OH276198   3.160   1.541  14.605  0.7733 -0.1004  0.4368
18236TIP3    H176199   3.077   1.504  14.635  1.0387 -0.8285  0.2965
18236TIP3    H276200   3.226   1.477  14.630  0.8976 -1.3844 -2.6724
18237TIP3   OH276201   4.780   4.967  16.934 -0.1627  0.0659 -0.0982
18237TIP3    H176202   4.857   5.023  16.943 -0.2171  0.2965 -1.0279
18237TIP3    H276203   4.807   4.897  16.874 -1.4796  1.7116 -2.8186
18238TIP3   OH276204   4.449   0.945   0.350 -0.5841  0.5412  0.1674
18238TIP3    H176205   4.517   0.963   0.285  0.0001 -0.1115  0.5753
18238TIP3    H276206   4.369   0.930   0.299 -0.1168 -0.0545 -0.4131
18239TIP3   OH276207   1.241   2.388   5.002  0.1110 -0.2418 -0.7180
18239TIP3    H176208   1.231   2.359   4.911  0.2472 -1.2835 -0.4238
18239TIP3    H276209   1.154   2.379   5.040  0.1596 -0.2843 -0.6174
18240TIP3   OH276210   6.223   0.274   1.742  0.0924  0.0349 -0.1273
18240TIP3    H176211   6.213   0.313   1.655 -0.2502 -0.8152 -0.4810
18240TIP3    H276212   6.201   0.181   1.729 -1.7551  0.2265  1.2119
18241TIP3   OH276213   5.265   2.926  12.208  0.3534 -0.0167 -0.3361
18241TIP3    H176214   5.210   2.911  12.131  2.1225  0.0480 -1.6738
18241TIP3    H276215   5.266   2.843  12.254 -1.7598  0.2957  0.3614
18242TIP3   OH276216   1.709   1.774  12.407  0.4968 -0.2362 -0.0547
18242TIP3    H176217   1.657   1.761  12.486 -1.1860  0.2848 -1.0272
18242TIP3    H276218   1.661   1.729  12.338  3.4833 -3.4084 -0.3803
18243TIP3   OH276219   4.449   4.962  10.757  0.3083 -0.2641 -0.6288
18243TIP3    H176220   4.454   4.886  10.700  1.3336  0.4330 -1.5216
18243TIP3    H276221   4.480   5.035  10.703  1.5762  0.3859  0.8605
18244TIP3   OH276222   5.379   6.095   6.234 -0.4305  0.3838 -0.0730
18244TIP3    H176223   5.413   6.064   6.319 -0.6328  2.2730  0.7491
18244TIP3    H276224   5.425   6.042   6.169  0.5137 -0.4007  1.1861
18245TIP3   OH276225   0.953   0.900  10.434 -0.5337  0.0822 -0.3770
18245TIP3    H176226   0.928   0.906  10.342  1.0381  0.2108 -0.8250
18245TIP3    H276227   1.031   0.845  10.434 -0.1284  0.6222  0.8042
18246TIP3   OH276228   2.219   3.565  11.724  0.2723 -0.3392 -0.0126
18246TIP3    H176229   2.297   3.618  11.707 -0.3752  0.7047  0.1714
18246TIP3    H276230   2.213   3.506  11.649  0.3582  0.6511 -0.8284
18247TIP3   OH276231   6.421   1.232  15.401 -0.3379 -0.5350 -0.0506
18247TIP3    H176232   6.326   1.220  15.402 -0.1274 -2.4280  0.7211
18247TIP3    H276233   6.456   1.158  15.450  1.4645  1.2092  1.5165
18248TIP3   OH276234   2.692   3.615  14.187 -1.0401 -0.3935 -0.3365
18248TIP3    H176235   2.764   3.564  14.227 -1.5023 -1.2285 -0.5475
18248TIP3    H276236   2.620   3.605  14.249 -0.8036  0.9702  0.1908
18249TIP3   OH276237   5.774   5.307  11.108 -0.0839 -0.3902  0.6969
18249TIP3    H176238   5.866   5.295  11.130  0.0656  0.9940  0.9265
18249TIP3    H276239   5.728   5.296  11.192  0.3275  3.1784  1.5596
18250TIP3   OH276240   5.596   2.437   4.637  0.1982  0.3018 -0.2848
18250TIP3    H176241   5.596   2.492   4.716  1.2664  1.1434 -0.8417
18250TIP3    H276242   5.670   2.377   4.650 -1.2519 -1.4001  0.5443
18251TIP3   OH276243   1.042   2.519  12.552 -0.1829  0.1451 -0.5575
18251TIP3    H176244   0.982   2.592  12.568  0.9471  0.7097  1.3580
18251TIP3    H276245   1.012   2.450  12.612  0.5813  0.1370 -0.1832
18252TIP3   OH276246   3.835   1.982  13.015  0.2080 -0.4032  0.4680
18252TIP3    H176247   3.777   1.987  12.939 -1.0026  0.8304  1.4316
18252TIP3    H276248   3.921   2.007  12.982 -0.3086  0.1463 -0.4897
18253TIP3   OH276249   5.163   0.772  12.485  0.0092  0.3893  0.6690
18253TIP3    H176250   5.208   0.768  12.570  1.1858 -1.1492  0.0237
18253TIP3    H276251   5.096   0.704  12.489  1.2508 -0.9486 -0.2252
18254TIP3   OH276252   6.446   1.193  12.904 -0.0932 -0.0591  0.4429
18254TIP3    H176253   6.540   1.190  12.884 -0.1782 -0.9090  0.1191
18254TIP3    H276254   6.404   1.182  12.818 -0.5267  2.6749  0.2265
18255TIP3   OH276255   0.951   4.473   0.865 -0.3577  0.0427  0.4782
18255TIP3    H176256   1.043   4.467   0.891 -0.3110  0.5893  0.4553
18255TIP3    H276257   0.906   4.409   0.920 -0.0282  0.0773  0.7934
18256TIP3   OH276258   1.140   2.517  15.339 -0.2203  0.1384  0.3430
18256TIP3    H176259   1.082   2.525  15.263 -1.5289 -0.1322  1.2807
18256TIP3    H276260   1.160   2.607  15.363  1.3261  0.2368 -1.1061
18257TIP3   OH276261   3.723   4.601   3.086  0.3410  0.1617  0.0925
18257TIP3    H176262   3.808   4.586   3.046  0.6340  3.5342 -0.8442
18257TIP3    H276263   3.662   4.607   3.012  0.0591  1.8471  0.4291
18258TIP3   OH276264   6.525   3.534   0.734 -0.8469  0.4195  0.2651
18258TIP3    H176265   6.492   3.488   0.657  0.5023  0.6205 -0.4600
18258TIP3    H276266   6.447   3.573   0.774 -2.0391 -2.3826  0.8783
18259TIP3   OH276267   1.915   5.518   0.748 -0.4087  0.5528 -0.1575
18259TIP3    H176268   1.933   5.602   0.790  1.7121 -0.4911  1.2004
18259TIP3    H276269   1.985   5.460   0.779 -1.0155 -1.3636 -2.1048
18260TIP3   OH276270   3.252   6.710   2.369  0.0976 -0.1378  0.3788
18260TIP3    H176271   3.213   6.789   2.406 -0.2255 -0.6799  1.2350
18260TIP3    H276272   3.274   6.733   2.279 -2.0196  0.2496 -0.0782
18261TIP3   OH276273   6.646   0.805  10.854 -0.0552 -0.6631 -0.0108
18261TIP3    H176274   6.673   0.788  10.944 -1.1331  2.0619  0.9346
18261TIP3    H276275   6.551   0.797  10.854 -0.6368  3.6327  0.3862
18262TIP3   OH276276   4.059   0.176   1.963  0.0176 -0.6496  0.2372
18262TIP3    H176277   4.017   0.260   1.946 -1.1706 -1.1088  0.7995
18262TIP3    H276278   4.115   0.191   2.039  0.0686 -0.2849  0.1269
18263TIP3   OH276279   5.980   0.219  12.620 -0.3850 -0.1122  0.2307
18263TIP3    H176280   5.904   0.228  12.563  0.6698 -0.3193 -1.2719
18263TIP3    H276281   6.039   0.289  12.593  0.1618 -0.2549  1.0282
18264TIP3   OH276282   0.832   5.243  13.972  0.0446  0.3898  0.0979
18264TIP3    H176283   0.750   5.250  13.923  0.0396  1.7535  0.2686
18264TIP3    H276284   0.807   5.198  14.053  0.1062 -2.1473 -1.1938
18265TIP3   OH276285   6.225   0.071  16.093  0.3561 -0.2556  0.5368
18265TIP3    H176286   6.195  -0.012  16.055 -1.6231  0.9442 -0.7528
18265TIP3    H276287   6.204   0.136  16.026  1.3821  1.3577  1.7194
18266TIP3   OH276288   1.647   0.065   5.982  0.5193  0.0591 -0.2762
18266TIP3    H176289   1.717   0.120   6.018  0.3028 -0.1488  0.4767
18266TIP3    H276290   1.637   0.095   5.891  2.3895 -0.7051 -0.7831
18267TIP3   OH276291   2.091   5.374  13.572  0.6306  0.0049  0.3278
18267TIP3    H176292   2.143   5.319  13.512  0.3456 -1.9105  1.7452
18267TIP3    H276293   2.007   5.330  13.577  0.3055  0.7260  1.3495
18268TIP3   OH276294   5.703   2.024  15.829  0.0160 -0.0926 -0.2648
18268TIP3    H176295   5.743   1.998  15.912  1.0674 -0.0445 -0.7387
18268TIP3    H276296   5.719   2.118  15.823 -0.7453  0.0454 -0.1608
18269TIP3   OH276297   5.531   1.223   2.105 -0.0181  0.1138  0.9001
18269TIP3    H176298   5.590   1.204   2.032  0.4245  0.5295  1.1416
18269TIP3    H276299   5.448   1.184   2.079 -0.6760  2.5503 -1.1083
18270TIP3   OH276300   0.354   5.368  10.931  0.8024 -0.1451  0.5016
18270TIP3    H176301   0.400   5.289  10.957  0.5576 -1.4262 -2.5109
18270TIP3    H276302   0.364   5.372  10.836 -1.4491  1.9907  0.2297
18271TIP3   OH276303   5.179   0.253  14.922  0.6586  0.3223  0.5008
18271TIP3    H176304   5.207   0.344  14.929  2.6667 -0.2006  0.0316
18271TIP3    H276305   5.243   0.205  14.975 -0.3399 -0.8306  0.7018
18272TIP3   OH276306   0.038   6.193  13.589  0.5757  0.4156  0.0508
18272TIP3    H176307   0.005   6.146  13.665  2.7673  0.0831  0.8603
18272TIP3    H276308  -0.036   6.246  13.560 -1.0957 -1.3900  0.8137
18273TIP3   OH276309   4.081   0.670  11.059 -0.3411  0.5058 -0.5288
18273TIP3    H176310   4.110   0.636  11.143 -0.0702  0.5931 -0.5842
18273TIP3    H276311   4.076   0.593  11.002  2.9215  0.8263 -1.4279
18274TIP3   OH276312   3.035   6.090   6.698  0.3597 -0.2079 -0.0459
18274TIP3    H176313   3.038   6.150   6.773  0.7435  0.2699 -0.4358
18274TIP3    H276314   3.085   6.135   6.630  1.2947 -1.3081 -0.1081
18275TIP3   OH276315   0.552   1.132   1.846 -1.1741  0.5523  0.1696
18275TIP3    H176316   0.470   1.131   1.895 -2.1034 -2.7926 -1.2034
18275TIP3    H276317   0.610   1.074   1.895 -0.7101  0.4617 -0.4740
18276TIP3   OH276318   4.878   1.979  14.820 -0.1629  0.6449  0.6270
18276TIP3    H176319   4.844   1.960  14.907 -3.3321 -0.5543 -0.7466
18276TIP3    H276320   4.851   2.069  14.802  1.7010  1.3952  1.3297
18277TIP3   OH276321   2.473   1.996   3.935 -0.2040  0.6348  0.6259
18277TIP3    H176322   2.549   2.022   3.883 -0.2731 -1.1114 -0.4058
18277TIP3    H276323   2.400   2.043   3.897 -0.5925 -1.9447 -2.1975
18278TIP3   OH276324   5.611   1.776   3.051  0.2104 -0.2415 -0.5868
18278TIP3    H176325   5.556   1.754   2.975 -1.5053 -3.0498  1.2912
18278TIP3    H276326   5.554   1.832   3.104  0.4231 -0.4210 -0.1737
18279TIP3   OH276327   2.723   4.735  11.415 -0.0607  0.1484  0.3612
18279TIP3    H176328   2.732   4.648  11.452 -0.0705  0.2226  0.5392
18279TIP3    H276329   2.791   4.787  11.458  0.6237 -0.0232 -0.5043
18280TIP3   OH276330   4.270   6.588  16.053 -0.4838  0.2628  0.3817
18280TIP3    H176331   4.254   6.682  16.049  1.6459  0.6812  0.3565
18280TIP3    H276332   4.231   6.553  15.973  0.1196  1.3737 -0.4172
18281TIP3   OH276333   6.487   4.892  10.938  0.3688  0.2393 -0.2529
18281TIP3    H176334   6.468   4.973  10.890 -1.5435  0.3809  0.6459
18281TIP3    H276335   6.464   4.822  10.877  0.2763  0.3840 -0.3865
18282TIP3   OH276336   0.322   4.681   3.456 -0.1580  0.2254 -0.5055
18282TIP3    H176337   0.411   4.668   3.423  1.1458  0.0058  2.7436
18282TIP3    H276338   0.291   4.593   3.477 -0.2597  0.4534  0.3486
18283TIP3   OH276339   2.249   6.832  11.210  0.2886  0.3426  0.2810
18283TIP3    H176340   2.257   6.747  11.254 -0.4933  0.2606  0.2761
18283TIP3    H276341   2.158   6.835  11.180  0.2982  1.2009  0.3202
18284TIP3   OH276342   3.838   5.939  12.493  0.1143 -0.2906  0.3433
18284TIP3    H176343   3.795   5.905  12.571  0.1680  0.2432  0.6020
18284TIP3    H276344   3.772   5.931  12.424  0.5985 -2.3218  0.0513
18285TIP3   OH276345   0.688   1.953  14.338 -0.2690  0.6537  0.9733
18285TIP3    H176346   0.609   1.906  14.312  0.5749  1.5275 -4.2424
18285TIP3    H276347   0.661   2.045  14.341  0.5704  1.0946 -1.9824
18286TIP3   OH276348   6.398   0.587   1.598 -0.0870  0.2636  0.2462
18286TIP3    H176349   6.377   0.539   1.517 -0.2136  0.9648 -0.1457
18286TIP3    H276350   6.355   0.672   1.587  1.9491  1.3250 -0.0605
18287TIP3   OH276351   2.529   0.512   3.381 -0.6186 -0.1643  0.0231
18287TIP3    H176352   2.461   0.491   3.317 -0.4217 -0.3087 -0.1407
18287TIP3    H276353   2.509   0.602   3.408  0.0331  0.3825 -1.1891
18288TIP3   OH276354   4.952   2.122   5.656  0.4645  0.3139 -0.4122
18288TIP3    H176355   5.002   2.047   5.688  1.1090  0.7495 -0.3689
18288TIP3    H276356   5.019   2.188   5.635 -0.0535  0.6760 -0.9757
18289TIP3   OH276357   0.322   2.931   0.146 -0.1043  0.5689 -0.3382
18289TIP3    H176358   0.363   2.947   0.061  0.1532  1.0358 -0.1290
18289TIP3    H276359   0.304   3.019   0.180  0.2082  0.3935  0.2865
18290TIP3   OH276360   0.354   1.541  15.359 -0.7549 -0.2007  0.1802
18290TIP3    H176361   0.406   1.543  15.439 -1.1450  1.8867  0.4280
18290TIP3    H276362   0.266   1.521  15.388 -0.8593  0.3607  0.2527
18291TIP3   OH276363   2.147   3.782  12.162  0.3816 -0.4191 -0.2287
18291TIP3    H176364   2.164   3.870  12.197 -0.2716 -0.5241  0.3722
18291TIP3    H276365   2.165   3.790  12.069  2.9119 -0.3327  0.2125
18292TIP3   OH276366   6.329   5.759  12.539  0.3242  0.3694  0.8102
18292TIP3    H176367   6.374   5.700  12.599  0.5069 -0.0054  0.3229
18292TIP3    H276368   6.368   5.739  12.453 -0.7986 -0.0115  0.3685
18293TIP3   OH276369   3.146   1.431  15.925  0.3304 -0.0385  0.5168
18293TIP3    H176370   3.134   1.496  15.995 -1.1104  0.5166 -0.1899
18293TIP3    H276371   3.231   1.392  15.942  0.0082  0.0482  2.6134
18294TIP3   OH276372   0.017   3.637   2.778 -0.4906 -0.4776 -0.0237
18294TIP3    H176373  -0.050   3.654   2.712 -0.3294 -0.4175 -0.1752
18294TIP3    H276374   0.048   3.724   2.803 -1.1343 -0.4629  0.7486
18295TIP3   OH276375   6.566   2.652   4.474 -0.0545  0.7314  0.4071
18295TIP3    H176376   6.530   2.569   4.442 -0.7549  0.8802  0.8133
18295TIP3    H276377   6.607   2.630   4.558  3.3244 -0.0363 -1.2390
18296TIP3   OH276378   4.454   5.109  11.640  0.1233  0.6364  0.0888
18296TIP3    H176379   4.513   5.095  11.714 -0.1870 -0.0558  0.2034
18296TIP3    H276380   4.388   5.041  11.647 -2.0165  2.7092  1.2350
18297TIP3   OH276381   6.040   2.580  16.533 -0.0972 -0.3226  0.5935
18297TIP3    H176382   6.013   2.670  16.547  0.6605 -0.0497  0.3408
18297TIP3    H276383   6.010   2.559  16.444  0.8458  0.1153  0.1547
18298TIP3   OH276384   4.162   3.756  15.593 -0.0229 -0.1490  0.2818
18298TIP3    H176385   4.127   3.786  15.509 -1.3408 -0.6301  0.6319
18298TIP3    H276386   4.132   3.665  15.600 -0.8773  0.2209  1.7591
18299TIP3   OH276387   3.640   4.287   6.021  0.9273  0.1868 -0.0276
18299TIP3    H176388   3.666   4.266   6.111  0.3983  0.9090  0.3012
18299TIP3    H276389   3.548   4.312   6.027  0.8953  0.2839 -0.7647
18300TIP3   OH276390   3.469   0.599   5.202 -0.0493 -0.6445  0.2682
18300TIP3    H176391   3.479   0.519   5.149 -0.0619 -0.7404  0.4109
18300TIP3    H276392   3.529   0.662   5.163 -1.2409 -0.1801 -0.9119
18301TIP3   OH276393   4.769   2.052   3.982 -0.5153 -0.0369  0.1665
18301TIP3    H176394   4.708   1.981   3.962 -0.4228  0.0691 -0.5064
18301TIP3    H276395   4.793   2.038   4.073 -1.7216  0.0484  0.5139
18302TIP3   OH276396   3.939   5.762   2.676 -0.2042 -0.2528  0.3288
18302TIP3    H176397   3.956   5.719   2.592 -1.6109 -1.1645  0.4669
18302TIP3    H276398   3.942   5.855   2.656  1.4994 -0.4105 -0.2867
18303TIP3   OH276399   2.478   1.831  13.703 -0.4241 -0.4264 -0.3263
18303TIP3    H176400   2.505   1.742  13.728  1.5899  0.3167  0.3315
18303TIP3    H276401   2.485   1.881  13.784 -1.6314  0.3381 -0.6748
18304TIP3   OH276402   4.716   2.913   2.054  0.3690 -0.3765  0.0178
18304TIP3    H176403   4.631   2.870   2.045 -0.6032  1.7180 -1.6154
18304TIP3    H276404   4.715   2.983   1.989  2.9216  0.4341  0.7268
18305TIP3   OH276405   5.393   1.365  11.647 -0.5370 -0.3437 -0.0502
18305TIP3    H176406   5.322   1.351  11.709 -1.4584 -1.0315 -1.2031
18305TIP3    H276407   5.416   1.457  11.657  1.9583 -1.1897  3.9297
18306TIP3   OH276408   4.028   4.343  10.744 -0.4634 -0.1368  0.1846
18306TIP3    H176409   3.955   4.371  10.689  0.7105 -0.2823 -1.5253
18306TIP3    H276410   4.105   4.352  10.688  0.7870 -0.4164  1.7849
18307TIP3   OH276411   1.407   2.251  11.760 -0.2028  0.2946  0.2612
18307TIP3    H176412   1.354   2.266  11.839  0.3924  0.8599  0.5698
18307TIP3    H276413   1.418   2.157  11.756 -3.0608 -0.0929 -1.0351
18308TIP3   OH276414   6.715   0.531  12.508  0.0156 -0.0350  0.0664
18308TIP3    H176415   6.693   0.443  12.479  0.2713  0.1418 -0.6930
18308TIP3    H276416   6.696   0.587  12.432 -1.2520  0.7292  0.9067
18309TIP3   OH276417   4.278   2.701   0.890  0.0565  0.1826 -0.3946
18309TIP3    H176418   4.258   2.643   0.963 -0.5753  2.2214  1.1459
18309TIP3    H276419   4.318   2.644   0.824 -0.1189 -1.8790  1.1842
18310TIP3   OH276420   2.786   1.629  12.600  0.0168 -0.2341  0.1014
18310TIP3    H176421   2.729   1.564  12.640  2.1536 -2.8840 -0.8962
18310TIP3    H276422   2.824   1.585  12.524  1.0438  2.4443 -1.0747
18311TIP3   OH276423   5.249   0.864  16.720  0.5342 -0.3941 -0.1931
18311TIP3    H176424   5.220   0.945  16.679  0.7639 -0.5683 -0.7081
18311TIP3    H276425   5.283   0.891  16.805  0.8252  0.0814 -0.4565
18312TIP3   OH276426   1.178   4.795   1.025  1.1904  0.6611 -0.5292
18312TIP3    H176427   1.258   4.838   1.055  0.1226  1.1108  2.0176
18312TIP3    H276428   1.173   4.714   1.076  0.1431  0.5389 -0.7875
18313TIP3   OH276429   5.787   3.383  16.533  0.4627 -0.3619  0.5193
18313TIP3    H176430   5.694   3.361  16.540  0.1346  0.7750  0.0328
18313TIP3    H276431   5.832   3.316  16.585 -0.9570  1.4409  4.5421
18314TIP3   OH276432   4.831   3.965  10.721  0.2895  0.9259  0.7454
18314TIP3    H176433   4.891   3.971  10.795  1.6290 -0.8827 -0.1099
18314TIP3    H276434   4.887   3.975  10.644 -0.7902  0.8911 -0.0706
18315TIP3   OH276435   2.175   1.782   3.269  0.2128 -0.1909  0.2348
18315TIP3    H176436   2.139   1.773   3.180  0.8057 -0.3973  0.0126
18315TIP3    H276437   2.172   1.876   3.286 -1.4550 -0.2752  0.6583
18316TIP3   OH276438   5.399   1.336   4.779  0.3884  0.1808  0.0008
18316TIP3    H176439   5.322   1.284   4.801 -2.1372  3.1588 -0.9841
18316TIP3    H276440   5.438   1.358   4.863 -0.6158 -0.3720  0.6315
18317TIP3   OH276441   5.711   0.599  13.387  0.1572 -0.3374 -0.2322
18317TIP3    H176442   5.727   0.685  13.426  1.3062 -0.8608  0.5091
18317TIP3    H276443   5.689   0.543  13.461 -2.2666 -0.3561 -0.8936
18318TIP3   OH276444   3.825   4.387   0.606  0.6060  0.5272  0.4085
18318TIP3    H176445   3.747   4.342   0.573  0.4541  0.1390  1.2646
18318TIP3    H276446   3.894   4.320   0.604  0.7427  0.6704  0.3130
18319TIP3   OH276447   5.610   4.682   1.114  0.3585 -0.4208 -0.7320
18319TIP3    H176448   5.682   4.663   1.175 -0.1444 -1.1629 -0.3517
18319TIP3    H276449   5.531   4.666   1.166 -0.1083  1.3156 -0.8432
18320TIP3   OH276450   2.476   1.633   2.089  0.2606  0.1248 -0.1275
18320TIP3    H176451   2.431   1.562   2.044 -0.2785 -0.1709  0.8567
18320TIP3    H276452   2.524   1.591   2.160 -0.7952  0.8172  1.0298
18321TIP3   OH276453   0.465   0.656   0.746  0.0095  0.0292  0.8741
18321TIP3    H176454   0.552   0.681   0.716  1.2505 -2.1815  2.3289
18321TIP3    H276455   0.412   0.650   0.666  1.5258  0.2276 -0.1727
18322TIP3   OH276456   5.143   1.995  14.904 -0.2779 -0.0379 -0.0449
18322TIP3    H176457   5.058   1.951  14.917 -1.2083  2.1330  2.0316
18322TIP3    H276458   5.129   2.052  14.829 -1.6006  2.0973  1.6709
18323TIP3   OH276459   2.783   0.070  11.723  0.1377  0.5953 -0.3482
18323TIP3    H176460   2.863   0.107  11.686  3.2486 -2.9122  2.1027
18323TIP3    H276461   2.745   0.142  11.774  1.4299  2.5080 -1.9331
18324TIP3   OH276462   0.799   2.148   4.374 -0.1980  0.4198  0.5308
18324TIP3    H176463   0.845   2.203   4.437 -2.3228  0.2686  2.3251
18324TIP3    H276464   0.789   2.064   4.418  0.5228 -0.5537 -1.0688
18325TIP3   OH276465   4.149   5.534  13.241 -0.0069  0.3551 -0.0869
18325TIP3    H176466   4.115   5.620  13.215 -0.6304 -0.0545 -0.6614
18325TIP3    H276467   4.088   5.503  13.308 -0.2957 -0.0142 -0.5128
18326TIP3   OH276468   3.722   3.375  15.267 -0.1382  0.1188  0.6308
18326TIP3    H176469   3.766   3.351  15.348  0.7636  0.9987  0.4301
18326TIP3    H276470   3.666   3.449  15.291 -1.1218 -0.6577  0.7744
18327TIP3   OH276471   5.545   2.180  14.180  0.1758 -0.2820 -0.2371
18327TIP3    H176472   5.535   2.230  14.261 -0.4585  0.4450 -0.7470
18327TIP3    H276473   5.631   2.208  14.146  0.8337 -1.2303  0.5947
18328TIP3   OH276474   3.890   2.006   2.258  0.1908  0.2261 -0.0186
18328TIP3    H176475   3.929   2.085   2.295  0.7353  1.2793 -2.6203
18328TIP3    H276476   3.822   2.038   2.198 -1.0875 -1.3956  0.4664
18329TIP3   OH276477   4.477   0.916   5.321 -0.3607  0.4593 -0.0352
18329TIP3    H176478   4.497   0.927   5.229 -0.0268  0.8319  0.0795
18329TIP3    H276479   4.386   0.945   5.329 -0.5079  0.0798 -0.3081
18330TIP3   OH276480   3.852   4.271  10.538  0.3746  0.3459  0.6142
18330TIP3    H176481   3.846   4.354  10.490  0.3081  0.7534  1.3206
18330TIP3    H276482   3.882   4.208  10.472 -1.6937  0.4298 -0.4855
18331TIP3   OH276483   1.682   3.219   0.809 -0.2060  0.1673  0.4805
18331TIP3    H176484   1.594   3.256   0.811 -0.7884 -1.1633  1.1818
18331TIP3    H276485   1.740   3.294   0.820 -1.2005  1.1873 -0.9477
18332TIP3   OH276486   3.612   4.849  11.648 -0.0383  0.3472 -0.3743
18332TIP3    H176487   3.677   4.887  11.589  0.8273 -1.0883 -0.3905
18332TIP3    H276488   3.610   4.908  11.723  0.1989  1.1977 -1.0209
18333TIP3   OH276489   1.113   5.120   4.459 -0.3358 -0.1815  0.6589
18333TIP3    H176490   1.192   5.123   4.405 -1.1560  1.3782 -0.5623
18333TIP3    H276491   1.124   5.192   4.522 -0.7615  0.0485  0.4810
18334TIP3   OH276492   5.203   6.749   3.830  0.5055  0.0878  0.6263
18334TIP3    H176493   5.178   6.807   3.758 -1.6837  0.3118  1.5096
18334TIP3    H276494   5.242   6.807   3.895 -0.1088  0.3132  0.7951
18335TIP3   OH276495   0.920   4.861   3.514  0.3045  0.2747  0.0617
18335TIP3    H176496   0.995   4.875   3.457  1.4760 -0.7536  1.2891
18335TIP3    H276497   0.910   4.765   3.518 -0.4066  0.3639  0.7593
18336TIP3   OH276498   4.714   3.994   3.448  0.0767 -0.0056 -0.1589
18336TIP3    H176499   4.706   4.066   3.386  1.2972  0.6315  0.3888
18336TIP3    H276500   4.639   3.938   3.429  0.7952 -0.2265 -2.6924
18337TIP3   OH276501   2.238   1.791  11.350 -0.2482  0.1314 -0.4983
18337TIP3    H176502   2.294   1.851  11.399  0.5517 -1.0750  0.1032
18337TIP3    H276503   2.199   1.735  11.417 -1.3771  0.2670 -1.0119
18338TIP3   OH276504   1.308   3.191   2.058 -0.1766 -0.5682 -0.0309
18338TIP3    H176505   1.265   3.108   2.037 -0.0501 -0.9925  1.2907
18338TIP3    H276506   1.268   3.218   2.141 -0.7545  1.0929 -0.8144
18339TIP3   OH276507   2.140   6.274  10.471  0.3464  1.0343  0.2280
18339TIP3    H176508   2.059   6.280  10.420  0.1528 -2.2347 -0.1177
18339TIP3    H276509   2.110   6.246  10.558  1.0109  0.7857  0.3820
18340TIP3   OH276510   3.593   2.703   3.992  0.4673  0.4417 -0.1252
18340TIP3    H176511   3.659   2.687   4.060  0.3931  0.8416  0.0418
18340TIP3    H276512   3.604   2.630   3.931  1.0237  0.4739 -0.0676
18341TIP3   OH276513   5.512   4.431  16.930 -0.3287  0.0114 -0.5680
18341TIP3    H176514   5.490   4.488  16.856  0.7996  0.0090 -0.9314
18341TIP3    H276515   5.575   4.481  16.981 -1.0145 -0.0343  0.3480
18342TIP3   OH276516   2.224   4.777  12.356  0.0577 -0.0436 -0.0622
18342TIP3    H176517   2.205   4.693  12.397  0.0207  0.2322  0.4937
18342TIP3    H276518   2.287   4.819  12.415  1.7635 -0.5626 -1.3998
18343TIP3   OH276519   0.329   3.303   4.946 -0.4947 -0.3340 -0.0321
18343TIP3    H176520   0.293   3.278   4.861 -2.1075  0.1084  0.4787
18343TIP3    H276521   0.349   3.221   4.990  0.4572 -0.5652 -0.8559
18344TIP3   OH276522   6.552   3.583   4.245  0.0226  0.2193 -0.2639
18344TIP3    H176523   6.505   3.661   4.276 -0.9129 -0.4803  0.1218
18344TIP3    H276524   6.582   3.606   4.157 -2.5865  0.0747 -1.2703
18345TIP3   OH276525   2.112   0.695  12.267 -0.3598 -0.2382  0.2231
18345TIP3    H176526   2.026   0.710  12.306 -0.7519  1.2964 -1.1392
18345TIP3    H276527   2.128   0.601  12.280 -2.5128 -0.6895 -0.0480
18346TIP3   OH276528   2.670   5.735   4.064  0.3004  0.1192 -0.5370
18346TIP3    H176529   2.620   5.780   4.132  0.9732  2.1938 -1.3401
18346TIP3    H276530   2.605   5.679   4.020 -0.9358  1.3879 -0.4154
18347TIP3   OH276531   0.258   3.515  14.183 -0.2010  0.1352 -0.2932
18347TIP3    H176532   0.347   3.534  14.154 -0.1418  1.0485  0.4457
18347TIP3    H276533   0.255   3.543  14.274 -0.6306 -1.8881  0.3638
18348TIP3   OH276534   1.048   4.151  11.408  0.7566 -0.4247 -1.2170
18348TIP3    H176535   1.078   4.219  11.348  3.0046 -0.1403  0.1185
18348TIP3    H276536   1.128   4.119  11.451 -0.7212 -0.0375  2.2028
18349TIP3   OH276537   0.485   3.113  12.181  0.0886 -0.7349 -0.6432
18349TIP3    H176538   0.468   3.030  12.136 -0.8457 -1.1602  0.4576
18349TIP3    H276539   0.425   3.113  12.255  0.0002  0.9779 -0.6763
18350TIP3   OH276540   1.785   3.271   3.208 -0.4446  0.2657 -0.1464
18350TIP3    H176541   1.831   3.265   3.124 -0.4732  0.8058 -0.2032
18350TIP3    H276542   1.850   3.244   3.273 -0.9891 -2.1579 -0.4848
18351TIP3   OH276543   0.162   4.648  13.911  0.3154  0.1947 -0.3112
18351TIP3    H176544   0.107   4.698  13.851 -2.9375 -0.1643  2.0990
18351TIP3    H276545   0.157   4.558  13.878 -3.2431 -0.4085  1.4346
18352TIP3   OH276546   4.683   5.486  16.772  0.6132 -0.0437 -0.2476
18352TIP3    H176547   4.669   5.424  16.700  1.0691 -0.0249 -0.3584
18352TIP3    H276548   4.696   5.570  16.728  0.1280  0.1093 -0.1042
18353TIP3   OH276549   1.816   3.301   1.655 -0.1180 -0.0798  0.0089
18353TIP3    H176550   1.724   3.327   1.665  0.0630 -0.2938  4.7607
18353TIP3    H276551   1.814   3.205   1.660  0.3296 -0.0498  1.4154
18354TIP3   OH276552   2.418   4.759   2.230  0.4204 -0.2874 -0.8204
18354TIP3    H176553   2.324   4.746   2.243  0.7811 -1.4053  1.1281
18354TIP3    H276554   2.425   4.817   2.154 -1.8529  0.3256 -0.6166
18355TIP3   OH276555   1.505   4.455  13.722  0.3550  0.1934  0.3003
18355TIP3    H176556   1.586   4.484  13.680 -0.3745  0.7531 -0.7513
18355TIP3    H276557   1.534   4.408  13.800  1.6605  1.7191  0.7827
18356TIP3   OH276558   1.442   1.157  12.238 -1.0098 -0.1125 -0.4157
18356TIP3    H176559   1.536   1.153  12.221 -0.5586  1.5945  1.2976
18356TIP3    H276560   1.407   1.211  12.168 -0.3610  0.9352  0.0527
18357TIP3   OH276561   0.025   2.086  14.442 -0.1256 -0.2253 -0.1331
18357TIP3    H176562   0.117   2.088  14.467 -0.0267 -0.5123 -0.4823
18357TIP3    H276563  -0.013   2.163  14.486 -0.1148 -1.1179  1.5339
18358TIP3   OH276564   2.693   5.672   1.498 -0.0415  0.6661  0.4069
18358TIP3    H176565   2.685   5.667   1.594 -2.0421  2.5432  0.4113
18358TIP3    H276566   2.656   5.757   1.475 -2.1078 -0.8013 -2.2522
18359TIP3   OH276567   4.496   5.520   1.600 -0.3424 -0.4573  0.2159
18359TIP3    H176568   4.492   5.586   1.670 -1.5872 -0.1917 -0.0758
18359TIP3    H276569   4.473   5.438   1.643 -1.1756 -0.2827  0.1323
18360TIP3   OH276570   1.167   4.216   4.477 -0.4984  0.0357  0.9582
18360TIP3    H176571   1.224   4.201   4.401 -1.4808  0.6632  0.0680
18360TIP3    H276572   1.211   4.284   4.527 -1.3082  1.8789 -0.6981
18361TIP3   OH276573   2.226   2.804  12.988 -0.3207  0.2474 -0.3235
18361TIP3    H176574   2.319   2.810  12.963 -0.8398  1.4684 -2.1654
18361TIP3    H276575   2.179   2.800  12.905 -1.8388 -3.0965  0.5576
18362TIP3   OH276576   2.692   0.923   1.849 -0.1636 -0.2621  0.2265
18362TIP3    H176577   2.786   0.914   1.832  0.1582 -1.4957  2.2764
18362TIP3    H276578   2.688   0.971   1.932 -1.2640 -1.4776  0.9200
18363TIP3   OH276579   4.933   4.586  14.846  0.4078 -0.0196 -0.4363
18363TIP3    H176580   4.905   4.511  14.899  1.0121  0.4659  0.5937
18363TIP3    H276581   5.015   4.557  14.805 -0.0036 -0.3553 -1.0416
18364TIP3   OH276582   2.282   3.858   3.620 -0.2827  0.1662  0.2173
18364TIP3    H176583   2.313   3.783   3.569  1.2948 -1.3591  3.1788
18364TIP3    H276584   2.211   3.824   3.673  1.2433  0.3160  2.4909
18365TIP3   OH276585   6.124   1.904   0.176  0.2697  0.0331  0.3765
18365TIP3    H176586   6.115   1.960   0.099  0.3734 -1.2787 -0.6345
18365TIP3    H276587   6.044   1.919   0.227 -0.9825 -0.8366 -1.2292
18366TIP3   OH276588   1.115   2.153  16.406  0.0044  0.7840  0.0862
18366TIP3    H176589   1.061   2.103  16.468  0.2775  1.0228  0.5254
18366TIP3    H276590   1.106   2.107  16.323  0.3179 -0.0512  0.5008
18367TIP3   OH276591   4.291   0.329  16.366  0.3627  0.3838  0.2726
18367TIP3    H176592   4.338   0.248  16.347 -0.7683 -0.3146  0.3723
18367TIP3    H276593   4.210   0.322  16.316 -0.7581  0.4090  1.9823
18368TIP3   OH276594   0.797   3.041   6.335 -0.1539 -0.2134  0.1264
18368TIP3    H176595   0.876   3.040   6.391  1.0222  0.2835 -1.4499
18368TIP3    H276596   0.766   3.132   6.340  1.1670  0.3935 -1.5654
18369TIP3   OH276597   5.182   3.812   6.009  0.5796  0.4331  0.2880
18369TIP3    H176598   5.202   3.886   5.951 -1.6281  0.4201 -0.5723
18369TIP3    H276599   5.145   3.853   6.088  0.2706  0.3000  0.2131
18370TIP3   OH276600   1.079   1.405  12.131 -0.5220  0.1167 -0.0297
18370TIP3    H176601   1.034   1.351  12.066  0.4095 -1.3035  0.4619
18370TIP3    H276602   1.115   1.478  12.081  0.3568 -1.0632 -1.1748
18371TIP3   OH276603   2.843   4.233  14.068 -0.2759 -0.1961  0.4939
18371TIP3    H176604   2.881   4.301  14.013 -1.2759  0.4004  0.5323
18371TIP3    H276605   2.798   4.280  14.137 -1.2911 -0.8735  0.3143
18372TIP3   OH276606   5.265   6.454   0.637  0.2796 -0.1731 -0.2644
18372TIP3    H176607   5.234   6.491   0.554  1.0842  2.9347  0.6789
18372TIP3    H276608   5.205   6.381   0.654 -0.9376  0.1252 -2.7478
18373TIP3   OH276609   2.280   4.736  11.469 -0.4411  0.0685  0.2309
18373TIP3    H176610   2.326   4.771  11.393  0.4919 -0.1072  0.7035
18373TIP3    H276611   2.266   4.812  11.526  0.7037 -0.1414  0.8096
18374TIP3   OH276612   1.295   4.571  15.865  0.2530 -0.0466 -0.0413
18374TIP3    H176613   1.236   4.646  15.872  0.6043  0.2969 -0.6176
18374TIP3    H276614   1.342   4.586  15.783 -0.5237 -1.5138 -0.7933
18375TIP3   OH276615   4.072   4.563  12.658  0.3639  0.1959 -0.1787
18375TIP3    H176616   4.077   4.577  12.563  2.0676 -0.4106 -0.2173
18375TIP3    H276617   4.139   4.497  12.676 -1.6441 -1.6360  1.1306
18376TIP3   OH276618   6.200   3.202  16.174 -0.2760  0.3609  0.1596
18376TIP3    H176619   6.271   3.223  16.233 -0.8162  2.0707  0.2419
18376TIP3    H276620   6.124   3.249  16.209 -0.6329  1.3575 -1.8279
18377TIP3   OH276621   0.044   0.890  15.779 -0.0056  0.0847  0.4301
18377TIP3    H176622   0.006   0.803  15.778  1.6821 -0.7092  1.0713
18377TIP3    H276623  -0.023   0.946  15.818 -1.9832 -0.4335 -1.9409
18378TIP3   OH276624   5.277   6.260   0.147  0.0361  0.0630  0.2535
18378TIP3    H176625   5.355   6.294   0.191 -0.4993  1.3470  0.2610
18378TIP3    H276626   5.300   6.170   0.123  1.9418  0.7481 -0.7419
18379TIP3   OH276627   6.447   2.567  16.165 -0.2984  0.2454  0.0353
18379TIP3    H176628   6.453   2.590  16.258 -1.4955  0.6497  0.0375
18379TIP3    H276629   6.477   2.477  16.160  0.4502  0.4480  0.7071
18380TIP3   OH276630   4.442   1.713  13.445  0.0885  0.1686 -0.2489
18380TIP3    H176631   4.354   1.747  13.432 -0.0558 -0.0465  0.1380
18380TIP3    H276632   4.431   1.618  13.450  0.0842  0.2331  1.6321
18381TIP3   OH276633   3.889   4.061   0.269 -0.4409 -0.0089  0.0492
18381TIP3    H176634   3.844   4.145   0.279  0.5998  0.5895 -0.1675
18381TIP3    H276635   3.962   4.080   0.210  0.3457 -0.8551  0.7190
18382TIP3   OH276636   5.533   2.064   3.809  0.0672 -0.2286  0.0347
18382TIP3    H176637   5.489   2.061   3.724 -0.6379  0.8265  0.3566
18382TIP3    H276638   5.522   2.153   3.839  2.0979 -0.0151  0.3194
18383TIP3   OH276639   0.392   6.622   4.264  0.0343  0.0037 -0.4390
18383TIP3    H176640   0.332   6.670   4.208 -1.3905 -1.0793  0.0733
18383TIP3    H276641   0.347   6.617   4.349 -0.1689 -2.5932 -0.5960
18384TIP3   OH276642   6.353   1.882   5.738 -0.6902 -0.6374 -0.0392
18384TIP3    H176643   6.329   1.917   5.823 -0.2439 -1.1145  0.2865
18384TIP3    H276644   6.307   1.938   5.675 -1.5501 -0.6829  0.5281
18385TIP3   OH276645   3.423   1.138  10.436  0.7570 -0.4076  0.1207
18385TIP3    H176646   3.371   1.058  10.422  0.0699  0.3665 -2.3101
18385TIP3    H276647   3.473   1.120  10.515  0.3605 -3.1150 -0.1282
18386TIP3   OH276648   4.594   0.231   5.522 -0.3061 -0.3808  0.6928
18386TIP3    H176649   4.665   0.183   5.479  0.3985 -0.2239  1.6457
18386TIP3    H276650   4.530   0.164   5.544 -0.2757 -0.5821  0.1859
18387TIP3   OH276651   2.375   3.646   2.799 -0.4831 -0.2202  0.3748
18387TIP3    H176652   2.349   3.558   2.827  0.8118 -1.2036 -1.3452
18387TIP3    H276653   2.462   3.659   2.838 -0.0641 -0.2888 -0.5265
18388TIP3   OH276654   5.492   1.596  16.252 -0.1195 -0.1683 -0.2761
18388TIP3    H176655   5.536   1.527  16.303 -2.7447 -1.0565  0.9645
18388TIP3    H276656   5.515   1.677  16.297  0.5769 -0.5363  0.0583
18389TIP3   OH276657   0.469   0.585   1.260 -0.0719 -0.1321  0.0839
18389TIP3    H176658   0.447   0.592   1.167  0.7695 -0.1273 -0.1238
18389TIP3    H276659   0.432   0.664   1.300  0.4010  0.3528 -0.4225
18390TIP3   OH276660   2.826   5.627   0.044  0.3445 -0.0744  0.1464
18390TIP3    H176661   2.866   5.678  -0.026 -1.7681  0.5327 -0.6914
18390TIP3    H276662   2.745   5.674   0.066  0.1246 -1.1401  1.8598
18391TIP3   OH276663   2.481   0.738   5.241  0.5888  0.2210 -0.9959
18391TIP3    H176664   2.509   0.818   5.197 -2.3934  1.1421 -1.4311
18391TIP3    H276665   2.454   0.680   5.170 -2.4092  0.9829 -0.5973
18392TIP3   OH276666   3.026   4.151  12.998  0.2716  0.2221 -0.3327
18392TIP3    H176667   3.060   4.077  13.049 -0.3010  0.4162  0.3504
18392TIP3    H276668   3.092   4.219  13.006  0.6552 -0.0977 -0.7018
18393TIP3   OH276669   4.540   5.386  10.708 -0.0657 -0.1047  0.0725
18393TIP3    H176670   4.572   5.308  10.664  1.6998  1.0719 -0.8236
18393TIP3    H276671   4.458   5.407  10.663 -1.3266 -2.1859  1.2663
18394TIP3   OH276672   0.535   1.658  16.236  0.0156 -0.1379  0.0954
18394TIP3    H176673   0.526   1.713  16.314  1.2294  0.7396 -0.3379
18394TIP3    H276674   0.484   1.704  16.169  0.0195 -0.2009  0.0500
18395TIP3   OH276675   6.401   0.303  14.101 -0.3582  0.2414 -0.3188
18395TIP3    H176676   6.417   0.221  14.148  0.8392  0.6350 -0.0111
18395TIP3    H276677   6.445   0.290  14.017  0.5224  0.8601  0.0380
18396TIP3   OH276678   5.072   0.767  16.369  0.0998  0.1466 -0.5367
18396TIP3    H176679   5.031   0.690  16.330 -1.7778  0.3745  0.8611
18396TIP3    H276680   5.040   0.769  16.459  1.0510  1.9014 -0.1889
18397TIP3   OH276681   6.667   6.832  13.027 -0.0715 -1.0490 -0.4512
18397TIP3    H176682   6.702   6.913  13.065  0.0325 -1.5802  0.6153
18397TIP3    H276683   6.739   6.770  13.033  0.3530 -0.8554 -2.6109
18398TIP3   OH276684   1.595   1.004  15.084 -0.0005  0.2642  0.2270
18398TIP3    H176685   1.682   0.996  15.124  1.7867  1.4511 -2.9681
18398TIP3    H276686   1.576   0.917  15.049  0.6466  0.3377 -0.3339
18399TIP3   OH276687   5.809   0.648   5.770  0.2859 -0.0058 -0.3587
18399TIP3    H176688   5.904   0.660   5.770  0.1520  1.3549  0.5258
18399TIP3    H276689   5.795   0.560   5.737  1.9766 -1.0489  1.5020
18400TIP3   OH276690   4.359   2.312  12.974  0.7317 -0.1187 -0.2325
18400TIP3    H176691   4.297   2.292  13.044 -1.3233 -0.9418 -2.1335
18400TIP3    H276692   4.354   2.407  12.964 -0.2437 -0.1653 -0.3171
18401TIP3   OH276693   6.481   3.718   2.123 -0.0272 -0.2155 -0.3632
18401TIP3    H176694   6.393   3.684   2.110  0.1806 -0.2039 -2.0416
18401TIP3    H276695   6.520   3.717   2.035  1.5128  0.1273  0.2860
18402TIP3   OH276696   2.281   2.519   6.843  0.0834  0.3885  0.0871
18402TIP3    H176697   2.324   2.564   6.916  0.7293 -0.4940  0.2533
18402TIP3    H276698   2.338   2.445   6.822 -1.4276 -0.9416  0.4591
18403TIP3   OH276699   0.653   2.479  10.747  0.0397 -0.3400  0.2286
18403TIP3    H176700   0.691   2.392  10.761 -1.9779 -1.1813  0.7935
18403TIP3    H276701   0.623   2.477  10.656  0.7670  0.1196 -0.0358
18404TIP3   OH276702   3.674   5.067   3.635  0.1672 -0.3584 -0.0335
18404TIP3    H176703   3.685   5.162   3.633 -1.8394 -0.0446  1.0554
18404TIP3    H276704   3.722   5.040   3.714 -1.5908  0.1743  1.2759
18405TIP3   OH276705   4.616   0.819   4.267  0.8480 -0.8386 -0.2517
18405TIP3    H176706   4.578   0.853   4.186  1.1868 -1.4036 -0.6620
18405TIP3    H276707   4.705   0.853   4.268  0.4022  0.3834  0.6477
18406TIP3   OH276708   5.758   2.621  15.737  0.0696 -0.3926 -0.0983
18406TIP3    H176709   5.771   2.571  15.657  2.1444 -1.8453  1.0375
18406TIP3    H276710   5.780   2.711  15.714 -0.7793 -0.5079 -1.4643
18407TIP3   OH276711   4.390   6.363   2.764  0.1405  0.1669  0.2951
18407TIP3    H176712   4.399   6.458   2.753  0.0461  0.0635 -0.7656
18407TIP3    H276713   4.310   6.341   2.716 -1.1553 -0.1460  2.4734
18408TIP3   OH276714   5.264   3.614   3.170  0.1463  0.2138  0.5240
18408TIP3    H176715   5.254   3.571   3.254  3.2365 -0.4256  0.6861
18408TIP3    H276716   5.217   3.697   3.179 -1.3681 -0.7662  2.0842
18409TIP3   OH276717   4.377   3.542   3.412 -0.0336 -0.5724 -0.3156
18409TIP3    H176718   4.302   3.601   3.414  0.3129 -0.0958 -1.0953
18409TIP3    H276719   4.454   3.599   3.408  0.2809 -1.0560 -1.8479
18410TIP3   OH276720   5.455   2.213   6.513  0.5373 -0.2282 -0.0104
18410TIP3    H176721   5.457   2.288   6.573 -0.2629 -0.8562  0.8282
18410TIP3    H276722   5.383   2.233   6.453 -0.1444 -0.6397  0.6554
18411TIP3   OH276723   1.739   2.447  12.259 -0.0804  0.2720 -0.0522
18411TIP3    H176724   1.829   2.419  12.278 -0.4409 -1.5021 -0.7436
18411TIP3    H276725   1.688   2.416  12.334 -0.1701  1.0054  0.1939
18412TIP3   OH276726   2.517   3.547   4.286 -0.8686  0.3460 -0.1443
18412TIP3    H176727   2.549   3.588   4.206 -2.2003 -0.6010 -1.2183
18412TIP3    H276728   2.424   3.567   4.288 -0.9728 -0.1588  0.8435
18413TIP3   OH276729   4.184   2.607   5.021  0.0313 -0.1157 -0.1958
18413TIP3    H176730   4.143   2.583   4.938 -2.9911 -0.5246  1.2444
18413TIP3    H276731   4.187   2.703   5.020 -0.9875 -0.0688 -0.4080
18414TIP3   OH276732   4.199   2.963  13.468  0.1027 -0.6050 -0.8645
18414TIP3    H176733   4.272   3.018  13.438 -0.5713  2.5991  2.6025
18414TIP3    H276734   4.125   2.992  13.415  0.2863  0.0145 -0.7995
18415TIP3   OH276735   5.874   4.712  16.651 -0.0936 -0.1573  0.5262
18415TIP3    H176736   5.861   4.642  16.587  0.1424  0.8848 -0.7125
18415TIP3    H276737   5.924   4.778  16.603  0.2973  0.5540  1.8820
18416TIP3   OH276738   1.382   5.466   0.212  0.9314 -0.2669 -0.0225
18416TIP3    H176739   1.410   5.500   0.297  1.3988 -0.9186  0.0943
18416TIP3    H276740   1.348   5.542   0.165 -1.4714 -0.2484  1.5780
18417TIP3   OH276741   1.176   0.273  12.017 -0.4893 -0.0319  0.2560
18417TIP3    H176742   1.208   0.357  11.987  1.7051 -1.5719 -2.1440
18417TIP3    H276743   1.108   0.249  11.954 -0.1549 -0.6204  0.1106
18418TIP3   OH276744   0.334   0.308   1.191 -0.2072  0.4482  0.1783
18418TIP3    H176745   0.352   0.355   1.273  2.4481  1.2157 -0.7488
18418TIP3    H276746   0.245   0.335   1.167 -1.1156  0.0941  2.8100
18419TIP3   OH276747   4.022   0.323  15.542  0.0145 -0.4354  0.1443
18419TIP3    H176748   4.105   0.294  15.581 -0.0507  0.8450  1.3305
18419TIP3    H276749   3.968   0.244  15.539 -0.2652 -0.5023  3.5083
18420TIP3   OH276750   0.162   2.940   4.457 -0.0684 -0.0307  0.1695
18420TIP3    H176751   0.087   2.974   4.409 -0.5106 -0.7706  0.3184
18420TIP3    H276752   0.188   3.011   4.515 -0.5776  0.2754  0.0289
18421TIP3   OH276753   3.607   6.058   5.625  0.1620  0.1639 -0.2464
18421TIP3    H176754   3.541   5.999   5.661  0.1531  1.0237  1.2053
18421TIP3    H276755   3.562   6.142   5.615  0.9618  0.6978  0.5295
18422TIP3   OH276756   1.996   0.226   1.269 -0.0446 -0.3638 -0.0670
18422TIP3    H176757   1.958   0.296   1.215  0.0819 -0.3175 -0.0950
18422TIP3    H276758   2.080   0.206   1.228  0.0682 -0.3034  0.1333
18423TIP3   OH276759   3.826   4.773   2.023 -0.3130 -0.1860 -0.0705
18423TIP3    H176760   3.902   4.724   2.055 -0.9743 -1.8403 -0.9020
18423TIP3    H276761   3.786   4.810   2.102 -0.2056 -1.6499  0.7103
18424TIP3   OH276762   0.659   4.563   1.665 -0.7694  0.3886 -0.2848
18424TIP3    H176763   0.569   4.555   1.697 -0.8881 -1.0983 -0.9159
18424TIP3    H276764   0.652   4.613   1.584 -0.8054  1.6445  0.4531
18425TIP3   OH276765   3.148   3.053   1.550 -0.7369  0.1511  0.3851
18425TIP3    H176766   3.153   2.968   1.595  1.3131  0.6194  1.1775
18425TIP3    H276767   3.075   3.098   1.592  0.7073  0.3209  2.9366
18426TIP3   OH276768   2.046   2.694   0.724 -0.4144  0.2751  0.3110
18426TIP3    H176769   2.075   2.606   0.748  1.9604  0.3855 -1.7559
18426TIP3    H276770   2.106   2.752   0.770 -2.5742  0.9958  2.4718
18427TIP3   OH276771   3.737   4.920  11.389  0.1303  0.0928 -0.7262
18427TIP3    H176772   3.745   4.923  11.293  1.1872 -0.1542 -0.6635
18427TIP3    H276773   3.808   4.863  11.417  1.3035  1.9591  0.3548
18428TIP3   OH276774   3.274   6.494   4.133  0.0273 -0.2976  0.0966
18428TIP3    H176775   3.320   6.540   4.063 -0.6114  0.1739 -0.0269
18428TIP3    H276776   3.337   6.430   4.166  0.9219  0.6233  0.2341
18429TIP3   OH276777   2.585   2.627   1.796 -0.1263  1.0572  0.5482
18429TIP3    H176778   2.566   2.627   1.702  0.6777  1.2434  0.3747
18429TIP3    H276779   2.574   2.718   1.823 -1.1627  0.8693  0.8226
18430TIP3   OH276780   0.841   2.761   2.267 -0.2869  0.2614 -0.3990
18430TIP3    H176781   0.779   2.702   2.223  1.0115 -1.3148 -0.2301
18430TIP3    H276782   0.807   2.767   2.357  0.4348 -1.6725  0.0652
18431TIP3   OH276783   0.926   1.910   5.428  0.4185 -0.3011 -0.8182
18431TIP3    H176784   0.903   1.852   5.501 -1.0947 -0.3584 -1.3079
18431TIP3    H276785   0.936   1.850   5.353  0.2905 -0.0807 -1.0124
18432TIP3   OH276786   3.007   1.183   2.783 -0.3606 -0.1650 -0.2874
18432TIP3    H176787   3.039   1.224   2.863 -0.6639 -2.1471  0.9214
18432TIP3    H276788   2.913   1.204   2.781 -0.2920  0.1436 -0.3020
18433TIP3   OH276789   1.592   4.204   0.581 -0.0593 -0.2045 -0.3602
18433TIP3    H176790   1.546   4.285   0.605 -0.1275  0.3436 -2.1945
18433TIP3    H276791   1.529   4.134   0.599 -0.8735  0.3635 -0.9558
18434TIP3   OH276792   1.353   2.304   0.409  0.2025  0.3815  0.0092
18434TIP3    H176793   1.306   2.259   0.479  0.8122  2.5590  1.9659
18434TIP3    H276794   1.389   2.234   0.355  0.3537 -1.4490  2.3168
18435TIP3   OH276795   3.434   5.125  13.952 -0.4236 -0.5451  0.1019
18435TIP3    H176796   3.369   5.070  13.907  0.2790 -0.6712 -0.7849
18435TIP3    H276797   3.383   5.175  14.016 -1.4486 -0.4078 -0.7956
18436TIP3   OH276798   5.828   3.257  11.205  0.8901  0.7852 -0.3834
18436TIP3    H176799   5.777   3.179  11.225  2.1039  0.0159 -0.1803
18436TIP3    H276800   5.786   3.294  11.127  1.2913 -1.0157 -1.5167
18437TIP3   OH276801   3.688   1.127   5.709  0.3267 -0.2689 -0.3502
18437TIP3    H176802   3.647   1.134   5.795  2.7098  2.3952  0.7168
18437TIP3    H276803   3.636   1.184   5.652  0.5021  0.3405  0.0996
18438TIP3   OH276804   6.688   4.501  14.737  0.7613 -0.4603 -0.0240
18438TIP3    H176805   6.678   4.516  14.831  0.7802 -0.6038  0.0016
18438TIP3    H276806   6.600   4.479  14.706  0.4388  1.1658 -0.3422
18439TIP3   OH276807   0.099   2.218   0.730  0.0672 -0.0654  0.1443
18439TIP3    H176808   0.173   2.217   0.791  0.5719  0.2104 -0.4479
18439TIP3    H276809   0.134   2.179   0.650 -0.1433  0.9340 -0.4559
18440TIP3   OH276810   5.303   2.272   2.746  0.0172 -0.2251 -0.0625
18440TIP3    H176811   5.233   2.207   2.743  1.5914 -2.0501  0.4457
18440TIP3    H276812   5.356   2.247   2.822  0.4040  2.0045  0.4759
18441TIP3   OH276813   2.192   1.034   5.716  0.6059  0.1125  0.2385
18441TIP3    H176814   2.111   1.075   5.746 -0.0285 -0.0574 -1.1977
18441TIP3    H276815   2.187   0.944   5.748 -0.0515 -0.0630 -0.3350
18442TIP3   OH276816   5.144   2.625  15.231 -0.4223  0.8594 -0.6039
18442TIP3    H176817   5.203   2.601  15.159 -0.7488 -0.9179 -0.3317
18442TIP3    H276818   5.201   2.633  15.307 -0.0096  3.1823 -1.0771
18443TIP3   OH276819   4.048   3.258   1.312 -0.3090  0.0629 -0.0198
18443TIP3    H176820   4.086   3.338   1.346  0.2366  0.4813 -1.5477
18443TIP3    H276821   4.113   3.190   1.329 -1.6991 -0.6043  3.3509
18444TIP3   OH276822   0.210   5.308  11.543 -0.5101 -0.1277 -0.0278
18444TIP3    H176823   0.238   5.220  11.564 -0.2017 -0.3076 -1.1190
18444TIP3    H276824   0.258   5.364  11.604 -0.5565 -0.6965  0.5363
18445TIP3   OH276825   5.355   3.465   0.951  0.1145  0.0109 -0.1507
18445TIP3    H176826   5.425   3.523   0.982  0.1265  1.0106 -1.9023
18445TIP3    H276827   5.275   3.517   0.962 -0.1553 -0.4614  0.1898
18446TIP3   OH276828   1.825   3.144   2.812  0.4222 -0.4044  0.1565
18446TIP3    H176829   1.885   3.193   2.868  0.0571  0.3601 -0.1165
18446TIP3    H276830   1.827   3.190   2.729  0.2994 -1.0309 -0.2002
18447TIP3   OH276831   1.148   6.727   1.194  0.1793  0.4508 -0.1511
18447TIP3    H176832   1.239   6.725   1.165  0.5712  0.3914  1.0262
18447TIP3    H276833   1.141   6.807   1.246 -0.3202  0.2226  0.1445
18448TIP3   OH276834   0.218   0.336  11.423 -0.2895  0.0032  0.0133
18448TIP3    H176835   0.242   0.295  11.506 -1.8829 -0.1403  0.4372
18448TIP3    H276836   0.224   0.265  11.359 -1.8480 -0.6346  0.5304
18449TIP3   OH276837   3.303   6.280  11.153 -0.4633  0.1560 -0.2845
18449TIP3    H176838   3.253   6.356  11.122 -1.2824 -0.3151 -0.1397
18449TIP3    H276839   3.271   6.208  11.099  0.3869 -0.0753 -0.4910
18450TIP3   OH276840   5.464   5.705   0.230  0.5983  0.2437 -1.1723
18450TIP3    H176841   5.523   5.647   0.279 -0.7149 -0.0299  0.1652
18450TIP3    H276842   5.483   5.687   0.138  1.3001 -1.1978 -0.7785
18451TIP3   OH276843   4.649   1.050   0.552 -0.3511  0.3263  0.3286
18451TIP3    H176844   4.622   1.006   0.471  0.4031  1.2185 -0.4422
18451TIP3    H276845   4.735   1.012   0.571 -0.9087 -0.5355  1.2448
18452TIP3   OH276846   5.498   4.997  15.383 -0.2293 -0.2824 -0.5252
18452TIP3    H176847   5.509   5.007  15.288  1.1460  2.2367 -0.1796
18452TIP3    H276848   5.444   5.072  15.409  0.7735 -0.0018  0.8750
18453TIP3   OH276849   4.263   0.876   2.494  0.4576  0.4047  0.1538
18453TIP3    H176850   4.244   0.898   2.403 -1.5368 -1.5101  0.0274
18453TIP3    H276851   4.200   0.926   2.545 -1.2587 -1.5909  0.1307
18454TIP3   OH276852   3.190   6.796   4.917  0.0571  0.0341 -0.1061
18454TIP3    H176853   3.179   6.770   4.826  2.3674 -0.4503 -0.3211
18454TIP3    H276854   3.227   6.719   4.960 -0.3485  0.4863  1.0913
18455TIP3   OH276855   0.842   2.325  10.112 -0.0440  0.5116 -0.4596
18455TIP3    H176856   0.763   2.343  10.060 -1.0217 -1.3649  0.2897
18455TIP3    H276857   0.812   2.328  10.203  1.4890  2.9650  0.0659
18456TIP3   OH276858   2.604   3.562  10.720  0.1207  0.0396  0.0998
18456TIP3    H176859   2.560   3.646  10.725 -0.6175 -0.2732 -0.7239
18456TIP3    H276860   2.533   3.498  10.722  0.2994 -0.4199 -3.1652
18457TIP3   OH276861   3.676   2.338   1.132 -0.3719  0.8567 -0.6987
18457TIP3    H176862   3.658   2.381   1.049 -0.4949  0.6911 -0.7573
18457TIP3    H276863   3.592   2.298   1.157 -0.0525 -0.0336 -1.0355
18458TIP3   OH276864   3.937   4.919   0.020  0.3400 -0.4466  0.3358
18458TIP3    H176865   3.877   4.908   0.093 -1.4005  0.4642 -0.8936
18458TIP3    H276866   3.967   4.831  -0.000 -1.3714 -1.0599  0.3591
18459TIP3   OH276867   0.962   3.726  11.345 -0.3462 -0.3121 -0.4977
18459TIP3    H176868   0.963   3.669  11.268 -0.6323 -0.2984 -0.5130
18459TIP3    H276869   0.906   3.680  11.407 -0.9266  0.1584 -0.6684
18460TIP3   OH276870   5.420   4.586   0.180  0.5465 -0.0014  0.2348
18460TIP3    H176871   5.364   4.627   0.246 -0.0073  0.9585 -0.7974
18460TIP3    H276872   5.367   4.515   0.144 -0.0398  0.8859 -0.7185
18461TIP3   OH276873   1.933   0.195   3.618  0.2717 -0.8354  0.2062
18461TIP3    H176874   1.945   0.258   3.547  0.3153  0.3459  1.2286
18461TIP3    H276875   1.898   0.117   3.575  2.5841 -1.0478 -1.4997
18462TIP3   OH276876   1.283   5.715   0.533  0.1346  0.0727  0.2729
18462TIP3    H176877   1.346   5.761   0.589  0.8578 -1.5108  0.8354
18462TIP3    H276878   1.198   5.736   0.570  0.3894  1.4382  0.1269
18463TIP3   OH276879   3.409   5.693   3.671 -0.1668 -0.5018 -0.2512
18463TIP3    H176880   3.363   5.765   3.630 -2.4341 -1.5887  0.2103
18463TIP3    H276881   3.366   5.682   3.756  0.6159 -1.9119 -0.0009
18464TIP3   OH276882   4.496   0.230   3.258  0.1889 -0.2955  0.2589
18464TIP3    H176883   4.481   0.137   3.271  1.1400 -0.8502 -2.0611
18464TIP3    H276884   4.435   0.255   3.189  0.4298  0.6493  0.3695
18465TIP3   OH276885   0.511   1.090   1.063 -1.0136  0.2457  0.1055
18465TIP3    H176886   0.551   1.026   1.005 -2.1238  0.6982 -1.2231
18465TIP3    H276887   0.509   1.171   1.012 -2.0346  0.6456  0.7488
18466TIP3   OH276888   0.506   2.845  11.235  0.6310  0.2299  0.5815
18466TIP3    H176889   0.518   2.831  11.141 -0.5523 -0.3395  0.4955
18466TIP3    H276890   0.468   2.933  11.241  0.9010  0.3485  0.5365
18467TIP3   OH276891   0.609   6.504   0.277  0.2041  0.3242 -0.6876
18467TIP3    H176892   0.552   6.520   0.353  2.7015 -1.1347  1.6814
18467TIP3    H276893   0.696   6.531   0.306  1.6630 -2.3348 -2.1509
18468TIP3   OH276894   2.452   1.973   4.623  0.2434  0.1473  0.1947
18468TIP3    H176895   2.540   1.941   4.604 -0.2365 -0.9171 -0.2993
18468TIP3    H276896   2.394   1.902   4.595 -0.7678  0.7928  0.6067
18469TIP3   OH276897   4.050   1.585  16.516 -0.6125  0.1754 -0.0030
18469TIP3    H176898   4.102   1.607  16.594 -0.6397 -1.5997  0.5683
18469TIP3    H276899   4.054   1.663  16.461 -0.1508  1.2872  1.5463
18470TIP3   OH276900   4.100   5.959   1.646  0.2422  0.1197  0.9420
18470TIP3    H176901   4.120   6.033   1.589 -2.0748 -0.7557 -1.2246
18470TIP3    H276902   4.023   5.987   1.695 -0.8017 -0.8574 -0.0711
18471TIP3   OH276903   6.216   6.491  13.356  0.3635 -0.0855  0.4579
18471TIP3    H176904   6.182   6.530  13.275 -0.7699  1.8958  1.8042
18471TIP3    H276905   6.286   6.550  13.383  0.0191 -0.1271  1.4631
18472TIP3   OH276906   5.319   6.047   4.366  0.2888 -0.3032 -0.3661
18472TIP3    H176907   5.302   6.084   4.279  1.8760 -0.2156 -0.6643
18472TIP3    H276908   5.411   6.068   4.384  1.0224 -3.2886 -0.1448
18473TIP3   OH276909   3.139   2.523  15.627  0.7598  0.2052 -0.0260
18473TIP3    H176910   3.075   2.487  15.566  0.1557 -1.5677  1.5846
18473TIP3    H276911   3.220   2.476  15.608  0.3672 -0.9409  1.0272
18474TIP3   OH276912   6.379   6.677   3.048 -0.4849 -0.3129  0.4579
18474TIP3    H176913   6.418   6.755   3.088  0.3301 -0.6551  0.3449
18474TIP3    H276914   6.293   6.707   3.016 -1.4953 -0.1949  3.0703
18475TIP3   OH276915   0.627   0.597  12.151 -0.2358  0.1584  0.5335
18475TIP3    H176916   0.687   0.535  12.192  1.4124  1.9617  1.0314
18475TIP3    H276917   0.577   0.545  12.089  0.8871 -1.6882  1.1018
18476TIP3   OH276918   2.090   6.232   4.959  0.1623 -0.2317 -0.2481
18476TIP3    H176919   2.114   6.203   5.047  0.5135  0.5495 -0.0749
18476TIP3    H276920   2.062   6.323   4.971  0.7892  0.0741 -1.0260
18477TIP3   OH276921   2.730   4.355   2.793  0.1427  0.0932  0.1081
18477TIP3    H176922   2.803   4.316   2.744  0.3161  0.2549  0.2361
18477TIP3    H276923   2.738   4.449   2.777  0.4200  0.1840  0.7373
18478TIP3   OH276924   0.248   3.290   1.184  0.2944 -0.0112 -0.0737
18478TIP3    H176925   0.233   3.283   1.278  0.0948 -0.9226 -0.1657
18478TIP3    H276926   0.160   3.290   1.145  0.3831  0.0934 -0.2767
18479TIP3   OH276927   1.876   6.359   3.392  0.0989  0.3695 -0.2174
18479TIP3    H176928   1.969   6.384   3.395  0.2598 -0.0219 -1.3821
18479TIP3    H276929   1.877   6.267   3.368 -0.5972  0.4377 -0.5172
18480TIP3   OH276930   1.885   5.543   2.603  0.3284  0.3416 -0.8688
18480TIP3    H176931   1.859   5.473   2.663 -4.0941  2.2363 -0.2055
18480TIP3    H276932   1.916   5.613   2.660  2.4148 -0.1005 -1.3772
18481TIP3   OH276933   6.176   4.011   6.231  0.5177 -0.1341  0.5660
18481TIP3    H176934   6.157   4.030   6.323  0.3410  3.7410 -0.1093
18481TIP3    H276935   6.118   4.068   6.182  0.4092 -2.2906 -2.0515
18482TIP3   OH276936   3.552   3.734  14.034  0.6006 -0.0878 -0.3279
18482TIP3    H176937   3.533   3.771  13.947 -5.6805  0.8509  0.9775
18482TIP3    H276938   3.573   3.810  14.088 -0.0965 -0.0130 -0.1501
18483TIP3   OH276939   0.362   3.596   4.297  0.0602  0.1632 -0.5087
18483TIP3    H176940   0.403   3.652   4.363  0.6052  1.4606 -1.9136
18483TIP3    H276941   0.435   3.556   4.250 -0.2437 -3.1900  1.5185
18484TIP3   OH276942   6.463   3.219   4.682 -0.5484  0.2190  0.2392
18484TIP3    H176943   6.431   3.161   4.613 -0.3653  0.9259 -0.4552
18484TIP3    H276944   6.525   3.277   4.638  2.6326 -1.7989  1.7634
18485TIP3   OH276945   1.973   0.622   5.367 -0.4232  0.2264 -0.4821
18485TIP3    H176946   1.934   0.641   5.282  0.8915 -1.6695 -1.5819
18485TIP3    H276947   2.055   0.671   5.368 -0.9202  1.0586  0.1420
18486TIP3   OH276948   3.429   2.064  11.684 -0.0365 -0.3424  0.6170
18486TIP3    H176949   3.426   1.970  11.701 -1.3566 -0.1805  1.3931
18486TIP3    H276950   3.396   2.104  11.764  0.8039  0.8169  0.4164
18487TIP3   OH276951   2.286   0.084   5.943  0.2690  0.2221 -0.4051
18487TIP3    H176952   2.318   0.016   5.883  0.8949  0.0455  0.1195
18487TIP3    H276953   2.279   0.162   5.888 -0.3788 -0.2333 -0.9967
18488TIP3   OH276954   3.797   0.064  16.462  0.0821  0.0458 -0.5260
18488TIP3    H176955   3.781   0.027  16.375 -1.8984 -1.2836  0.3246
18488TIP3    H276956   3.831  -0.009  16.513 -0.9576  0.1687  0.3843
18489TIP3   OH276957   6.372   1.529  12.842 -0.2108 -0.4597  0.3522
18489TIP3    H176958   6.392   1.463  12.775 -1.5657 -0.0103 -0.5391
18489TIP3    H276959   6.382   1.483  12.925  1.5464 -1.0296 -0.1303
18490TIP3   OH276960   3.883   4.448  11.368 -0.1798 -0.2633 -0.2892
18490TIP3    H176961   3.964   4.434  11.418  0.6771  0.1964 -1.4837
18490TIP3    H276962   3.816   4.399  11.416  1.1054 -1.9221 -0.0912
18491TIP3   OH276963   4.935   4.864  13.812  0.4073  0.0387 -0.1225
18491TIP3    H176964   4.961   4.911  13.891 -0.3141 -0.1435  0.2317
18491TIP3    H276965   5.015   4.819  13.783  1.2258  1.8321 -0.7409
18492TIP3   OH276966   4.144   3.579   5.752 -0.4587 -0.6344  0.4418
18492TIP3    H176967   4.075   3.544   5.696 -1.8970  1.2204  0.9746
18492TIP3    H276968   4.127   3.541   5.838  2.0723 -3.9265 -0.2811
18493TIP3   OH276969   6.758   2.794   4.338 -0.2225 -0.0389 -1.0751
18493TIP3    H176970   6.829   2.749   4.383 -1.0150 -0.1546  0.0841
18493TIP3    H276971   6.681   2.777   4.391 -1.1167  0.1681 -2.2589
18494TIP3   OH276972   4.468   3.343   0.775 -0.1170  0.8010 -0.0589
18494TIP3    H176973   4.475   3.327   0.869 -0.3715 -1.1233 -0.3423
18494TIP3    H276974   4.530   3.282   0.736 -2.1534 -0.5684 -1.2974
18495TIP3   OH276975   3.003   1.928  15.384 -0.3550 -0.3821 -0.7998
18495TIP3    H176976   2.949   1.897  15.312 -1.7923  0.5562 -0.1495
18495TIP3    H276977   2.943   1.974  15.443  1.0358  0.1903  0.2456
18496TIP3   OH276978   5.149   5.839   2.110 -0.0174  0.7200  0.3083
18496TIP3    H176979   5.058   5.857   2.086 -0.2634 -0.1567  0.5374
18496TIP3    H276980   5.196   5.919   2.087 -0.6025  0.6836 -1.1248
18497TIP3   OH276981   2.352   6.709   0.682 -0.0778 -0.2260 -0.6473
18497TIP3    H176982   2.304   6.627   0.680  0.8194 -0.7949  0.3397
18497TIP3    H276983   2.414   6.699   0.754  1.0792  0.7282 -1.4715
18498TIP3   OH276984   1.553   1.780  15.858 -0.4016  0.1022  1.8371
18498TIP3    H176985   1.619   1.836  15.817  0.0302 -1.7149 -0.1266
18498TIP3    H276986   1.472   1.800  15.812 -0.4366 -0.2048  1.7580
18499TIP3   OH276987   6.508   6.251  12.715 -0.4172  0.8308  0.1403
18499TIP3    H176988   6.415   6.271  12.712 -0.3764  0.9082 -1.5719
18499TIP3    H276989   6.525   6.199  12.637  0.9479  0.6769  0.4999
18500TIP3   OH276990   0.074   1.294   4.247 -0.4767  0.3988  0.7735
18500TIP3    H176991   0.104   1.327   4.332  0.3577 -1.0297  1.0700
18500TIP3    H276992   0.116   1.351   4.183  0.8066  0.0382  1.2720
18501TIP3   OH276993   0.863   5.913  16.571  0.2658 -0.1323 -0.2671
18501TIP3    H176994   0.866   5.931  16.477 -3.3188  0.7569 -0.3442
18501TIP3    H276995   0.880   5.819  16.577  2.0356  0.0458 -1.5951
18502TIP3   OH276996   5.757   3.309   5.978 -0.3271 -0.1702  0.5601
18502TIP3    H176997   5.680   3.363   5.959  0.8928  1.5687  0.3693
18502TIP3    H276998   5.776   3.326   6.070 -1.2682 -2.1186  1.1780
18503TIP3   OH276999   4.606   5.934  11.357 -0.3170  0.2524 -0.4061
18503TIP3    H177000   4.642   5.866  11.413  0.2528 -0.1899 -1.2960
18503TIP3    H277001   4.517   5.905  11.337 -1.2029  1.2788  1.6798
18504TIP3   OH277002   5.371   3.214   3.663 -0.4677  0.2094 -0.4122
18504TIP3    H177003   5.386   3.308   3.678  0.6744  0.0519 -0.5197
18504TIP3    H277004   5.337   3.210   3.574 -1.6293  0.6132 -0.0062
18505TIP3   OH277005   5.468   5.207  15.105 -0.6816  0.2864  0.6803
18505TIP3    H177006   5.440   5.293  15.136  1.5945  1.8331 -1.2616
18505TIP3    H277007   5.396   5.177  15.050 -2.0231  0.3117  2.3144
18506TIP3   OH277008   6.773   2.064  13.308  0.4431 -0.0440  0.0985
18506TIP3    H177009   6.789   2.148  13.350 -0.4436  0.5016 -0.6260
18506TIP3    H277010   6.816   2.000  13.365  1.5007  0.9365  0.4211
18507TIP3   OH277011   2.080   4.507  16.964 -0.0525  0.2120 -0.3437
18507TIP3    H177012   2.022   4.478  16.893 -1.3796 -0.3479  0.8996
18507TIP3    H277013   2.030   4.487  17.044  1.4901  0.5999  0.7483
18508TIP3   OH277014   4.870   4.394   4.794 -0.4103  0.0191  0.3302
18508TIP3    H177015   4.847   4.302   4.786  0.7586 -0.2352 -0.2543
18508TIP3    H277016   4.811   4.438   4.732  0.1514 -0.5459 -0.6368
18509TIP3   OH277017   4.499   2.583   5.294  0.4359 -0.4165 -0.7442
18509TIP3    H177018   4.462   2.523   5.358  0.9546 -0.8494 -0.8438
18509TIP3    H277019   4.489   2.538   5.210 -0.1568  0.1072 -0.9660
18510TIP3   OH277020   3.330   6.778  13.921 -0.4223 -0.1207 -0.2100
18510TIP3    H177021   3.389   6.792  13.995 -0.1980 -0.8764 -0.2295
18510TIP3    H277022   3.388   6.746  13.851 -0.4735  1.4728 -1.0315
18511TIP3   OH277023   6.153   1.662  15.893 -0.4515  0.3929 -0.2808
18511TIP3    H177024   6.059   1.650  15.903 -0.4689  0.6457 -0.1076
18511TIP3    H277025   6.172   1.640  15.802 -0.3769 -1.5139  0.1624
18512TIP3   OH277026   6.438   5.635   1.588  0.1992  0.0780 -0.0624
18512TIP3    H177027   6.477   5.688   1.518  0.6862 -0.7280 -0.4128
18512TIP3    H277028   6.458   5.684   1.669  0.5422  0.4834 -0.3864
18513TIP3   OH277029   1.308   4.813   4.134  0.0395 -0.0438  0.3720
18513TIP3    H177030   1.247   4.813   4.060 -0.0974 -0.4144  0.4847
18513TIP3    H277031   1.393   4.792   4.095  0.3375  1.6503  0.0263
18514TIP3   OH277032   6.301   3.520   3.363  0.1528 -0.0790  0.2486
18514TIP3    H177033   6.210   3.548   3.373  0.1100  0.1031 -0.5538
18514TIP3    H277034   6.318   3.527   3.269  1.1027  0.2218  0.4316
18515TIP3   OH277035   4.058   4.592   3.915 -0.0038  0.1594 -0.2912
18515TIP3    H177036   3.999   4.667   3.927 -0.5436 -0.0607 -1.3813
18515TIP3    H277037   4.057   4.577   3.820  0.4111 -0.9730 -0.1268
18516TIP3   OH277038   3.386   1.988   0.557 -0.4594 -0.2480  0.5472
18516TIP3    H177039   3.395   1.933   0.479 -0.6916 -1.0609  1.0769
18516TIP3    H277040   3.474   1.988   0.596 -0.4413 -0.1736  0.5071
18517TIP3   OH277041   1.392   0.513  12.752 -0.0023  0.1874 -0.1090
18517TIP3    H177042   1.412   0.426  12.717  1.4549  0.2944  0.4283
18517TIP3    H277043   1.320   0.498  12.813  0.7656 -0.7899  0.5944
18518TIP3   OH277044   0.069   2.353  12.680  0.1884  0.0392  0.1367
18518TIP3    H177045  -0.000   2.313  12.628  1.1430 -0.1692 -1.0028
18518TIP3    H277046   0.112   2.280  12.725  0.1216  0.0944  0.2924
18519TIP3   OH277047   3.313   5.897   4.288 -0.4591  0.4283 -0.4224
18519TIP3    H177048   3.390   5.943   4.321  1.0833 -0.3691 -2.6498
18519TIP3    H277049   3.292   5.941   4.205 -0.3727 -1.3779 -1.4474
18520TIP3   OH277050   5.219   5.703  11.837 -0.5447  0.1682  0.1286
18520TIP3    H177051   5.215   5.658  11.754  0.1620 -1.7283  1.0715
18520TIP3    H277052   5.129   5.731  11.854 -0.7791  0.1348 -0.9972
18521TIP3   OH277053   3.985   5.163   2.643 -0.4956  0.1332  0.3713
18521TIP3    H177054   3.968   5.224   2.715  1.2170 -1.0585  1.8705
18521TIP3    H277055   4.051   5.208   2.590  2.4682 -1.1203  2.6877
18522TIP3   OH277056   4.746   0.310  13.188 -0.1384 -0.0253 -0.5327
18522TIP3    H177057   4.685   0.363  13.240  0.2184 -0.8081  0.7360
18522TIP3    H277058   4.833   0.340  13.214  0.0438  0.0505 -1.2154
18523TIP3   OH277059   6.725   4.425  16.877 -0.3636 -0.4385 -0.0822
18523TIP3    H177060   6.651   4.485  16.877  1.1491  1.5635  1.4904
18523TIP3    H277061   6.800   4.479  16.854  0.8433 -2.1161 -0.2965
18524TIP3   OH277062   1.667   1.366   0.803 -0.0482  0.1653  0.0610
18524TIP3    H177063   1.749   1.411   0.782 -0.9990  1.9061 -0.0855
18524TIP3    H277064   1.686   1.317   0.883  1.3298 -0.0852 -0.3885
18525TIP3   OH277065   5.077   6.028  17.023 -0.2469 -0.0045 -0.2239
18525TIP3    H177066   5.095   6.057  16.933  0.0992  0.7000  0.0682
18525TIP3    H277067   5.157   6.047  17.071 -0.7935  0.6204  0.4702
18526TIP3   OH277068   6.848   3.500  13.082 -0.0034  0.4155  0.5449
18526TIP3    H177069   6.789   3.431  13.051  1.9438 -0.4011 -1.6094
18526TIP3    H277070   6.899   3.460  13.152 -0.1918  0.3135  0.6253
18527TIP3   OH277071   3.455   1.378  15.513 -0.7289  0.5305 -0.2721
18527TIP3    H177072   3.405   1.299  15.493  0.2663 -0.5687  1.3443
18527TIP3    H277073   3.527   1.347  15.568  0.0485  2.4801 -0.1370
18528TIP3   OH277074   4.779   3.379   0.888  0.3661 -0.2530 -0.2583
18528TIP3    H177075   4.861   3.355   0.845  0.1562  0.8086 -1.3161
18528TIP3    H277076   4.805   3.438   0.958  0.7813 -2.5805  1.6559
18529TIP3   OH277077   3.756   0.272  13.245  0.5918  0.8159 -0.1685
18529TIP3    H177078   3.848   0.268  13.219  0.0334  0.1512 -2.2002
18529TIP3    H277079   3.739   0.187  13.286  0.0806 -0.4853 -2.8807
18530TIP3   OH277080   4.760   4.534  13.718  1.1458  0.6708  0.2651
18530TIP3    H177081   4.822   4.518  13.647 -0.4032  0.3521 -1.0911
18530TIP3    H277082   4.777   4.625  13.745  1.6634  0.8492 -0.6325
18531TIP3   OH277083   3.183   5.262  12.616 -0.2253 -0.1874 -0.0653
18531TIP3    H177084   3.228   5.312  12.548 -0.9333  0.1181 -0.3093
18531TIP3    H277085   3.093   5.253  12.586 -0.8494  0.9356  1.3303
18532TIP3   OH277086   4.059   5.791   4.702 -0.5604 -0.7370  0.5018
18532TIP3    H177087   3.973   5.748   4.705 -0.4263 -0.9576  1.9010
18532TIP3    H277088   4.052   5.863   4.764  0.5625 -1.3579  1.3851
18533TIP3   OH277089   1.444   5.319  11.575  0.4636 -0.4733 -0.1235
18533TIP3    H177090   1.389   5.331  11.498 -1.8846  0.5730  1.5698
18533TIP3    H277091   1.393   5.357  11.647  2.9240 -0.5352  1.8117
18534TIP3   OH277092   1.135   4.109  16.561  0.1302  0.0691 -0.0003
18534TIP3    H177093   1.230   4.118  16.567  0.0179  0.6884  1.1559
18534TIP3    H277094   1.115   4.029  16.610 -0.2433  1.9340  3.1360
18535TIP3   OH277095   5.451   5.397  16.807  0.0659 -0.0096  0.1191
18535TIP3    H177096   5.455   5.490  16.782  0.9310 -0.4867 -1.6077
18535TIP3    H277097   5.542   5.367  16.804 -0.4341 -1.5157 -1.8607
18536TIP3   OH277098   5.749   5.526   2.869  0.6233 -0.4693 -0.2361
18536TIP3    H177099   5.691   5.473   2.923 -1.1626  1.1472 -0.4405
18536TIP3    H277100   5.775   5.598   2.927  0.2406  0.2424 -0.9326
18537TIP3   OH277101   1.031   3.610  14.261 -0.1885  0.2116  0.3820
18537TIP3    H177102   1.023   3.608  14.165  3.4241 -1.5942 -0.0707
18537TIP3    H277103   0.948   3.573  14.293 -1.6325  1.1811 -1.9739
18538TIP3   OH277104   1.306   1.594  12.818 -0.3234  0.2575 -0.1865
18538TIP3    H177105   1.246   1.592  12.744 -1.1085 -1.0226  0.4543
18538TIP3    H277106   1.250   1.580  12.895  0.5325  1.0737  0.6198
18539TIP3   OH277107   4.655   0.928   2.357 -0.8546  0.8443  0.1293
18539TIP3    H177108   4.600   0.889   2.289  0.8328 -1.2917 -0.1066
18539TIP3    H277109   4.713   0.987   2.310  1.4632 -1.8877 -0.6898
18540TIP3   OH277110   0.778   2.213  13.382  0.4049 -0.0859 -0.2373
18540TIP3    H177111   0.840   2.267  13.333  1.8971  0.9211  2.5400
18540TIP3    H277112   0.741   2.272  13.447 -1.7589 -1.2824 -0.2726
18541TIP3   OH277113   6.748   0.339  16.718  0.3194 -0.1942 -0.5219
18541TIP3    H177114   6.831   0.368  16.681  0.7899  0.4149  0.9398
18541TIP3    H277115   6.699   0.420  16.732  0.1598 -0.4007  0.1640
18542TIP3   OH277116   5.355   5.539  15.788  0.2657 -0.3403  0.3774
18542TIP3    H177117   5.295   5.503  15.853  0.8617 -0.0986  1.0741
18542TIP3    H277118   5.306   5.610  15.747  0.4486  0.6131  1.7346
18543TIP3   OH277119   6.555   6.270  16.875  0.1887 -0.3579  0.3924
18543TIP3    H177120   6.636   6.301  16.914  0.0976  0.0111  0.2859
18543TIP3    H277121   6.497   6.346  16.874 -0.3195 -0.7224  0.8761
18544TIP3   OH277122   4.940   5.218  10.282 -0.3392  0.0215  0.2338
18544TIP3    H177123   4.998   5.186  10.351  1.5094  0.5563 -1.0014
18544TIP3    H277124   4.877   5.147  10.270 -0.0157 -0.5530  1.6830
18545TIP3   OH277125   0.759   5.550   2.205 -0.0108  0.4135  0.6038
18545TIP3    H177126   0.768   5.509   2.119 -1.3768  0.5966  0.3432
18545TIP3    H277127   0.817   5.499   2.262  1.3358  0.6387 -0.5181
18546TIP3   OH277128   6.533   2.777  10.904  0.0338 -0.4712  0.4555
18546TIP3    H177129   6.532   2.687  10.872  0.7243 -0.2629 -0.1759
18546TIP3    H277130   6.568   2.770  10.993  2.0175 -0.6431 -0.2921
18547TIP3   OH277131   1.446   0.720   3.805  0.5651  0.4040  0.1478
18547TIP3    H177132   1.409   0.727   3.717 -1.9522 -0.0529  1.0904
18547TIP3    H277133   1.528   0.673   3.793 -0.2820 -0.6735 -1.8230
18548TIP3   OH277134   6.529   2.866   0.573  0.3728  0.6306  0.5675
18548TIP3    H177135   6.598   2.850   0.637 -0.2290 -0.1338  1.0451
18548TIP3    H277136   6.532   2.790   0.515 -0.3289  0.3814  0.8441
18549TIP3   OH277137   4.455   2.447   4.825 -0.2893 -0.1085 -0.0014
18549TIP3    H177138   4.521   2.499   4.870 -1.2802  0.7232  0.5484
18549TIP3    H277139   4.373   2.468   4.870 -1.0177 -0.6943 -0.9957
18550TIP3   OH277140   4.952   6.518   5.710  0.2739  0.2028  0.0831
18550TIP3    H177141   5.009   6.462   5.658 -0.3766 -0.3411 -0.0661
18550TIP3    H277142   5.008   6.590   5.739  1.5382 -1.3520  1.6714
18551TIP3   OH277143   3.545   0.683   2.438  0.0969  0.5609  0.6612
18551TIP3    H177144   3.521   0.720   2.353  1.2897 -1.9460 -0.8820
18551TIP3    H277145   3.635   0.712   2.452 -0.6213  2.3663  1.9897
18552TIP3   OH277146   1.982   1.135  12.064 -0.0909  0.4545  0.3493
18552TIP3    H177147   1.892   1.116  12.090 -0.0040  0.1000  0.4027
18552TIP3    H277148   2.031   1.137  12.146  0.3820 -1.7390  0.1803
18553TIP3   OH277149   5.267   4.870   4.482  0.5933 -0.5532  0.1258
18553TIP3    H177150   5.223   4.786   4.488  1.7620 -1.3711 -1.8398
18553TIP3    H277151   5.352   4.857   4.525 -0.0305  0.2781  1.6844
18554TIP3   OH277152   1.544   3.690  13.489 -0.1861 -0.3885  0.0393
18554TIP3    H177153   1.491   3.624  13.533 -0.1638 -2.4456 -2.7181
18554TIP3    H277154   1.624   3.696  13.541 -1.1190 -0.8188  1.5810
18555TIP3   OH277155   4.475   2.331  13.399  0.0761 -0.2540  0.0050
18555TIP3    H177156   4.518   2.416  13.388 -1.5967  0.7140  0.4543
18555TIP3    H277157   4.542   2.267  13.380  1.3437  1.1817 -0.5535
18556TIP3   OH277158   3.233   4.105  11.165 -0.2241  0.0336  0.6258
18556TIP3    H177159   3.201   4.086  11.076 -0.7804 -1.1784  1.0636
18556TIP3    H277160   3.312   4.052  11.174 -1.2969 -1.4740  1.5523
18557TIP3   OH277161   2.309   5.218  15.845 -0.2590 -0.0412 -0.0161
18557TIP3    H177162   2.221   5.256  15.844 -1.0953 -1.6790  2.4475
18557TIP3    H277163   2.359   5.277  15.902  0.1336  0.5610 -0.9474
18558TIP3   OH277164   6.234   6.305  11.803 -0.0754  0.0544 -0.0230
18558TIP3    H177165   6.321   6.275  11.776  0.6088  0.0634  2.0094
18558TIP3    H277166   6.244   6.400  11.814 -0.2740  0.0315  0.3802
18559TIP3   OH277167   1.485   1.407  15.606  0.0724 -0.2807  0.1294
18559TIP3    H177168   1.448   1.391  15.519  0.9162 -1.6264 -0.0135
18559TIP3    H277169   1.414   1.386  15.667 -0.0834 -0.7065 -0.1959
18560TIP3   OH277170   2.476   3.996  15.778 -0.4322 -0.1844 -0.1818
18560TIP3    H177171   2.488   3.936  15.852  0.1611 -0.8634 -0.8248
18560TIP3    H277172   2.420   3.948  15.717  0.5609 -0.3547 -0.9860
18561TIP3   OH277173   0.595   1.181   5.301 -0.1025 -0.2623  0.1716
18561TIP3    H177174   0.516   1.233   5.285  1.1169  1.3566 -0.8330
18561TIP3    H277175   0.654   1.240   5.347  1.5443 -0.4944 -1.5097
18562TIP3   OH277176   1.565   4.361   3.869 -0.2264  0.0303 -0.6767
18562TIP3    H177177   1.526   4.281   3.905 -0.1209 -0.5557 -1.8122
18562TIP3    H277178   1.490   4.415   3.843 -0.3016  0.4287  0.3228
18563TIP3   OH277179   0.529   0.078   5.393  0.3199  0.0612  0.0954
18563TIP3    H177180   0.449   0.092   5.342 -0.8993 -0.2107  1.8417
18563TIP3    H277181   0.589   0.146   5.364 -0.9606  0.9727 -0.4719
18564TIP3   OH277182   2.065   5.394  15.876  0.5483  0.3639  0.1950
18564TIP3    H177183   2.008   5.380  15.801  0.8024  0.6199 -0.0463
18564TIP3    H277184   2.012   5.446  15.937 -0.0615 -0.7795  0.6893
18565TIP3   OH277185   6.085   4.232  16.239 -0.1288  0.2234 -0.2376
18565TIP3    H177186   6.012   4.171  16.251  1.6245 -1.8327  0.7071
18565TIP3    H277187   6.151   4.181  16.191  2.0029  0.7805  1.8778
18566TIP3   OH277188   5.418   4.790  16.476 -0.1090 -0.2375  0.4566
18566TIP3    H177189   5.386   4.700  16.479 -1.7650  0.2918 -0.0200
18566TIP3    H277190   5.349   4.841  16.520 -0.2327  1.0523 -1.1429
18567TIP3   OH277191   5.001   5.426  12.356  0.5298 -0.6750  0.1242
18567TIP3    H177192   4.996   5.371  12.278 -0.2681 -0.5762  0.1019
18567TIP3    H277193   4.943   5.500  12.338  2.7781  1.0308 -0.5006
18568TIP3   OH277194   6.010   0.506  13.777 -0.3619 -0.8403  0.1484
18568TIP3    H177195   6.081   0.444  13.793 -0.7099 -1.2571  0.0747
18568TIP3    H277196   5.950   0.495  13.851 -0.7657 -1.0716 -0.2111
18569TIP3   OH277197   6.749   4.294   4.413 -0.2900 -0.0926  0.0359
18569TIP3    H177198   6.657   4.271   4.401 -0.6462  0.7766  0.9367
18569TIP3    H277199   6.769   4.351   4.339 -0.8155  0.6312  0.4359
18570TIP3   OH277200   0.295   3.539   5.088  0.0682 -0.9568 -0.0404
18570TIP3    H177201   0.314   3.457   5.042  2.3479 -1.8209  2.2234
18570TIP3    H277202   0.381   3.574   5.110 -0.8768  1.7062 -0.2493
18571TIP3   OH277203   4.146   2.210   1.657 -0.0179 -0.3013 -0.2713
18571TIP3    H177204   4.216   2.207   1.722 -0.8909  0.4671  0.7289
18571TIP3    H277205   4.181   2.265   1.586  0.8846 -1.0391 -0.4118
18572TIP3   OH277206   3.222   2.127  13.660 -0.6542  0.7116  0.9359
18572TIP3    H177207   3.142   2.111  13.611  0.3603 -0.2560 -0.5005
18572TIP3    H277208   3.292   2.098  13.602  0.6601 -0.1170  2.8090
18573TIP3   OH277209   5.127   5.082  16.210  0.0434  0.3583 -0.0832
18573TIP3    H177210   5.223   5.078  16.205  0.1361  2.2493 -0.3837
18573TIP3    H277211   5.107   5.056  16.301  0.6912 -1.4514 -0.4021
18574TIP3   OH277212   0.640   2.598   4.256  0.1488  0.0364 -0.2246
18574TIP3    H177213   0.559   2.579   4.304 -0.2475 -1.7261 -1.4895
18574TIP3    H277214   0.630   2.689   4.227 -1.4183 -0.1519 -0.3848
18575TIP3   OH277215   6.591   3.558  13.768  0.2490  0.0520 -0.3410
18575TIP3    H177216   6.661   3.494  13.779  0.8281  0.5969 -0.7819
18575TIP3    H277217   6.622   3.616  13.699  0.9763  2.4647  1.8615
18576TIP3   OH277218   4.545   2.086  12.925 -0.1547 -0.2820  0.0116
18576TIP3    H177219   4.556   1.992  12.918  0.6810 -0.3535  1.7341
18576TIP3    H277220   4.454   2.101  12.898  0.2383 -1.3113 -2.0551
18577TIP3   OH277221   1.234   6.081   0.347 -0.3201  0.2658  0.2385
18577TIP3    H177222   1.282   6.066   0.429  1.3328 -0.2894 -0.7666
18577TIP3    H277223   1.250   6.173   0.327  0.8240 -0.0505 -0.3672
18578TIP3   OH277224   2.493   3.055  11.194  0.1489 -0.7111 -0.3844
18578TIP3    H177225   2.584   3.049  11.223  0.4015  1.6026 -0.5017
18578TIP3    H277226   2.496   3.038  11.100  0.9182  1.8354 -0.8937
18579TIP3   OH277227   3.604   1.526  12.485  0.8754  0.2504 -0.2322
18579TIP3    H177228   3.586   1.467  12.412 -1.6130  0.8427 -0.2093
18579TIP3    H277229   3.519   1.566  12.504  2.4714  4.2967 -0.6371
18580TIP3   OH277230   2.950   6.659   5.145  0.0340 -0.3835  0.5108
18580TIP3    H177231   2.864   6.634   5.111 -0.4222  1.3556  0.2751
18580TIP3    H277232   2.986   6.718   5.079  1.0709 -0.4693  0.9805
18581TIP3   OH277233   4.890   1.717  14.676  0.0710  0.2791 -0.0568
18581TIP3    H177234   4.862   1.667  14.753  1.1740  0.0712  0.2355
18581TIP3    H277235   4.921   1.800  14.711 -0.2922  0.5542 -0.3815
18582TIP3   OH277236   3.732   1.230   2.678  0.6322  0.4459  0.5217
18582TIP3    H177237   3.717   1.181   2.759 -2.2171 -0.3902 -0.3961
18582TIP3    H277238   3.744   1.162   2.612  0.4422  1.0582 -0.1450
18583TIP3   OH277239   3.437   2.331   1.791 -0.2881 -0.1802  0.1355
18583TIP3    H177240   3.372   2.268   1.824 -0.2218 -0.2746  0.0844
18583TIP3    H277241   3.510   2.325   1.852 -0.4502  0.1470  0.3713
18584TIP3   OH277242   1.732   1.026  12.193 -0.6877 -0.3524  0.1644
18584TIP3    H177243   1.744   0.959  12.125 -2.1009 -0.0534 -0.4155
18584TIP3    H277244   1.746   0.979  12.275 -1.7940 -1.4173 -0.2227
18585TIP3   OH277245   4.584   4.902   1.026  0.2815  0.0591  0.0168
18585TIP3    H177246   4.528   4.911   1.102  1.7171  1.0761  1.0133
18585TIP3    H277247   4.673   4.894   1.062  1.2249  2.4754 -1.5185
18586TIP3   OH277248   5.448   6.459   0.298  0.2343  0.1710  0.6422
18586TIP3    H177249   5.534   6.431   0.329  0.5014  2.0459  1.7380
18586TIP3    H277250   5.465   6.540   0.250 -0.6740 -0.6690 -1.1900
18587TIP3   OH277251   6.491   3.069  16.865 -0.2828 -0.1999  0.6008
18587TIP3    H177252   6.515   2.980  16.889 -1.1091 -0.6533 -0.1758
18587TIP3    H277253   6.433   3.098  16.936  1.2589  0.3260  1.6768
18588TIP3   OH277254   1.423   3.008  16.003  0.0394 -0.1019 -0.6226
18588TIP3    H177255   1.328   3.018  15.999  0.0775 -0.0464 -1.8157
18588TIP3    H277256   1.451   3.005  15.911  1.0553 -1.4636 -0.3070
18589TIP3   OH277257   5.232   3.595  12.810 -0.7769 -0.3489 -0.0581
18589TIP3    H177258   5.320   3.603  12.771 -0.7183 -0.3699  0.0694
18589TIP3    H277259   5.200   3.685  12.815 -0.8696 -0.3652 -0.3482
18590TIP3   OH277260   4.653   5.559   6.411  0.4289 -0.3105 -0.0849
18590TIP3    H177261   4.576   5.506   6.431 -0.2944  0.0440 -1.7711
18590TIP3    H277262   4.660   5.620   6.485 -0.7805 -0.4829  0.1917
18591TIP3   OH277263   6.551   2.624   5.213 -0.4130  0.1753 -0.2114
18591TIP3    H177264   6.631   2.589   5.254 -0.1726  1.1876  0.2126
18591TIP3    H277265   6.482   2.605   5.277 -0.3113  0.3452 -0.0509
18592TIP3   OH277266   6.632   4.679  13.520  0.2376  0.1698  0.1160
18592TIP3    H177267   6.560   4.625  13.553  0.3560 -0.9817 -1.4158
18592TIP3    H277268   6.687   4.619  13.470  3.3858  0.5880  2.7699
18593TIP3   OH277269   0.809   6.647   1.368 -0.1861  0.1539 -0.0797
18593TIP3    H177270   0.757   6.700   1.308 -1.5149  0.2434  1.0898
18593TIP3    H277271   0.887   6.623   1.318 -0.4152  1.6733 -1.2474
18594TIP3   OH277272   5.163   5.156  16.530  0.5349  0.0819 -0.1538
18594TIP3    H177273   5.129   5.202  16.606  3.6085 -0.1328  1.5459
18594TIP3    H277274   5.125   5.068  16.536 -1.4984  0.8928 -0.5834
18595TIP3   OH277275   3.044   6.658   4.198  0.8008 -0.2980 -0.0682
18595TIP3    H177276   3.074   6.709   4.122 -0.0281  0.6339  0.2115
18595TIP3    H277277   3.113   6.592   4.211  1.7074  0.4983 -0.6896
18596TIP3   OH277278   1.855   2.792  15.776 -0.3265  0.0087 -0.4458
18596TIP3    H177279   1.809   2.713  15.747 -0.2453 -0.6578  1.1756
18596TIP3    H277280   1.873   2.839  15.695 -0.9911 -1.2909 -1.3939
18597TIP3   OH277281   0.725   2.525   1.076 -0.0621  0.0074  0.5656
18597TIP3    H177282   0.756   2.459   1.138  1.0560 -0.2376 -0.2247
18597TIP3    H277283   0.675   2.475   1.011  1.3641 -0.2005 -0.4172
18598TIP3   OH277284   1.819   6.775  10.559 -0.1575  0.6948  0.5880
18598TIP3    H177285   1.911   6.789  10.577  0.0091  1.5038 -0.8061
18598TIP3    H277286   1.816   6.693  10.510 -0.1774  0.6676  0.6351
18599TIP3   OH277287   1.151   0.031   3.687 -0.1751  0.5999 -0.6379
18599TIP3    H177288   1.095  -0.022   3.630  0.5578 -1.2458  0.2417
18599TIP3    H277289   1.116   0.015   3.775  0.5515  0.9426 -0.2800
18600TIP3   OH277290   4.976   3.683  11.356 -0.0689 -0.6008 -0.2076
18600TIP3    H177291   4.898   3.629  11.374  1.6468 -2.3102  3.0180
18600TIP3    H277292   4.992   3.730  11.437  1.2762  1.1150 -1.4007
18601TIP3   OH277293   3.096   5.965  15.934 -0.0353 -0.4067 -0.1340
18601TIP3    H177294   3.178   6.000  15.970  0.0032 -0.1361 -0.4820
18601TIP3    H277295   3.048   5.935  16.011 -0.6996  1.7005  0.3547
18602TIP3   OH277296   3.289   2.127  15.750  0.1488  0.0565 -0.5203
18602TIP3    H177297   3.294   2.050  15.694 -0.2630 -1.1077  0.9903
18602TIP3    H277298   3.239   2.099  15.826 -1.9320  2.4185 -0.8658
18603TIP3   OH277299   6.289   1.494   3.945  0.3410  0.2162 -1.0203
18603TIP3    H177300   6.252   1.467   4.029 -1.8686  2.5508 -1.1104
18603TIP3    H277301   6.364   1.436   3.932  1.2610  0.2570  2.8977
18604TIP3   OH277302   2.398   4.227   4.103 -0.5552 -0.3527 -0.0945
18604TIP3    H177303   2.451   4.299   4.138  0.3546 -0.7157 -0.6797
18604TIP3    H277304   2.308   4.261   4.104 -0.3301  0.2868  0.9039
18605TIP3   OH277305   3.225   4.331  14.110 -0.4943 -0.9595 -0.5905
18605TIP3    H177306   3.313   4.295  14.103 -0.1310 -0.2183 -0.0130
18605TIP3    H277307   3.198   4.312  14.199 -1.1302 -1.6222 -0.9136
18606TIP3   OH277308   5.262   5.178   4.929 -0.1699 -0.2028 -0.3315
18606TIP3    H177309   5.354   5.194   4.904  0.1347  0.1853  0.9831
18606TIP3    H277310   5.215   5.182   4.846  0.7264  1.7152 -0.8197
18607TIP3   OH277311   5.560   1.632  10.657 -0.3237 -0.0783  0.4012
18607TIP3    H177312   5.498   1.604  10.589  0.5053 -0.3201 -0.2710
18607TIP3    H277313   5.588   1.550  10.698 -0.9270  0.0775  1.1412
18608TIP3   OH277314   5.202   1.838  15.162  0.1477  0.2297 -0.1970
18608TIP3    H177315   5.166   1.923  15.188 -0.2149 -0.0227  0.1423
18608TIP3    H277316   5.261   1.814  15.233  1.6647  1.0328 -1.1501
18609TIP3   OH277317   2.117   6.234   0.231  0.2733  0.2180  0.5134
18609TIP3    H177318   2.182   6.299   0.257  1.1741 -0.3985 -0.1458
18609TIP3    H277319   2.050   6.239   0.299  0.7639  1.2127  0.9410
18610TIP3   OH277320   2.738   2.926  16.301  0.6743 -0.0543 -0.0921
18610TIP3    H177321   2.659   2.976  16.319  1.6915  1.4539  0.4362
18610TIP3    H277322   2.770   2.900  16.388  1.1320 -0.0368 -0.2529
18611TIP3   OH277323   4.446   2.330  11.819  0.3270  0.4878 -0.0522
18611TIP3    H177324   4.433   2.313  11.913 -0.4427 -0.1566 -0.2743
18611TIP3    H277325   4.522   2.388  11.817 -0.7661  2.0809  1.1086
18612TIP3   OH277326   4.138   4.605  14.895 -0.3350 -0.5484 -0.2000
18612TIP3    H177327   4.223   4.643  14.872 -0.4140 -0.3141 -0.1040
18612TIP3    H277328   4.122   4.634  14.985 -1.3599  0.9300 -0.8333
18613TIP3   OH277329   2.826   6.264   4.888  0.1198 -0.5949 -0.1000
18613TIP3    H177330   2.832   6.230   4.798  1.5643  0.9394 -0.6552
18613TIP3    H277331   2.916   6.257   4.921 -0.6604 -2.5750  1.8579
18614TIP3   OH277332   0.655   5.300  16.502  0.2510  0.0982  0.2217
18614TIP3    H177333   0.598   5.224  16.493 -0.4178  0.5185  0.7871
18614TIP3    H277334   0.689   5.315  16.413  0.2818 -0.7590  0.0780
18615TIP3   OH277335   3.038   0.475  13.272  0.1988  0.6130 -0.3198
18615TIP3    H177336   3.092   0.516  13.205  1.2353 -0.0097  0.1037
18615TIP3    H277337   2.956   0.453  13.228  0.2936  1.5511 -0.9809
18616TIP3   OH277338   1.351   6.114   4.386  0.3602  0.2973  0.2143
18616TIP3    H177339   1.283   6.058   4.349  0.1368  1.8854 -1.9894
18616TIP3    H277340   1.419   6.118   4.319  1.1732  1.2817  1.0472
18617TIP3   OH277341   1.669   0.625  15.921  0.2651  0.3778  0.2033
18617TIP3    H177342   1.574   0.635  15.912  0.1434  0.7103  1.5543
18617TIP3    H277343   1.703   0.713  15.908  0.6207 -0.0444 -2.2223
18618TIP3   OH277344   4.741   3.127  11.160  0.0472 -0.5863  1.1665
18618TIP3    H177345   4.792   3.057  11.201  0.0557 -1.3911 -0.1636
18618TIP3    H277346   4.659   3.084  11.134  0.3244 -0.2757 -0.2670
18619TIP3   OH277347   1.501   4.839   3.908  1.0360 -0.0486 -0.2318
18619TIP3    H177348   1.565   4.839   3.836 -0.5790 -0.8424 -1.7462
18619TIP3    H277349   1.466   4.750   3.910 -2.8372  1.1925 -2.1794
18620TIP3   OH277350   5.383   4.618   1.638  0.4839 -0.1045  0.0486
18620TIP3    H177351   5.400   4.593   1.729  1.7698  0.9940  0.1292
18620TIP3    H277352   5.390   4.713   1.637 -1.2275  0.0636 -0.8757
18621TIP3   OH277353   6.234   1.104  16.259  0.1728 -0.2594  0.2478
18621TIP3    H177354   6.277   1.178  16.215 -1.9733  0.6520 -0.4450
18621TIP3    H277355   6.237   1.033  16.195 -1.1963  0.4689 -0.6779
18622TIP3   OH277356   2.697   3.492   5.732 -0.0202 -0.2631 -0.0216
18622TIP3    H177357   2.694   3.516   5.640  0.5330 -0.8262 -0.1930
18622TIP3    H277358   2.634   3.420   5.741 -0.7701  0.4140  0.2401
18623TIP3   OH277359   1.492   3.270  15.645  0.1376 -0.1292 -0.5995
18623TIP3    H177360   1.435   3.340  15.677  1.6310  0.1658  1.5732
18623TIP3    H277361   1.533   3.307  15.567 -1.2468  0.3030 -1.1574
18624TIP3   OH277362   1.047   1.155  10.793  0.4162  0.3799 -0.1792
18624TIP3    H177363   0.954   1.169  10.774 -0.3864 -1.8849  1.5966
18624TIP3    H277364   1.081   1.110  10.715 -0.6386 -0.9532  0.0834
18625TIP3   OH277365   4.352   6.100  14.438 -0.3332 -0.3321 -0.3280
18625TIP3    H177366   4.287   6.139  14.380  0.9391 -0.4580 -1.8983
18625TIP3    H277367   4.399   6.036  14.384  1.6467  0.3298  0.4843
18626TIP3   OH277368   2.987   5.053  16.528 -0.4742  0.3862 -0.3331
18626TIP3    H177369   2.932   5.054  16.606 -0.7060 -0.4850 -0.4700
18626TIP3    H277370   3.022   4.964  16.525  0.1570  0.6447 -0.7915
18627TIP3   OH277371   3.774   1.525  10.826 -0.1758  0.3849 -0.4958
18627TIP3    H177372   3.860   1.565  10.839 -0.0046  0.9330 -2.9336
18627TIP3    H277373   3.790   1.431  10.834  0.5921  0.4951 -0.6652
18628TIP3   OH277374   1.408   6.577  16.153 -0.1259  0.4716 -0.2016
18628TIP3    H177375   1.406   6.508  16.220 -2.4253  2.0441  1.4975
18628TIP3    H277376   1.501   6.598  16.145  0.4520 -1.4648  0.6512
18629TIP3   OH277377   1.447   5.096   4.664  0.0707  0.3914  0.5131
18629TIP3    H177378   1.503   5.039   4.611 -0.0491  0.7385  0.0033
18629TIP3    H277379   1.387   5.136   4.601 -0.7028  0.0855  1.0429
18630TIP3   OH277380   5.062   0.828   5.179 -0.3902  0.0623  0.1153
18630TIP3    H177381   5.056   0.832   5.084 -0.9454 -0.6890  0.1036
18630TIP3    H277382   5.117   0.902   5.203  1.2706 -0.7812 -0.9180
18631TIP3   OH277383   1.833   1.255   3.633 -0.0417  0.2001  0.1460
18631TIP3    H177384   1.783   1.219   3.559  0.0043  2.0282 -0.8309
18631TIP3    H277385   1.767   1.299   3.687  0.4014  2.3989 -1.0128
18632TIP3   OH277386   6.313   4.866  14.857  0.0696 -0.1076  0.2189
18632TIP3    H177387   6.306   4.857  14.952 -0.5002 -2.6801  0.0104
18632TIP3    H277388   6.364   4.789  14.830  1.9476  1.6106 -1.4062
18633TIP3   OH277389   3.828   2.342   1.367  0.0748  0.0200 -0.4685
18633TIP3    H177390   3.770   2.333   1.291  1.0105 -1.4211 -1.0648
18633TIP3    H277391   3.822   2.257   1.411  1.2549  0.0670 -0.1981
18634TIP3   OH277392   1.003   5.857  14.425 -0.5554  0.1753  0.0716
18634TIP3    H177393   1.028   5.765  14.424 -1.1377  0.0006 -1.8735
18634TIP3    H277394   1.076   5.901  14.469  0.9022 -0.9273 -1.1314
18635TIP3   OH277395   1.192   4.125  15.768 -0.5289 -0.0406  0.0256
18635TIP3    H177396   1.168   4.036  15.793 -0.3268 -0.2171 -0.4029
18635TIP3    H277397   1.229   4.163  15.847  1.2482 -0.9963 -0.3148
18636TIP3   OH277398   5.551   0.770  11.426 -0.4439 -0.7004  0.1274
18636TIP3    H177399   5.614   0.708  11.462 -0.0161 -0.1517  0.3415
18636TIP3    H277400   5.603   0.848  11.405 -1.4279  0.8348  2.8219
18637TIP3   OH277401   5.214   3.987  13.853 -0.3240 -0.2539 -0.3333
18637TIP3    H177402   5.121   3.969  13.838 -0.5131 -0.6421  1.1662
18637TIP3    H277403   5.241   3.921  13.916  1.1789 -0.6171 -1.2943
18638TIP3   OH277404   1.980   1.214  14.824  0.2707  1.0225  0.2567
18638TIP3    H177405   2.066   1.185  14.792  0.0639 -0.8125  1.2902
18638TIP3    H277406   1.937   1.135  14.855 -2.2022  1.7456 -1.0295
18639TIP3   OH277407   2.785   6.357  12.719 -0.0581  0.6730 -0.2697
18639TIP3    H177408   2.744   6.270  12.718 -0.9435  1.0797 -0.4350
18639TIP3    H277409   2.788   6.383  12.627  2.8396 -0.3441 -0.5856
18640TIP3   OH277410   4.666   1.324   1.920  0.2908  0.0523 -0.1315
18640TIP3    H177411   4.646   1.231   1.924  0.0862 -0.0133 -1.8269
18640TIP3    H277412   4.760   1.329   1.937  0.0435 -0.2940  1.4232
18641TIP3   OH277413   5.286   5.702  15.508  0.2487 -0.4344 -0.1544
18641TIP3    H177414   5.378   5.699  15.537  0.3345  2.5437  0.1964
18641TIP3    H277415   5.291   5.708  15.413  0.5969  1.7550 -0.0501
18642TIP3   OH277416   4.474   5.351   0.707 -0.6888 -0.0086  0.3561
18642TIP3    H177417   4.539   5.323   0.772 -0.1941  0.9157  0.2715
18642TIP3    H277418   4.416   5.410   0.755 -1.1075 -0.3517  0.2764
18643TIP3   OH277419   3.711   4.513   0.164 -0.1486  0.0200 -0.3359
18643TIP3    H177420   3.684   4.577   0.229 -0.4665  0.0228 -0.4702
18643TIP3    H277421   3.702   4.559   0.080  2.8586  0.9646 -0.2516
18644TIP3   OH277422   2.340   1.337   1.657 -0.2388  0.4443 -0.0506
18644TIP3    H177423   2.244   1.346   1.662 -0.3449 -1.0275  1.4294
18644TIP3    H277424   2.363   1.285   1.734  1.6057 -0.4718 -1.1536
18645TIP3   OH277425   0.591   6.585  11.050  0.3407  0.0555  0.0368
18645TIP3    H177426   0.509   6.598  11.002  0.4471  1.2583  0.1510
18645TIP3    H277427   0.617   6.495  11.029  0.3666  0.5285 -2.1463
18646TIP3   OH277428   1.886   0.047   6.322 -0.1320  0.0949 -0.6389
18646TIP3    H177429   1.811   0.007   6.367  0.6550 -1.7682 -0.8775
18646TIP3    H277430   1.849   0.121   6.275 -1.4949  0.3205  0.6927
18647TIP3   OH277431   2.065   2.120  13.427  0.2187  0.5889 -0.1798
18647TIP3    H177432   1.970   2.122  13.429  0.2136  2.8631 -0.3908
18647TIP3    H277433   2.092   2.139  13.517  0.4945 -0.3831 -0.0454
18648TIP3   OH277434   1.499   5.639   0.375  0.2896  0.3163  0.9025
18648TIP3    H177435   1.422   5.690   0.400 -0.0120 -0.4416  1.5647
18648TIP3    H277436   1.548   5.627   0.456  0.1617 -0.7440  0.8356
18649TIP3   OH277437   5.995   5.126  16.730  0.0197  0.4669 -0.5755
18649TIP3    H177438   6.012   5.058  16.795 -3.6002  0.6865  0.8063
18649TIP3    H277439   5.989   5.079  16.647 -0.1335 -0.5631  0.0059
18650TIP3   OH277440   3.391   6.382  15.673  0.0209 -0.0076  0.8862
18650TIP3    H177441   3.471   6.407  15.627  0.9979 -2.3363  1.1533
18650TIP3    H277442   3.330   6.454  15.657  1.9674  1.5805  0.2016
18651TIP3   OH277443   3.092   5.690  15.442 -0.3250  0.0310 -0.0977
18651TIP3    H177444   3.027   5.620  15.447 -0.5997  0.2085 -0.9561
18651TIP3    H277445   3.063   5.755  15.506  0.2679 -0.8945  1.1474
18652TIP3   OH277446   0.914   0.831  16.923 -0.2554  0.0149 -0.1806
18652TIP3    H177447   0.931   0.919  16.888  0.6312  0.2523  0.8048
18652TIP3    H277448   0.820   0.818  16.910 -0.1636  0.5676 -1.5327
18653TIP3   OH277449   3.733   3.141   3.791  0.3569 -0.3619  0.2679
18653TIP3    H177450   3.815   3.149   3.840 -0.9188  1.2793  2.3364
18653TIP3    H277451   3.702   3.052   3.811  0.8065 -0.3949  0.8671
18654TIP3   OH277452   6.037   2.836   0.804 -0.4095  0.3876  0.2421
18654TIP3    H177453   6.058   2.927   0.825  0.7017 -0.1864  1.8185
18654TIP3    H277454   6.055   2.788   0.885 -1.8908 -1.1126 -0.2506
18655TIP3   OH277455   5.873   2.084  12.498  0.3025  0.1953 -0.2769
18655TIP3    H177456   5.837   1.998  12.519 -1.1800  0.3202 -2.0743
18655TIP3    H277457   5.957   2.086  12.544  0.0889 -1.9438  0.3255
18656TIP3   OH277458   1.906   2.773   1.603  0.4537 -0.2639 -0.6424
18656TIP3    H177459   1.965   2.842   1.633  0.6471  0.0387 -1.6609
18656TIP3    H277460   1.821   2.817   1.594  0.4504 -0.2907 -0.7495
18657TIP3   OH277461   2.895   3.549   3.253 -0.4080  0.2555 -0.3635
18657TIP3    H177462   2.862   3.511   3.335 -2.3913  0.9854 -0.7675
18657TIP3    H277463   2.816   3.577   3.207  0.8110  1.9732 -1.4979
18658TIP3   OH277464   4.134   1.258   5.323 -0.2327  0.5575  0.2389
18658TIP3    H177465   4.062   1.321   5.321  1.7716  3.0100 -1.3584
18658TIP3    H277466   4.100   1.181   5.278 -2.6789  0.5003  1.9636
18659TIP3   OH277467   0.290   6.353  16.470 -0.5318 -0.3277  0.0016
18659TIP3    H177468   0.203   6.363  16.431 -1.3988  0.5121  2.0350
18659TIP3    H277469   0.347   6.406  16.414 -1.0396 -1.7933 -2.0389
18660TIP3   OH277470   5.448   5.622  17.082 -0.4151  0.3477 -0.2534
18660TIP3    H177471   5.373   5.675  17.056 -0.3775  0.7300  0.3903
18660TIP3    H277472   5.410   5.541  17.115 -0.4124 -0.7281 -2.7292
18661TIP3   OH277473   4.155   3.060   0.298  0.2649  0.9439  0.2984
18661TIP3    H177474   4.097   3.018   0.363 -0.8885 -1.9106 -2.3254
18661TIP3    H277475   4.100   3.128   0.258 -1.4589 -1.5966 -2.0155
18662TIP3   OH277476   5.943   3.553   0.807 -0.0262  0.3434  0.5939
18662TIP3    H177477   5.983   3.623   0.859  0.7700  0.7354 -0.5029
18662TIP3    H277478   6.007   3.534   0.739 -1.9629  1.4932 -1.6953
18663TIP3   OH277479   1.104   4.883  14.879 -0.0618  0.3142 -0.2277
18663TIP3    H177480   1.009   4.890  14.891  0.0624  1.3221  0.2004
18663TIP3    H277481   1.128   4.803  14.927 -0.5716  0.5175  0.3706
18664TIP3   OH277482   2.850   2.357   1.747 -0.4443 -0.9867 -0.1473
18664TIP3    H177483   2.841   2.273   1.703 -0.0049 -0.4885 -1.2372
18664TIP3    H277484   2.878   2.417   1.678  2.5244 -0.6230  1.2144
18665TIP3   OH277485   3.335   0.928  13.345 -0.2908  0.4118 -0.2958
18665TIP3    H177486   3.378   0.855  13.389 -2.1742  0.5614  2.0235
18665TIP3    H277487   3.360   1.005  13.396 -1.2614  0.8448 -0.4450
18666TIP3   OH277488   3.999   1.179   2.410 -0.0385 -0.3368  0.0372
18666TIP3    H177489   4.026   1.249   2.350 -1.3445 -0.0291 -0.2420
18666TIP3    H277490   3.906   1.167   2.391  0.1522 -2.1598  0.0913
18667TIP3   OH277491   6.498   1.421  13.920  0.2266 -0.5399 -0.1745
18667TIP3    H177492   6.419   1.452  13.963  0.2665 -1.0283  0.2670
18667TIP3    H277493   6.504   1.472  13.840 -0.1579 -0.0159  0.1295
18668TIP3   OH277494   6.487   3.655   3.972 -0.1041 -0.2597  0.0534
18668TIP3    H177495   6.555   3.640   3.906  1.5875 -1.3287  1.9605
18668TIP3    H277496   6.434   3.575   3.969  1.5438 -1.4851  1.7143
18669TIP3   OH277497   1.284   3.089  11.356 -0.9463  0.2565 -0.2942
18669TIP3    H177498   1.191   3.087  11.331 -0.7151  3.2321 -1.9272
18669TIP3    H277499   1.302   3.181  11.374  1.4890 -0.3794  0.9964
18670TIP3   OH277500   1.637   5.371  16.999 -0.0982 -0.4549  0.4065
18670TIP3    H177501   1.639   5.467  16.994  0.4363 -0.4809  0.0387
18670TIP3    H277502   1.622   5.342  16.909  0.3780 -0.7236  0.4064
18671TIP3   OH277503   6.163   2.476  14.877  0.1022  0.0219 -0.0315
18671TIP3    H177504   6.189   2.565  14.903  3.5715 -0.5014 -1.1487
18671TIP3    H277505   6.227   2.452  14.810 -0.1964 -3.6475  0.8296
18672TIP3   OH277506   6.124   6.772   4.701 -0.1216 -0.6119  0.4145
18672TIP3    H177507   6.085   6.742   4.619  0.1025 -1.7283  0.6938
18672TIP3    H277508   6.161   6.858   4.681 -1.4497 -0.1599 -0.2314
18673TIP3   OH277509   3.689   0.002  12.249  0.1949  0.5263  0.2212
18673TIP3    H177510   3.721  -0.014  12.160  1.1123 -1.7315  0.8552
18673TIP3    H277511   3.652  -0.082  12.276 -1.7006  1.6696  1.3707
18674TIP3   OH277512   6.105   5.075  15.505 -0.1364 -0.3797 -0.3502
18674TIP3    H177513   6.022   5.111  15.537 -0.3144 -0.5675 -0.5906
18674TIP3    H277514   6.134   5.137  15.439 -0.6360 -0.8606 -1.0372
18675TIP3   OH277515   3.630   1.853  12.354  0.6595 -0.0193  0.2943
18675TIP3    H177516   3.546   1.811  12.335  0.9877  0.0505 -1.4581
18675TIP3    H277517   3.696   1.792  12.320  1.2262  0.9089 -0.3094
18676TIP3   OH277518   6.353   5.919  16.720  0.5944  0.4274 -0.6635
18676TIP3    H177519   6.389   5.967  16.794  1.3104 -0.8134 -0.1929
18676TIP3    H277520   6.391   5.961  16.643  3.5639 -1.1408 -0.1953
18677TIP3   OH277521   2.554   4.874  12.485  0.1647 -0.2239 -0.4354
18677TIP3    H177522   2.522   4.783  12.487  0.4409 -0.3344 -0.9312
18677TIP3    H277523   2.592   4.884  12.398 -1.0920  0.7885 -0.9036
18678TIP3   OH277524   1.433   5.571  15.600 -0.2060 -0.1640  0.1897
18678TIP3    H177525   1.440   5.478  15.621  0.5072  0.6052  4.0077
18678TIP3    H277526   1.505   5.612  15.648  0.1945  2.3060 -2.2789
18679TIP3   OH277527   5.823   5.075   3.185  0.6330 -0.2807 -0.8437
18679TIP3    H177528   5.887   5.035   3.127  0.8698  0.9832 -1.4973
18679TIP3    H277529   5.851   5.050   3.273  1.1143 -1.0240 -1.1982
18680TIP3   OH277530   1.264   0.546   6.157 -0.3820  0.9421 -0.3590
18680TIP3    H177531   1.216   0.601   6.218 -2.8849 -0.8527 -0.5783
18680TIP3    H277532   1.286   0.467   6.206  0.3990  0.8011 -0.9062
18681TIP3   OH277533   1.974   4.596   1.779 -0.3792 -0.2222 -0.0669
18681TIP3    H177534   1.886   4.624   1.753 -0.0762  0.2285 -0.6271
18681TIP3    H277535   1.991   4.644   1.861 -0.5378 -0.0839 -0.1135
18682TIP3   OH277536   6.017   0.803  13.813 -0.1884 -0.3612  0.2308
18682TIP3    H177537   6.000   0.753  13.892  0.1729 -0.1442  0.4458
18682TIP3    H277538   5.949   0.871  13.813 -0.3075 -0.4791  0.2496
18683TIP3   OH277539   1.297   4.133  11.220  0.4891  0.0787  0.0529
18683TIP3    H177540   1.246   4.214  11.220  0.7674  0.2628  1.2764
18683TIP3    H277541   1.319   4.117  11.311 -0.1368 -1.7627 -0.0705
18684TIP3   OH277542   2.796   5.755   2.217 -0.4055 -0.0525  0.5665
18684TIP3    H177543   2.704   5.776   2.235 -0.3742 -0.4208  1.1749
18684TIP3    H277544   2.842   5.773   2.299 -0.0064 -0.2891  0.3982
18685TIP3   OH277545   4.380   3.674  12.396  0.0567 -0.1249 -0.3933
18685TIP3    H177546   4.374   3.760  12.439  0.9692  0.0722 -0.6497
18685TIP3    H277547   4.451   3.629  12.442 -0.0885 -0.5599 -0.5867
18686TIP3   OH277548   3.885   3.342   2.520  0.2691  0.3349  0.2012
18686TIP3    H177549   3.923   3.254   2.519 -1.2567 -0.3535  0.1458
18686TIP3    H277550   3.803   3.333   2.472  0.6577  2.0808 -0.8474
18687TIP3   OH277551   0.334   5.282  13.742  0.2001 -0.4084  0.5053
18687TIP3    H177552   0.334   5.193  13.707 -0.0410 -0.3314  0.3117
18687TIP3    H277553   0.285   5.275  13.824  0.7269 -0.5797  0.8120
18688TIP3   OH277554   5.045   3.991  17.091  0.1341 -0.2618  0.3141
18688TIP3    H177555   5.131   4.026  17.070 -0.3879  0.1935 -1.1793
18688TIP3    H277556   5.014   3.952  17.009 -1.3924  0.2386  0.6202
18689TIP3   OH277557   2.667   2.086   6.024 -0.2986  0.0953  0.1330
18689TIP3    H177558   2.762   2.073   6.019 -0.1606  1.4214 -2.6609
18689TIP3    H277559   2.653   2.128   6.108  1.6860  0.4214  0.3580
18690TIP3   OH277560   4.696   1.818   4.627 -0.0710  1.1102 -0.4595
18690TIP3    H177561   4.629   1.883   4.608  0.0929  1.6231  0.6504
18690TIP3    H277562   4.727   1.790   4.541 -0.8075  1.8013 -0.9655
18691TIP3   OH277563   3.139   6.026  15.470 -0.8031 -0.3453  0.1426
18691TIP3    H177564   3.144   5.990  15.558  1.0025  0.3027  0.3594
18691TIP3    H277565   3.221   6.075  15.460 -1.0949 -0.1733 -1.7917
18692TIP3   OH277566   6.029   4.066  16.720 -0.7313  0.2777 -0.7605
18692TIP3    H177567   6.055   4.042  16.631  1.6366  1.4147 -0.4568
18692TIP3    H277568   6.086   4.140  16.742 -1.1599 -0.0625  1.7492
18693TIP3   OH277569   1.772   3.042   1.194 -0.1683 -0.1002 -0.2986
18693TIP3    H177570   1.819   2.969   1.232  0.3702 -0.6292 -1.9114
18693TIP3    H277571   1.831   3.117   1.204  0.5916 -0.5408 -1.3673
18694TIP3   OH277572   1.842   5.017  17.055 -0.0821  0.0400  0.2980
18694TIP3    H177573   1.869   4.927  17.039 -1.5039 -0.2416 -0.6412
18694TIP3    H277574   1.880   5.067  16.983 -1.5582 -0.2672 -0.7162
18695TIP3   OH277575   5.453   2.482   6.647 -0.2698  0.0555  0.3534
18695TIP3    H177576   5.383   2.517   6.702 -0.9860 -1.4398  0.4394
18695TIP3    H277577   5.534   2.516   6.685 -0.8491  0.2830  1.3998
18696TIP3   OH277578   4.824   2.269  17.009  0.7794 -0.3025 -0.0407
18696TIP3    H177579   4.849   2.355  17.043  2.2178 -0.5125 -0.4962
18696TIP3    H277580   4.844   2.274  16.916 -1.5337 -0.3051 -0.5924
18697TIP3   OH277581   2.736   0.504   3.966 -0.0771  1.0376 -0.3016
18697TIP3    H177582   2.810   0.549   4.007 -0.2554  1.3962 -0.3731
18697TIP3    H277583   2.665   0.567   3.969  0.1060  1.3495 -1.8117
18698TIP3   OH277584   4.441   2.147  11.594 -0.3502 -0.4257  0.1005
18698TIP3    H177585   4.348   2.158  11.575  0.5486  2.0299 -4.5845
18698TIP3    H277586   4.461   2.216  11.657 -1.1602  1.9428 -2.0335
18699TIP3   OH277587   2.732   4.637   2.473 -0.2969  0.0562 -0.1859
18699TIP3    H177588   2.682   4.621   2.393 -1.6291 -0.1330  0.6596
18699TIP3    H277589   2.676   4.604   2.544  0.3195  1.2992  0.9310
18700TIP3   OH277590   0.461   4.133  12.745 -0.1482 -0.0152 -0.1484
18700TIP3    H177591   0.389   4.078  12.777  0.3969  0.5817  2.3987
18700TIP3    H277592   0.424   4.222  12.743  0.9522  0.6889  3.4119
18701TIP3   OH277593   2.845   0.406   0.610 -0.4722 -0.2668 -0.3272
18701TIP3    H177594   2.804   0.323   0.585 -0.2733 -0.1321 -1.1308
18701TIP3    H277595   2.800   0.431   0.691 -0.8661 -0.9153 -0.3327
18702TIP3   OH277596   5.839   6.286   2.458  0.3793 -0.4632  0.4607
18702TIP3    H177597   5.856   6.273   2.364  1.1324  1.3357  0.2976
18702TIP3    H277598   5.781   6.214   2.482  0.5927 -1.2715 -1.2655
18703TIP3   OH277599   1.638   4.735  15.945  0.3946  0.5771 -0.3235
18703TIP3    H177600   1.562   4.689  15.978  0.1036  0.5836 -0.9836
18703TIP3    H277601   1.625   4.826  15.974 -0.4399  0.8259 -1.4320
18704TIP3   OH277602   2.468   1.828   0.115 -0.7486  0.2746  0.0406
18704TIP3    H177603   2.478   1.821   0.021  1.7589 -0.1617  0.2742
18704TIP3    H277604   2.502   1.746   0.149 -0.1707  1.0409  1.3953
18705TIP3   OH277605   0.814   6.677  12.350  0.3534 -0.1678  0.7954
18705TIP3    H177606   0.763   6.609  12.306  0.1406 -0.1652  1.0397
18705TIP3    H277607   0.795   6.666  12.443  0.7241 -0.1064  0.8810
18706TIP3   OH277608   4.644   4.296  16.414 -0.1927 -0.5799 -0.5187
18706TIP3    H177609   4.650   4.205  16.444  1.5155 -0.6590 -1.0348
18706TIP3    H277610   4.604   4.342  16.487  0.7599 -1.3894  0.5510
18707TIP3   OH277611   3.007   2.183   3.895  0.7172 -0.3108  0.8627
18707TIP3    H177612   3.018   2.125   3.971  1.3090 -1.4976 -0.1022
18707TIP3    H277613   3.014   2.126   3.819 -0.5308  0.7526 -0.1066
18708TIP3   OH277614   5.720   0.355  10.815 -0.3525 -0.1150  0.3992
18708TIP3    H177615   5.708   0.286  10.750 -1.7527  0.0306  0.4672
18708TIP3    H277616   5.713   0.437  10.765  0.3451 -0.0131  0.4634
18709TIP3   OH277617   1.373   0.621   1.843 -0.3680  0.1425 -0.1398
18709TIP3    H177618   1.352   0.565   1.768 -2.6686 -0.8612  1.1764
18709TIP3    H277619   1.376   0.562   1.918  1.5705  1.1799  0.6788
18710TIP3   OH277620   2.692   1.181   5.944  0.4398  0.1260  0.2322
18710TIP3    H177621   2.761   1.218   5.890  1.7427 -1.9850  0.3251
18710TIP3    H277622   2.683   1.242   6.017  0.1277  1.9131 -1.2173
18711TIP3   OH277623   3.372   2.409  15.983 -0.2892  0.7452  0.4874
18711TIP3    H177624   3.359   2.434  15.892  0.6730  1.3052  0.4902
18711TIP3    H277625   3.467   2.401  15.993 -0.3875  0.5899  1.4103
18712TIP3   OH277626   0.727   1.895  12.325 -0.7071 -0.1591 -0.1783
18712TIP3    H177627   0.738   1.915  12.418  0.5946 -4.0579  0.6906
18712TIP3    H277628   0.637   1.864  12.317 -1.3069  1.5918 -0.6057
18713TIP3   OH277629   3.895   4.915  13.670  0.3627 -0.6372 -0.5000
18713TIP3    H177630   3.887   4.824  13.640  0.8428  0.0053 -2.7537
18713TIP3    H277631   3.971   4.913  13.729  1.2925 -1.4542 -1.6738
18714TIP3   OH277632   6.737   5.455   1.929 -0.2470 -0.3387 -0.0004
18714TIP3    H177633   6.675   5.382   1.930 -0.7876  0.1010  2.2341
18714TIP3    H277634   6.793   5.440   2.005  1.0487  0.4375 -0.7608
18715TIP3   OH277635   5.925   5.748  10.391  0.4124  0.4418  0.0709
18715TIP3    H177636   5.834   5.737  10.418  0.3785  0.2097 -0.1341
18715TIP3    H277637   5.927   5.836  10.352 -0.2535 -0.4085 -1.9954
18716TIP3   OH277638   1.133   1.967   4.806  0.7277 -0.2279  0.6687
18716TIP3    H177639   1.105   1.964   4.714  2.4518 -0.1728  0.0966
18716TIP3    H277640   1.064   2.016   4.850  0.9437  1.8394 -1.0732
18717TIP3   OH277641   6.117   3.275  11.280 -0.1531 -0.4243  0.0555
18717TIP3    H177642   6.103   3.311  11.368 -1.2962 -0.7546  0.0280
18717TIP3    H277643   6.042   3.216  11.266 -0.5927  0.4675 -1.5785
18718TIP3   OH277644   0.009   0.109   2.704  0.8082 -0.5168 -0.3226
18718TIP3    H177645  -0.044   0.178   2.665  0.5121 -1.1780 -1.1259
18718TIP3    H277646  -0.027   0.028   2.668  2.1655 -0.9988 -0.6540
18719TIP3   OH277647   2.374   0.610  12.474  0.0226  0.3681 -0.0165
18719TIP3    H177648   2.345   0.656  12.553 -0.0101 -0.4078  0.4318
18719TIP3    H277649   2.468   0.626  12.469 -0.2335  1.7697 -0.7265
18720TIP3   OH277650   4.922   0.212  15.247  0.0940 -0.6758  0.6856
18720TIP3    H177651   4.853   0.168  15.297  0.1509  0.0156  1.3918
18720TIP3    H277652   4.974   0.257  15.314 -0.7708  1.6187 -0.1264
18721TIP3   OH277653   6.122   5.621  11.540  0.3052  0.1450  0.5208
18721TIP3    H177654   6.217   5.621  11.536  0.3091  0.6092  0.5235
18721TIP3    H277655   6.094   5.602  11.450  0.4041  1.2272  0.2457
18722TIP3   OH277656   3.953   0.712  13.851  0.4007  0.5386  0.2008
18722TIP3    H177657   3.921   0.800  13.872 -0.5433 -0.0066  1.1662
18722TIP3    H277658   4.030   0.701  13.908  1.8438  1.5039 -1.4600
18723TIP3   OH277659   5.334   6.111   5.127 -0.6447  0.4061 -0.5021
18723TIP3    H177660   5.367   6.194   5.159  0.5127  0.3168 -1.3981
18723TIP3    H277661   5.410   6.053   5.127 -1.1416 -0.2675 -1.1579
18724TIP3   OH277662   0.293   2.531  10.674 -0.1310  0.0209 -0.1616
18724TIP3    H177663   0.238   2.609  10.681  1.1575  0.9317  0.2240
18724TIP3    H277664   0.246   2.473  10.613 -1.9755  0.3242  0.8969
18725TIP3   OH277665   2.762   1.334   4.351  0.6909  0.2047 -0.3446
18725TIP3    H177666   2.837   1.354   4.407  0.7260  1.3917 -0.7875
18725TIP3    H277667   2.722   1.257   4.391 -0.0719  1.7967  2.1048
18726TIP3   OH277668   3.822   4.948   0.633  0.0110 -0.1502 -0.0718
18726TIP3    H177669   3.861   4.861   0.630 -0.4625 -0.3377 -1.2296
18726TIP3    H277670   3.897   5.008   0.641  0.3330 -0.6469  0.7775
18727TIP3   OH277671   0.498   0.205   4.639 -0.4392  0.2354  0.3421
18727TIP3    H177672   0.484   0.160   4.556 -0.7071 -1.5285  1.2922
18727TIP3    H277673   0.471   0.142   4.706  1.2530  1.0010  1.8509
18728TIP3   OH277674   5.210   3.548   1.440 -0.3484 -0.0241  0.2462
18728TIP3    H177675   5.196   3.460   1.406  1.0473 -0.1604 -0.0226
18728TIP3    H277676   5.296   3.573   1.407 -0.2127  0.9708  1.3048
18729TIP3   OH277677   6.120   1.697   5.622 -0.2713  0.2356 -0.4869
18729TIP3    H177678   6.178   1.674   5.695 -1.5411 -1.7025 -0.0184
18729TIP3    H277679   6.063   1.765   5.657  0.2389  0.5434 -0.2385
18730TIP3   OH277680   1.962   2.584   2.744 -0.5142  0.0582  0.1385
18730TIP3    H177681   1.929   2.627   2.665  0.4641  1.5852  0.4990
18730TIP3    H277682   2.006   2.506   2.713  0.6775  1.1241 -0.9778
18731TIP3   OH277683   2.961   2.150  15.869  0.1792  0.3158  0.7284
18731TIP3    H177684   2.994   2.100  15.795  0.3287 -1.1342  1.7352
18731TIP3    H277685   2.998   2.107  15.946  1.1741  2.6268  1.6306
18732TIP3   OH277686   5.780   0.263  15.408 -0.3231  0.1568  0.8930
18732TIP3    H177687   5.701   0.213  15.431  0.9311 -1.2882  2.2748
18732TIP3    H277688   5.845   0.236  15.473  1.5146  0.8258 -0.5875
18733TIP3   OH277689   4.482   5.413  14.654 -0.0985 -0.2160 -0.1251
18733TIP3    H177690   4.468   5.500  14.616  1.0490 -0.0358 -0.1851
18733TIP3    H277691   4.536   5.430  14.731 -2.3857 -0.5715  1.6642
18734TIP3   OH277692   0.275   3.062   2.007 -0.5436  0.3440 -0.2904
18734TIP3    H177693   0.303   3.153   1.995  1.4745 -0.3302 -0.8685
18734TIP3    H277694   0.326   3.011   1.945 -0.6304 -1.3753  0.9568
18735TIP3   OH277695   4.995   4.150  15.049 -0.0623 -0.2330 -0.1464
18735TIP3    H177696   4.967   4.241  15.044 -0.2942 -0.3314 -0.7409
18735TIP3    H277697   4.963   4.111  14.967 -0.4134 -0.9698  0.3377
18736TIP3   OH277698   1.421   0.149   6.090  0.5102 -0.4292  0.3150
18736TIP3    H177699   1.334   0.110   6.097  0.5416 -0.3825  1.0391
18736TIP3    H277700   1.481   0.075   6.098  0.5732 -0.2442  1.8306
18737TIP3   OH277701   4.367   2.651   3.959 -0.2686 -0.1983 -0.1121
18737TIP3    H177702   4.415   2.656   3.877  0.7425 -0.2008  0.4679
18737TIP3    H277703   4.391   2.566   3.995  1.5251  0.9376  1.5185
18738TIP3   OH277704   4.221   1.522  14.711 -0.2112  0.1476 -0.1551
18738TIP3    H177705   4.252   1.439  14.675  1.1406  1.2253 -1.6071
18738TIP3    H277706   4.294   1.553  14.765 -0.5578  0.5810  0.0727
18739TIP3   OH277707   1.621   6.053  15.021  0.1679  0.1699 -0.0200
18739TIP3    H177708   1.566   6.113  15.071  2.0990  0.8311  1.4345
18739TIP3    H277709   1.592   5.966  15.048 -0.7521  0.4733  0.0158
18740TIP3   OH277710   6.506   0.874  13.351  0.0746 -0.1424 -0.9279
18740TIP3    H177711   6.450   0.907  13.281  0.8735  2.4676 -0.4331
18740TIP3    H277712   6.586   0.848  13.307 -0.2735 -0.7192 -1.2352
18741TIP3   OH277713   1.468   4.910   1.424 -0.2173  0.2041 -0.3799
18741TIP3    H177714   1.511   4.828   1.399 -0.0167  0.8244 -2.1652
18741TIP3    H277715   1.394   4.882   1.479 -0.6753 -1.2683 -1.6704
18742TIP3   OH277716   4.283   6.612   5.785 -0.2530  0.2575 -0.5347
18742TIP3    H177717   4.227   6.636   5.858  1.3274  1.6676  0.2946
18742TIP3    H277718   4.225   6.569   5.723 -1.8592  0.0363  1.0489
18743TIP3   OH277719   1.785   3.098  16.664  0.3177  0.4356 -0.3009
18743TIP3    H177720   1.729   3.094  16.586  0.0315  0.8742 -0.1229
18743TIP3    H277721   1.792   3.192  16.684 -0.2610  0.2854  0.6590
18744TIP3   OH277722   4.555   1.070   1.668  0.4107 -0.4139 -0.2614
18744TIP3    H177723   4.554   1.001   1.735  0.4085  0.2879  0.4813
18744TIP3    H277724   4.647   1.089   1.653  0.4286  1.0492  1.3004
18745TIP3   OH277725   0.797   4.280   3.675 -0.0132  0.1910 -0.0806
18745TIP3    H177726   0.874   4.291   3.620 -0.0467  2.6401  0.2686
18745TIP3    H277727   0.741   4.355   3.654 -0.7001  0.3904  2.2011
18746TIP3   OH277728   2.718   4.146   4.788 -0.3356 -0.0960  0.4849
18746TIP3    H177729   2.751   4.198   4.715  0.9200  0.2531  1.2784
18746TIP3    H277730   2.719   4.206   4.863  0.2692 -0.9936  1.2136
18747TIP3   OH277731   5.967   4.302  14.546 -0.0112  0.2592  0.6044
18747TIP3    H177732   5.914   4.381  14.558  0.8676  0.7509  1.3554
18747TIP3    H277733   5.914   4.232  14.583 -0.4242  0.6318  0.7294
18748TIP3   OH277734   1.069   6.234   0.516 -0.0302 -0.2431 -0.5523
18748TIP3    H177735   1.098   6.317   0.480  0.8752 -0.8372 -1.2437
18748TIP3    H277736   1.115   6.168   0.464 -1.2263 -1.1912 -0.4545
18749TIP3   OH277737   3.165   1.976   4.688 -0.0917 -0.4454  0.2681
18749TIP3    H177738   3.075   1.964   4.717 -0.6785  1.2355 -0.7514
18749TIP3    H277739   3.159   2.031   4.610  1.9185  1.3474  1.2537
18750TIP3   OH277740   1.518   5.529  14.041  0.0367  0.0424 -0.1725
18750TIP3    H177741   1.561   5.520  14.127  1.2298  0.6271 -0.6797
18750TIP3    H277742   1.573   5.479  13.982  0.2392  1.0974 -0.9118
18751TIP3   OH277743   4.678   5.452  12.395  0.7082  0.2003 -0.6962
18751TIP3    H177744   4.719   5.538  12.390  1.4670 -0.1258 -0.2208
18751TIP3    H277745   4.679   5.420  12.305  1.2564  0.3128 -0.7337
18752TIP3   OH277746   5.843   2.468  10.809 -0.0969 -0.3183 -0.0079
18752TIP3    H177747   5.876   2.383  10.782 -1.5664 -0.7135 -0.6380
18752TIP3    H277748   5.868   2.528  10.738 -0.4479 -0.5531 -0.3331
18753TIP3   OH277749   2.836   5.710  13.988  0.3813 -0.4621 -0.4090
18753TIP3    H177750   2.863   5.752  14.070  0.7556 -0.5286 -0.4967
18753TIP3    H277751   2.842   5.616  14.006  3.0079 -0.5399 -1.2930
18754TIP3   OH277752   4.680   6.125  13.909  0.6758 -0.3259 -0.6568
18754TIP3    H177753   4.682   6.030  13.923  0.1661 -0.3988 -1.0305
18754TIP3    H277754   4.706   6.162  13.993 -2.2160 -0.7496  0.5259
18755TIP3   OH277755   1.229   0.830  12.394  0.0023 -0.1723 -0.0627
18755TIP3    H177756   1.170   0.901  12.417  1.7600  1.8446 -1.3367
18755TIP3    H277757   1.264   0.855  12.308  1.8946 -1.7622  0.1775
18756TIP3   OH277758   2.352   6.641  15.966 -0.0010  0.1165 -0.0525
18756TIP3    H177759   2.405   6.564  15.989 -0.7834 -0.4939 -0.2655
18756TIP3    H277760   2.364   6.700  16.040  3.7010  1.5025 -1.5077
18757TIP3   OH277761   2.149   0.875   4.507  0.3290 -0.2993  0.3659
18757TIP3    H177762   2.068   0.889   4.557  0.3412 -0.6069  0.4771
18757TIP3    H277763   2.119   0.838   4.424  0.2443  0.9912 -0.1979
18758TIP3   OH277764   5.109   2.560   0.201  0.4266  0.0683 -0.6478
18758TIP3    H177765   5.051   2.623   0.244 -0.7707 -0.3499 -1.5864
18758TIP3    H277766   5.179   2.613   0.164 -0.3324  0.8138 -1.0509
18759TIP3   OH277767   2.267   0.503  15.195  0.3366  0.1542 -0.5214
18759TIP3    H177768   2.315   0.454  15.128 -1.0191  0.7872 -2.0323
18759TIP3    H277769   2.311   0.588  15.200 -0.2313  0.5201 -1.4732
18760TIP3   OH277770   5.492   5.717  12.330 -0.1154  0.1432 -0.9309
18760TIP3    H177771   5.555   5.660  12.373 -1.6071 -0.6695  0.3066
18760TIP3    H277772   5.429   5.657  12.289  0.1894  0.9193 -2.6220
18761TIP3   OH277773   1.887   4.882  15.586 -0.2529 -0.1620  0.4157
18761TIP3    H177774   1.959   4.946  15.586  1.0589 -1.5110 -1.3940
18761TIP3    H277775   1.896   4.836  15.669  0.1867  0.5238  0.7633
18762TIP3   OH277776   2.377   6.016   4.129  0.1826 -0.1800 -0.0741
18762TIP3    H177777   2.313   6.033   4.197 -0.9801 -1.2473 -0.8625
18762TIP3    H277778   2.438   6.089   4.135  0.1113 -0.2267  2.0708
18763TIP3   OH277779   6.349   1.734  16.378 -0.7359  0.1560 -0.0932
18763TIP3    H177780   6.404   1.679  16.323 -0.3783  1.9727 -1.6822
18763TIP3    H277781   6.268   1.744  16.327  0.0839  2.9141 -1.0049
18764TIP3   OH277782   4.531   4.125  11.225 -0.1932  0.4129 -0.6619
18764TIP3    H177783   4.533   4.172  11.309 -1.2507  0.6133 -0.7373
18764TIP3    H277784   4.602   4.061  11.233 -1.5826 -0.9920  1.2301
18765TIP3   OH277785   4.786   0.595   0.221  0.0764  0.1874 -0.1499
18765TIP3    H177786   4.833   0.518   0.251  0.0285 -0.0829 -0.7652
18765TIP3    H277787   4.782   0.652   0.298  0.1554 -0.3985  0.2895
18766TIP3   OH277788   2.262   6.365  14.228  0.6113  0.4372 -0.1700
18766TIP3    H177789   2.259   6.460  14.218 -0.5354  0.4314 -0.0426
18766TIP3    H277790   2.277   6.351  14.322 -1.2240  0.5213  0.1759
18767TIP3   OH277791   2.930   4.450   5.515  0.2882 -0.2490 -0.4251
18767TIP3    H177792   2.876   4.374   5.495  0.2095 -0.0317 -1.0838
18767TIP3    H277793   2.934   4.453   5.611 -0.6084 -0.4470 -0.3755
18768TIP3   OH277794   2.506   6.183   5.699 -0.7525  0.0464  0.4044
18768TIP3    H177795   2.508   6.128   5.777 -0.6120 -0.2850  0.1689
18768TIP3    H277796   2.422   6.162   5.657 -0.5607 -0.2202  0.1501
18769TIP3   OH277797   0.482   3.763   1.473 -0.7817  0.1824  0.6535
18769TIP3    H177798   0.472   3.831   1.405 -1.8980 -0.1372  0.4899
18769TIP3    H277799   0.528   3.692   1.428  2.1157  1.5102  1.3122
18770TIP3   OH277800   4.045   2.103  12.918 -0.8530 -0.3877 -0.3428
18770TIP3    H177801   4.011   2.151  12.843 -0.7387  0.0928 -0.0948
18770TIP3    H277802   4.120   2.054  12.883  0.0956  0.9504 -0.2648
18771TIP3   OH277803   4.789   1.108  13.734 -0.0611  0.4533 -0.2184
18771TIP3    H177804   4.815   1.139  13.647 -0.2264 -0.7136 -0.7010
18771TIP3    H277805   4.718   1.045  13.717  0.2838 -0.2120  0.7123
18772TIP3   OH277806   5.217   4.861  12.658 -0.3168 -0.1186  0.1561
18772TIP3    H177807   5.303   4.825  12.681  0.1245  0.2338 -0.9071
18772TIP3    H277808   5.158   4.826  12.726  0.9940  1.1934  2.0702
18773TIP3   OH277809   3.011   2.994  16.006  0.5503  0.1252  0.1522
18773TIP3    H177810   2.959   2.999  16.087 -0.0299  1.3723 -0.2812
18773TIP3    H277811   3.102   2.987  16.037  0.4589  1.8938  0.9375
18774TIP3   OH277812   3.591   4.591   2.839  0.5069  0.2995 -0.1879
18774TIP3    H177813   3.566   4.510   2.794 -0.7996  0.6293 -0.0716
18774TIP3    H277814   3.584   4.659   2.771 -1.4311  0.7928  0.4531
18775TIP3   OH277815   3.171   0.786   5.415 -0.5308 -0.1161  0.1288
18775TIP3    H177816   3.233   0.746   5.475  0.0638  0.3607 -0.1553
18775TIP3    H277817   3.108   0.716   5.394  0.5354 -0.9341 -0.4217
18776TIP3   OH277818   2.746   2.236  13.322  0.0803  0.2022  0.1645
18776TIP3    H177819   2.726   2.326  13.347 -1.8022  0.0788 -0.7385
18776TIP3    H277820   2.768   2.240  13.229  0.2623 -0.2522  0.1809
18777TIP3   OH277821   0.447   4.715   5.108 -0.0960  0.0411 -0.9122
18777TIP3    H177822   0.444   4.641   5.169 -1.5216  2.2099  1.8833
18777TIP3    H277823   0.355   4.730   5.084 -0.0439  1.8404 -0.1290
18778TIP3   OH277824   3.003   6.458   1.111 -0.0008 -0.3418 -0.1362
18778TIP3    H177825   2.939   6.411   1.057  0.6654 -1.9973  0.4371
18778TIP3    H277826   2.995   6.420   1.198 -1.7739  2.9950  1.3503
18779TIP3   OH277827   4.990   6.851  13.299  0.3120 -0.3076 -0.1400
18779TIP3    H177828   4.930   6.855  13.373 -2.0945  0.9869 -2.0456
18779TIP3    H277829   5.000   6.757  13.282 -2.7983 -0.6197 -0.9072
18780TIP3   OH277830   5.339   1.175  10.621  0.1583  0.0608 -0.3790
18780TIP3    H177831   5.345   1.098  10.565 -2.6530 -1.8579  1.7233
18780TIP3    H277832   5.245   1.191  10.631  0.5997  1.9253  1.6617
18781TIP3   OH277833   2.343   5.505   4.466 -0.2610 -0.4140  0.0482
18781TIP3    H177834   2.401   5.508   4.542  1.9409  0.3835 -1.5566
18781TIP3    H277835   2.309   5.416   4.465  2.3088 -1.4902  0.1553
18782TIP3   OH277836   5.751   0.500  11.238 -0.0900  0.9580 -0.0538
18782TIP3    H177837   5.693   0.517  11.163  0.2842  0.9251 -0.3513
18782TIP3    H277838   5.697   0.448  11.298 -0.2547  0.6075 -0.4983
18783TIP3   OH277839   5.586   0.713   0.468  0.0925  0.2713 -0.3418
18783TIP3    H177840   5.635   0.728   0.548 -1.3666  1.8754  0.3250
18783TIP3    H277841   5.652   0.692   0.402  1.4418  0.3071  0.9628
18784TIP3   OH277842   6.025   1.992   0.935  0.3352 -0.1386 -0.5017
18784TIP3    H177843   6.036   2.080   0.970 -0.5574  0.8288 -2.5237
18784TIP3    H277844   6.034   2.001   0.840 -0.5527 -2.0815 -0.8338
18785TIP3   OH277845   4.401   2.136  14.251  0.0605  0.1164 -0.0318
18785TIP3    H177846   4.487   2.108  14.220 -0.2393 -0.8587 -0.0048
18785TIP3    H277847   4.358   2.170  14.173  0.1655 -0.1679 -0.2145
18786TIP3   OH277848   1.898   0.076  13.808 -0.3063  0.3704  0.3988
18786TIP3    H177849   1.891   0.138  13.735  2.3283  0.4487  0.1185
18786TIP3    H277850   1.977   0.104  13.855  0.2673 -2.0460  0.9871
18787TIP3   OH277851   0.246   0.604  11.841  0.0060 -0.2939 -0.4143
18787TIP3    H177852   0.313   0.573  11.901  0.3670 -0.6719 -0.9978
18787TIP3    H277853   0.269   0.565  11.756 -0.4738  0.2432 -0.8064
18788TIP3   OH277854   0.716   3.391   4.832  0.1833 -0.0732  0.1243
18788TIP3    H177855   0.646   3.427   4.778 -1.5031 -0.8860  1.6677
18788TIP3    H277856   0.738   3.462   4.893  0.0671 -0.1299  0.2313
18789TIP3   OH277857   4.720   2.234   4.893  0.2137  0.0502 -0.5566
18789TIP3    H177858   4.759   2.318   4.868  2.7229 -0.8764 -0.0066
18789TIP3    H277859   4.730   2.180   4.815  3.1300 -1.1709  0.5173
18790TIP3   OH277860   0.398   2.644  12.560 -0.3157  0.2954 -0.1723
18790TIP3    H177861   0.491   2.664  12.573 -0.3598  0.4029 -0.0251
18790TIP3    H277862   0.353   2.693  12.628 -0.3281 -1.3433  1.0615
18791TIP3   OH277863   3.925   6.800   2.130  0.1230  0.0329 -0.0038
18791TIP3    H177864   4.008   6.800   2.177  0.0958  2.1013  0.1147
18791TIP3    H277865   3.859   6.786   2.198  0.2661 -0.1640  0.0972
18792TIP3   OH277866   0.140   5.039  16.262 -0.2382  0.3791 -0.0455
18792TIP3    H177867   0.121   5.130  16.283  1.1514  0.5607  0.4689
18792TIP3    H277868   0.103   4.989  16.335  2.0894  0.8090  1.5139
18793TIP3   OH277869   5.906   3.910  11.375  0.5122  0.3832 -0.3184
18793TIP3    H177870   5.913   3.953  11.460 -1.4005  0.0554  0.0376
18793TIP3    H277871   5.918   3.817  11.395  0.3555  0.3349 -0.4541
18794TIP3   OH277872   5.764   3.963   1.798  0.0064 -0.0595  0.7848
18794TIP3    H177873   5.716   4.027   1.746  0.2089 -0.8709 -0.4352
18794TIP3    H277874   5.837   4.013   1.836 -0.4392  0.6557  0.7249
18795TIP3   OH277875   6.238   0.311   3.559 -0.3086 -0.1382 -0.0741
18795TIP3    H177876   6.194   0.294   3.476 -1.4299 -0.9354  0.6461
18795TIP3    H277877   6.301   0.380   3.540 -0.0447 -0.7982 -1.7332
18796TIP3   OH277878   3.918   3.112   4.081 -0.0649  0.5156 -0.1024
18796TIP3    H177879   3.876   3.174   4.140 -4.0833  0.5241 -2.5495
18796TIP3    H277880   3.945   3.165   4.006 -0.2824 -0.1694 -0.6814
18797TIP3   OH277881   1.526   5.256   2.233  0.4118  0.1076 -0.4419
18797TIP3    H177882   1.534   5.221   2.322  0.3773  0.5528 -0.2568
18797TIP3    H277883   1.440   5.228   2.204  1.0103 -1.3145 -0.9130
18798TIP3   OH277884   4.765   4.270  10.983 -0.1623  0.3917  0.0448
18798TIP3    H177885   4.695   4.320  10.941  0.6839  2.1891  0.6675
18798TIP3    H277886   4.844   4.323  10.971  0.4221  0.2012  2.4035
18799TIP3   OH277887   3.627   1.912   1.330 -0.5311  0.0799  0.0185
18799TIP3    H177888   3.587   1.951   1.252 -0.1409  3.4764  1.3246
18799TIP3    H277889   3.721   1.920   1.315 -0.4480  1.4832  1.0712
18800TIP3   OH277890   4.460   3.552  13.582 -0.6571 -0.2899 -0.5952
18800TIP3    H177891   4.499   3.628  13.624  1.0239 -0.8046 -1.1421
18800TIP3    H277892   4.489   3.478  13.635 -0.2281 -0.7556 -1.4517
18801TIP3   OH277893   4.522   0.555  15.575  0.5200 -0.3918 -0.6508
18801TIP3    H177894   4.472   0.507  15.509  0.4183 -0.1624 -0.7415
18801TIP3    H277895   4.612   0.553  15.543  0.5482 -0.6952 -0.5532
18802TIP3   OH277896   5.977   0.649   1.163 -0.3440  0.1555 -0.3042
18802TIP3    H177897   5.898   0.701   1.174 -1.1984 -1.3369  0.9952
18802TIP3    H277898   5.957   0.566   1.205  2.6997  0.5267  2.3101
18803TIP3   OH277899   6.705   2.671  12.244  0.9058  0.0509 -0.0202
18803TIP3    H177900   6.619   2.631  12.234  0.7758  0.1759  0.6045
18803TIP3    H277901   6.764   2.597  12.258  0.6355  0.0765  1.3441
18804TIP3   OH277902   4.673   4.330  15.969  0.2044  0.1778 -0.0117
18804TIP3    H177903   4.663   4.260  16.034  0.7050  1.1279  1.1200
18804TIP3    H277904   4.636   4.293  15.889 -0.6177 -0.9650  0.8494
18805TIP3   OH277905   3.379   1.670  12.556  0.5494  0.3479 -0.4045
18805TIP3    H177906   3.333   1.728  12.495  2.1401  0.4436 -1.6016
18805TIP3    H277907   3.380   1.718  12.639 -2.2134 -0.0513 -0.0486
18806TIP3   OH277908   1.523   2.077  13.467 -0.4143  0.0726 -0.6305
18806TIP3    H177909   1.505   2.081  13.373 -3.5306  1.1633 -0.0999
18806TIP3    H277910   1.498   1.988  13.493  0.3381 -0.1916 -0.7823
18807TIP3   OH277911   1.460   5.801   1.029  0.2778  0.3051  0.3129
18807TIP3    H177912   1.484   5.894   1.020  1.1740  0.3775  2.8366
18807TIP3    H277913   1.383   5.791   0.973 -1.1379  3.1082  1.5470
18808TIP3   OH277914   6.344   6.252   1.420  1.0740 -0.2497 -0.3130
18808TIP3    H177915   6.320   6.163   1.394  0.5139 -0.2412  0.1419
18808TIP3    H277916   6.342   6.250   1.516 -0.3614  0.6061 -0.2972
18809TIP3   OH277917   2.560   3.642   1.386  0.4826 -0.2817  0.8643
18809TIP3    H177918   2.547   3.724   1.339  0.6706 -0.6062  0.2276
18809TIP3    H277919   2.583   3.668   1.475  1.1309  0.3635  0.5154
18810TIP3   OH277920   1.234   2.645  13.235  0.1518  0.2293 -0.5149
18810TIP3    H177921   1.258   2.695  13.313 -1.0297 -0.2031  0.1422
18810TIP3    H277922   1.275   2.560  13.247  0.7594  0.4639 -0.8388
18811TIP3   OH277923   2.341   5.250   3.713 -0.3204 -0.6541 -0.3557
18811TIP3    H177924   2.336   5.240   3.808 -1.0620 -1.8900 -0.5066
18811TIP3    H277925   2.425   5.210   3.690 -1.3802 -2.9446 -0.4875
18812TIP3   OH277926   0.893   4.662   0.644 -0.3152  0.1519 -0.0123
18812TIP3    H177927   0.897   4.584   0.700 -0.2069 -0.9112 -1.4389
18812TIP3    H277928   0.970   4.713   0.668 -0.2539 -0.3002  0.7822
18813TIP3   OH277929   6.541   6.494  11.829  0.1834 -0.3104  0.4931
18813TIP3    H177930   6.572   6.440  11.756 -1.5551 -0.9923  0.2081
18813TIP3    H277931   6.593   6.464  11.904  1.2840 -0.3101 -0.2440
18814TIP3   OH277932   0.619   0.849   2.633  0.1199 -0.3784  0.5278
18814TIP3    H177933   0.577   0.876   2.714  1.5459 -0.3910  1.2994
18814TIP3    H277934   0.566   0.776   2.601 -2.4178  1.6838 -0.3512
18815TIP3   OH277935   4.070   3.999   5.548 -0.3235  0.8186  0.4784
18815TIP3    H177936   4.074   3.934   5.478  1.1237  2.4700 -1.0729
18815TIP3    H277937   3.977   4.020   5.556 -0.6990 -0.6968  0.3210
18816TIP3   OH277938   1.625   3.658  13.768  0.1990 -0.1343  0.4104
18816TIP3    H177939   1.554   3.605  13.734  0.5456 -1.2975  1.4403
18816TIP3    H277940   1.584   3.742  13.791 -0.1391  0.5264 -2.2726
18817TIP3   OH277941   2.772   2.834   0.328  0.5695 -0.0439 -0.1633
18817TIP3    H177942   2.709   2.901   0.355  1.4773  0.3685  1.0168
18817TIP3    H277943   2.718   2.767   0.287 -0.5425  0.7087  0.0004
18818TIP3   OH277944   6.561   3.710  16.269  0.0145 -0.0803 -0.2539
18818TIP3    H177945   6.475   3.717  16.226 -0.2656  0.7452  0.4259
18818TIP3    H277946   6.622   3.743  16.203 -0.5375  2.2983  0.3394
18819TIP3   OH277947   1.952   2.941   0.032 -0.2148  0.6607  0.4996
18819TIP3    H177948   1.962   2.900  -0.054 -0.7996 -1.1242  1.2453
18819TIP3    H277949   1.976   3.033   0.017  2.3888 -0.1534 -0.9668
18820TIP3   OH277950   5.648   4.310   5.596 -0.3665  0.1785  0.2772
18820TIP3    H177951   5.593   4.235   5.619 -0.1834 -0.1260 -0.2856
18820TIP3    H277952   5.727   4.272   5.559 -1.3810  0.6307 -2.6325
18821TIP3   OH277953   2.632   4.976   1.835 -0.0841  0.1661 -0.8982
18821TIP3    H177954   2.609   4.966   1.743 -0.4283  1.4746 -0.9775
18821TIP3    H277955   2.674   5.062   1.840  1.4665 -0.5924 -0.1187
18822TIP3   OH277956   4.128   4.043  16.311  0.0205 -0.3240  0.1506
18822TIP3    H177957   4.178   3.968  16.280 -0.4461 -1.0296  1.0478
18822TIP3    H277958   4.106   4.022  16.402 -3.2157 -0.7845 -0.6011
18823TIP3   OH277959   5.053   4.497  11.664  0.6515 -0.1199  0.1684
18823TIP3    H177960   5.041   4.442  11.586  0.0986 -0.9792  0.8392
18823TIP3    H277961   5.036   4.586  11.633 -3.2680 -0.7414  0.0124
18824TIP3   OH277962   0.425   0.049   1.253  0.4700  0.2265 -0.1895
18824TIP3    H177963   0.379   0.110   1.311  1.4443  0.0221  0.8484
18824TIP3    H277964   0.431   0.094   1.170 -0.1627  0.9189  0.1345
18825TIP3   OH277965   6.177   2.611  10.729 -0.2458 -0.0757 -0.0812
18825TIP3    H177966   6.101   2.640  10.678 -0.2528  1.2842  0.6535
18825TIP3    H277967   6.145   2.538  10.781 -0.8221 -0.0543 -0.4007
18826TIP3   OH277968   5.649   2.424   5.797  0.0893  0.2890 -0.4648
18826TIP3    H177969   5.666   2.518   5.801  0.0899  0.2875 -0.4287
18826TIP3    H277970   5.595   2.406   5.875  0.7195  0.1313 -0.0540
18827TIP3   OH277971   6.837   3.124   3.337 -0.1696 -0.9723  0.5738
18827TIP3    H177972   6.781   3.165   3.403 -0.4079 -2.6445  1.4674
18827TIP3    H277973   6.776   3.071   3.285  0.4215 -2.1171  1.0085
18828TIP3   OH277974   2.805   2.898   4.691 -0.0094 -0.0802 -0.3001
18828TIP3    H177975   2.890   2.936   4.666 -0.7651  1.4927 -0.5886
18828TIP3    H277976   2.748   2.916   4.616 -0.8364 -0.3499  0.2486
18829TIP3   OH277977   3.188   4.842   0.051  0.4767 -0.2084  0.1208
18829TIP3    H177978   3.200   4.904   0.122 -0.4990 -0.0906  0.1956
18829TIP3    H277979   3.227   4.761   0.083 -0.1772 -0.2285  0.9004
18830TIP3   OH277980   3.651   6.296  15.866  0.2602  0.1441  0.0393
18830TIP3    H177981   3.557   6.296  15.854  0.1228  1.0312  0.9538
18830TIP3    H277982   3.679   6.384  15.838  0.6250  0.3311  0.9315
18831TIP3   OH277983   0.799   1.775  14.113  0.6943 -0.3318 -0.3504
18831TIP3    H177984   0.792   1.837  14.186  0.3421 -0.9200  0.1194
18831TIP3    H277985   0.785   1.689  14.153  2.2813 -0.8270 -0.8038
18832TIP3   OH277986   1.047   2.217   4.080 -0.3182 -0.5027 -0.3581
18832TIP3    H177987   1.097   2.298   4.094  1.7092 -1.4137 -1.7163
18832TIP3    H277988   1.093   2.152   4.133 -1.2103 -1.0039 -0.1945
18833TIP3   OH277989   0.223   0.666   1.573  0.5508 -0.0073 -0.6112
18833TIP3    H177990   0.284   0.601   1.610 -0.5883 -1.0095 -0.4162
18833TIP3    H277991   0.253   0.678   1.483  1.1624 -0.3283 -0.4612
18834TIP3   OH277992   3.414   2.226   0.306  0.0914 -0.4450  0.1301
18834TIP3    H177993   3.422   2.318   0.282  1.7406 -0.2605  1.1771
18834TIP3    H277994   3.365   2.186   0.234 -1.7773  1.4549  0.2430
18835TIP3   OH277995   1.812   5.557  15.569 -0.3802  0.0314  0.4179
18835TIP3    H177996   1.796   5.464  15.581  1.0040 -0.1854  0.8094
18835TIP3    H277997   1.832   5.589  15.657 -0.8253  0.7006  0.2855
18836TIP3   OH277998   1.450   6.715   1.148  0.3662 -0.4315  0.2900
18836TIP3    H177999   1.493   6.676   1.072 -0.3978 -0.3660 -0.1785
18836TIP3    H278000   1.452   6.809   1.132  0.2258 -0.4147  0.3655
18837TIP3   OH278001   2.824   0.392  12.689  0.5031  0.3951 -0.4418
18837TIP3    H178002   2.881   0.332  12.737 -0.5119  1.3802  2.2106
18837TIP3    H278003   2.851   0.479  12.719  0.0602  1.1066 -2.0196
18838TIP3   OH278004   2.974   3.839   3.660  0.2599 -0.2827  0.0590
18838TIP3    H178005   2.969   3.763   3.718  0.2739  0.6987  1.4112
18838TIP3    H278006   2.990   3.803   3.573 -1.3437 -1.9187  0.3836
18839TIP3   OH278007   1.518   1.204  15.256  0.4885  0.5211 -0.4079
18839TIP3    H178008   1.541   1.124  15.208 -0.3545  1.0968 -1.8216
18839TIP3    H278009   1.601   1.250  15.268  0.7829  0.1095 -0.8312
18840TIP3   OH278010   6.656   2.294   1.927  0.0292 -0.3911  0.2455
18840TIP3    H178011   6.681   2.260   2.013  2.0895  1.2884  0.3876
18840TIP3    H278012   6.736   2.335   1.893 -1.2926  0.8595 -1.5560
18841TIP3   OH278013   1.038   0.344  11.305  0.2877 -0.2233 -0.2434
18841TIP3    H178014   1.017   0.256  11.335  1.1841 -0.7121 -0.9759
18841TIP3    H278015   0.996   0.351  11.219 -2.8547  1.4157  1.3000
18842TIP3   OH278016   6.552   4.166  12.438  0.6392  0.2753 -0.2293
18842TIP3    H178017   6.584   4.163  12.528 -1.1680  1.5449  0.5083
18842TIP3    H278018   6.465   4.206  12.444 -0.4773 -1.5807 -2.2917
18843TIP3   OH278019   3.880   2.406  13.787 -0.0435 -0.1474  0.0877
18843TIP3    H178020   3.825   2.481  13.763 -0.5687 -0.2786  0.8509
18843TIP3    H278021   3.831   2.362  13.856 -0.3765 -1.9560 -1.2184
18844TIP3   OH278022   5.937   3.733  16.492 -0.2332 -0.2878  0.7002
18844TIP3    H178023   5.890   3.705  16.414 -0.5251  1.3129  0.2662
18844TIP3    H278024   5.869   3.756  16.555 -0.0954  1.8318  0.1431
18845TIP3   OH278025   0.346   5.883  11.296 -0.2644  0.1156 -0.2787
18845TIP3    H178026   0.311   5.814  11.240 -2.3540  1.2916 -0.5162
18845TIP3    H278027   0.272   5.910  11.350  0.8552  1.2876  0.7348
18846TIP3   OH278028   1.252   4.572   2.558  0.0785 -0.0583  0.5783
18846TIP3    H178029   1.236   4.634   2.487 -0.7036  0.0873  0.8717
18846TIP3    H278030   1.164   4.550   2.591  0.3456 -1.1902  0.5839
18847TIP3   OH278031   5.767   3.003  15.912 -0.2637 -0.0574  0.1155
18847TIP3    H178032   5.712   3.025  15.987 -2.5800  1.2269 -1.8038
18847TIP3    H278033   5.826   3.077  15.902 -1.3183  0.7316 -0.4650
18848TIP3   OH278034   1.653   5.579   5.919 -0.3100 -0.1812 -0.1651
18848TIP3    H178035   1.707   5.521   5.866 -0.3726 -0.2189 -0.1873
18848TIP3    H278036   1.707   5.658   5.930 -0.3667 -0.1021 -0.4363
18849TIP3   OH278037   6.256   6.784  14.830 -0.3832 -0.1847  0.8899
18849TIP3    H178038   6.181   6.738  14.868 -0.7783  0.1494  0.5126
18849TIP3    H278039   6.221   6.868  14.800 -0.1863 -0.6132 -0.6380
18850TIP3   OH278040   1.289   3.192  13.660 -0.0814  0.0428 -0.3947
18850TIP3    H178041   1.341   3.167  13.736 -0.3328  1.2525  0.1880
18850TIP3    H278042   1.354   3.208  13.591  0.1180 -1.6785 -0.6656
18851TIP3   OH278043   6.235   4.420  11.278  0.0538 -0.6160  0.5805
18851TIP3    H178044   6.167   4.472  11.320  0.0108  0.3145 -0.5994
18851TIP3    H278045   6.186   4.352  11.231 -0.1425  0.4045 -0.7549
18852TIP3   OH278046   4.393   3.639  16.383  0.1939  0.1907  0.8138
18852TIP3    H178047   4.322   3.579  16.361 -0.7804  1.0739  1.4483
18852TIP3    H278048   4.401   3.632  16.479 -0.0155  1.1682  0.9037
18853TIP3   OH278049   2.700   1.606   1.478  0.3303  0.4245 -0.4577
18853TIP3    H178050   2.767   1.543   1.451  1.5253  1.6323 -0.4382
18853TIP3    H278051   2.749   1.676   1.521 -0.6300  2.5230 -2.5143
18854TIP3   OH278052   3.822   4.428   4.020  0.0855 -0.9800 -0.0651
18854TIP3    H178053   3.869   4.399   4.099  1.0189  1.6192  0.4361
18854TIP3    H278054   3.887   4.477   3.970 -0.6990 -1.9753 -2.1371
18855TIP3   OH278055   1.694   4.462   4.557 -0.2563  0.4832  0.7623
18855TIP3    H178056   1.634   4.510   4.614  0.5583  1.3836  0.8861
18855TIP3    H278057   1.774   4.514   4.556 -0.4484  0.8714 -1.7483
18856TIP3   OH278058   5.964   5.934  16.863  0.2242 -0.2822 -0.2873
18856TIP3    H178059   5.966   5.882  16.944  0.1252 -0.4161 -0.3704
18856TIP3    H278060   5.930   6.019  16.891  0.3130 -0.2871 -0.1632
18857TIP3   OH278061   5.784   4.157   4.673 -0.2581  0.3256 -0.1584
18857TIP3    H178062   5.834   4.078   4.696 -0.7077 -0.4533 -1.6856
18857TIP3    H278063   5.701   4.147   4.720 -0.0735  0.2157  0.1506
18858TIP3   OH278064   4.770   0.015  11.797  0.2758 -0.0696 -0.1841
18858TIP3    H178065   4.772   0.103  11.761  0.2681 -0.8233 -2.1358
18858TIP3    H278066   4.861  -0.016  11.791  0.0024 -0.7491 -1.0265
18859TIP3   OH278067   2.388   4.020  14.385  0.0016 -0.1499 -0.5636
18859TIP3    H178068   2.386   3.933  14.343  1.3866  0.6934 -2.5548
18859TIP3    H278069   2.472   4.057  14.358 -0.6140  1.8705  0.1463
18860TIP3   OH278070   6.458   6.451   1.279 -0.1033  0.2455 -0.3235
18860TIP3    H178071   6.405   6.385   1.322  1.3682 -0.5409  0.3757
18860TIP3    H278072   6.425   6.534   1.311 -2.2690 -0.0697 -1.5437
18861TIP3   OH278073   1.114   0.018  11.070  0.3747 -0.0805 -0.0871
18861TIP3    H178074   1.185   0.050  11.126  0.0093  1.9165 -0.6699
18861TIP3    H278075   1.157  -0.043  11.010  1.2770 -0.1723  0.6228
18862TIP3   OH278076   2.793   2.169  14.919  0.0105 -0.1702 -0.5486
18862TIP3    H178077   2.778   2.081  14.885 -0.3493 -0.3746  0.1236
18862TIP3    H278078   2.856   2.157  14.990  1.5724  0.3878 -1.7778
18863TIP3   OH278079   4.256   4.206  14.241  0.4527  0.2457  0.1720
18863TIP3    H178080   4.314   4.200  14.165  0.2946 -0.6003  0.1204
18863TIP3    H278081   4.215   4.292  14.232  0.9555  0.4432 -0.3236
18864TIP3   OH278082   1.577   3.280  16.957  0.1569  0.1520  0.1077
18864TIP3    H178083   1.601   3.362  16.915  0.4570  0.4424  0.8367
18864TIP3    H278084   1.652   3.258  17.012  0.6189 -1.2536 -0.9935
18865TIP3   OH278085   3.864   4.866   4.627  0.3222  0.6103 -0.8226
18865TIP3    H178086   3.786   4.841   4.677 -0.5100  3.1713 -0.6989
18865TIP3    H278087   3.918   4.914   4.690  1.2474  0.2700 -1.3432
18866TIP3   OH278088   1.917   2.954   3.091  0.5468 -0.1890 -0.5787
18866TIP3    H178089   2.008   2.976   3.110 -0.0566  0.2893  2.1584
18866TIP3    H278090   1.893   3.011   3.018  1.7329  1.5385  0.3167
18867TIP3   OH278091   1.450   1.294  16.126 -0.3575  0.1893  0.2693
18867TIP3    H178092   1.450   1.364  16.059  0.3451 -0.6400 -0.6267
18867TIP3    H278093   1.516   1.322  16.190  1.8567 -0.8230 -1.4238
18868TIP3   OH278094   5.862   0.350   2.118 -0.8560 -0.0527  0.4397
18868TIP3    H178095   5.798   0.419   2.096 -0.0074  0.2551 -1.2427
18868TIP3    H278096   5.864   0.294   2.040  1.9506  0.7657 -0.1893
18869TIP3   OH278097   1.483   2.905   4.791  0.0815  0.3531  0.2847
18869TIP3    H178098   1.482   2.993   4.827  1.4449  0.8336 -0.7182
18869TIP3    H278099   1.573   2.875   4.805  0.4189  0.2134 -1.7598
18870TIP3   OH278100   2.006   1.256  11.633  0.0480 -0.4137  0.1374
18870TIP3    H178101   2.051   1.323  11.581 -0.6912 -1.4637 -1.9573
18870TIP3    H278102   1.934   1.303  11.675 -0.0189  0.2702 -0.7027
18871TIP3   OH278103   2.830   6.463   1.609  0.5667  0.3539 -0.2044
18871TIP3    H178104   2.828   6.536   1.547  0.7066 -0.4022 -1.1361
18871TIP3    H278105   2.755   6.409   1.583  1.4622 -0.7039 -0.6444
18872TIP3   OH278106   3.139   0.050  13.719 -0.3473 -0.1380  0.2966
18872TIP3    H178107   3.166   0.089  13.803  0.0615  0.7152 -0.2170
18872TIP3    H278108   3.043   0.053  13.722 -0.3376 -0.0952  0.7315
18873TIP3   OH278109   5.873   4.943  14.671 -0.1610  0.0490  0.4105
18873TIP3    H178110   5.960   4.981  14.678 -0.3392  0.3789  0.7974
18873TIP3    H278111   5.814   5.018  14.662 -0.4725 -0.1447  0.8150
18874TIP3   OH278112   1.288   4.418   4.646 -0.0406  0.4686 -0.1047
18874TIP3    H178113   1.215   4.450   4.700  0.2431 -1.6879  1.7322
18874TIP3    H278114   1.361   4.475   4.668 -1.1054  2.7655 -2.0933
18875TIP3   OH278115   3.055   3.871  16.385 -0.2385  0.5478 -0.2408
18875TIP3    H178116   3.144   3.847  16.358 -0.0722  1.1468 -0.2430
18875TIP3    H278117   3.002   3.796  16.361  0.2602  0.2087 -0.2998
18876TIP3   OH278118   6.435   3.104   2.002  0.5428 -0.0566  0.0845
18876TIP3    H178119   6.439   3.077   2.094 -0.7550  1.7232  0.7238
18876TIP3    H278120   6.412   3.197   2.005 -1.2914 -0.3578 -2.0611
18877TIP3   OH278121   3.970   5.280   3.489  0.4963  0.2884  0.2141
18877TIP3    H178122   3.912   5.332   3.433  0.7487  0.6898  0.3266
18877TIP3    H278123   3.962   5.191   3.454 -0.4493  0.2732  0.4461
18878TIP3   OH278124   0.704   0.913  15.955  0.1285 -0.2355 -0.1935
18878TIP3    H178125   0.733   0.993  15.997 -0.5615 -0.4814  0.7858
18878TIP3    H278126   0.734   0.843  16.013 -1.0811 -0.5704  0.0536
18879TIP3   OH278127   3.550   3.773  14.815 -0.5316  0.1498 -0.0975
18879TIP3    H178128   3.549   3.825  14.735 -0.1035  0.9337  0.3952
18879TIP3    H278129   3.458   3.764  14.838 -0.6733 -0.2660 -0.7876
18880TIP3   OH278130   1.717   6.305   1.778 -0.1245 -0.0183  0.2937
18880TIP3    H178131   1.722   6.334   1.687 -0.9732  0.9766  0.5525
18880TIP3    H278132   1.646   6.241   1.779 -2.3670  2.3119  0.8030
18881TIP3   OH278133   1.319   4.713  14.439 -0.0095  0.3162  0.8147
18881TIP3    H178134   1.408   4.709  14.474  0.3351  1.1768  0.0642
18881TIP3    H278135   1.314   4.798  14.395 -0.6723 -0.4270 -0.5981
18882TIP3   OH278136   3.058   2.983   2.857  0.3065 -0.4251 -0.5099
18882TIP3    H178137   2.991   3.007   2.922 -0.9932 -1.3442 -1.4575
18882TIP3    H278138   3.095   3.067   2.829 -0.3142  0.0969  0.1892
18883TIP3   OH278139   5.928   0.565   0.576 -0.4751  0.3096  0.3255
18883TIP3    H178140   5.872   0.628   0.622 -0.4511  0.0139  0.7757
18883TIP3    H278141   6.008   0.564   0.628 -0.2491  0.3522 -0.0260
18884TIP3   OH278142   2.116   1.675  16.857  0.5907 -0.7065  0.3948
18884TIP3    H178143   2.173   1.613  16.810 -2.0541 -1.6726 -1.8445
18884TIP3    H278144   2.034   1.628  16.869 -0.8591  1.6687  0.4966
18885TIP3   OH278145   1.173   3.095  15.974 -0.3923  0.5374 -0.0966
18885TIP3    H178146   1.086   3.117  16.008 -1.1370 -0.3866 -1.3365
18885TIP3    H278147   1.157   3.027  15.909  1.5344 -1.7204  1.5994
18886TIP3   OH278148   6.371   1.156  16.705 -0.3904 -0.4752  0.1081
18886TIP3    H178149   6.312   1.179  16.633 -1.5407 -2.7294  0.2247
18886TIP3    H278150   6.320   1.174  16.784 -0.0719 -0.3075  0.2749
18887TIP3   OH278151   3.752   6.829  13.146 -0.2259  0.3857  0.2409
18887TIP3    H178152   3.683   6.877  13.100 -0.2875  0.4679  0.4204
18887TIP3    H278153   3.833   6.867  13.113 -0.2842  1.2628  1.0786
18888TIP3   OH278154   1.494   1.903   3.220  0.6268 -0.5361 -0.0844
18888TIP3    H178155   1.550   1.906   3.297 -0.1641 -1.1820  0.5237
18888TIP3    H278156   1.503   1.814   3.186  1.5205 -0.0629 -1.1768
18889TIP3   OH278157   1.460   4.545  14.065 -0.0567  0.1625 -0.0999
18889TIP3    H178158   1.539   4.505  14.027 -0.4461 -0.5427 -0.1807
18889TIP3    H278159   1.457   4.632  14.025  1.1866  0.5524  0.6131
18890TIP3   OH278160   0.233   0.818  11.981 -0.4537 -0.5395  0.0249
18890TIP3    H178161   0.325   0.845  11.984 -0.8556  0.9729 -0.0829
18890TIP3    H278162   0.235   0.729  11.946  1.0225 -0.9241  0.9575
18891TIP3   OH278163   6.281   5.107   2.489 -0.2748  0.6158 -0.4935
18891TIP3    H178164   6.338   5.053   2.434  0.7190  0.1000  0.9657
18891TIP3    H278165   6.340   5.173   2.526 -0.0533 -1.1719  2.7019
18892TIP3   OH278166   2.861   1.575   3.009  0.1142 -0.4349  0.4334
18892TIP3    H178167   2.805   1.498   3.005 -0.3739 -0.0721 -3.1983
18892TIP3    H278168   2.800   1.648   3.020  0.1986 -0.3195  0.1521
18893TIP3   OH278169   5.730   6.387   5.466 -0.0328  0.1461 -0.1808
18893TIP3    H178170   5.744   6.448   5.394  0.2006  0.6712  0.3003
18893TIP3    H278171   5.641   6.354   5.453  0.2333 -0.2481 -1.0578
18894TIP3   OH278172   0.271   5.514  15.730 -0.9333 -0.4941 -0.5475
18894TIP3    H178173   0.204   5.580  15.713 -0.3038  0.5826  1.0186
18894TIP3    H278174   0.245   5.475  15.814  0.3539 -0.1116  0.0420
18895TIP3   OH278175   5.250   4.914   6.433 -0.3698  0.0410  0.2524
18895TIP3    H178176   5.341   4.943   6.420 -0.1582 -0.1626  1.2137
18895TIP3    H278177   5.197   4.984   6.394  0.1944 -0.0339 -0.6926
18896TIP3   OH278178   2.454   4.350   2.105  0.3119  0.4386 -1.1824
18896TIP3    H178179   2.444   4.405   2.027  2.4072  0.4765 -1.4915
18896TIP3    H278180   2.533   4.298   2.088  0.0905 -0.4843  0.3753
18897TIP3   OH278181   3.519   0.368   5.321 -0.8883  0.0028 -0.2639
18897TIP3    H178182   3.608   0.384   5.352 -0.7242  0.9203 -1.1493
18897TIP3    H278183   3.467   0.440   5.358 -1.2430 -0.4815  0.1821
18898TIP3   OH278184   6.032   6.642   1.792  0.1978 -0.0159  0.1241
18898TIP3    H178185   6.092   6.601   1.730 -0.3709 -0.8171  0.0892
18898TIP3    H278186   6.051   6.599   1.876 -0.8376 -0.8364 -0.0402
18899TIP3   OH278187   5.372   0.449  16.729 -0.4064  0.0787  0.4644
18899TIP3    H178188   5.350   0.373  16.783 -0.2333  0.1159  0.5886
18899TIP3    H278189   5.288   0.492  16.712 -0.9844 -1.7667 -2.1064
18900TIP3   OH278190   3.551   0.440  12.877  0.6316 -0.0201 -0.1119
18900TIP3    H178191   3.501   0.373  12.829 -1.6715  0.2471  1.7582
18900TIP3    H278192   3.533   0.521  12.829 -2.1741  0.3566  1.4158
18901TIP3   OH278193   4.197   3.431   5.124  0.1957 -0.0176 -0.4224
18901TIP3    H178194   4.185   3.449   5.031  0.8337  0.9815 -0.3157
18901TIP3    H278195   4.291   3.441   5.139  0.2572 -1.2471  0.1171
18902TIP3   OH278196   6.047   3.906   3.949  0.1255 -0.5476  0.0136
18902TIP3    H178197   6.058   3.837   3.884 -1.2027 -0.2780 -0.5294
18902TIP3    H278198   6.104   3.880   4.021 -0.1910 -2.0951 -0.2624
18903TIP3   OH278199   6.048   4.777   0.505  0.7301 -0.0628 -0.1192
18903TIP3    H178200   5.958   4.804   0.486  0.9155  0.0196 -0.9055
18903TIP3    H278201   6.041   4.725   0.585  0.0902  0.5803  0.2462
18904TIP3   OH278202   5.214   4.993   1.820 -0.0909  0.2516 -0.2490
18904TIP3    H178203   5.288   4.937   1.842 -0.4671 -0.6225 -1.1243
18904TIP3    H278204   5.238   5.080   1.853  2.4386  0.6161 -2.6914
18905TIP3   OH278205   6.310   1.532  10.827  0.2232  0.0425  0.4767
18905TIP3    H178206   6.351   1.585  10.759  1.3056  0.7271  1.6293
18905TIP3    H278207   6.249   1.475  10.779  1.7294 -0.2729 -1.1814
18906TIP3   OH278208   6.831   3.412  15.644 -0.7361 -0.6540  0.2665
18906TIP3    H178209   6.898   3.344  15.657  2.6251  2.3011  0.0632
18906TIP3    H278210   6.825   3.455  15.730 -0.4904  0.6675 -0.3611
18907TIP3   OH278211   6.288   1.937   3.510 -0.5336  0.1160  0.4208
18907TIP3    H178212   6.244   1.955   3.594 -0.6692  1.0127  0.1662
18907TIP3    H278213   6.242   1.993   3.447  2.0920  2.5154  0.4452
18908TIP3   OH278214   5.819   2.941   2.363  0.0863 -0.1791  0.6292
18908TIP3    H178215   5.850   2.852   2.345 -0.5357 -0.7588  2.2811
18908TIP3    H278216   5.737   2.948   2.314  0.5298 -0.2268 -0.1357
18909TIP3   OH278217   5.802   0.342  16.631  0.7859 -0.3321 -0.0593
18909TIP3    H178218   5.839   0.407  16.572 -0.4403  0.0954 -0.3761
18909TIP3    H278219   5.851   0.262  16.612  0.1453 -0.3252 -1.9780
18910TIP3   OH278220   5.072   5.120  12.643  0.4729 -0.3682  0.1733
18910TIP3    H178221   5.135   5.179  12.684  1.3470 -0.8334 -0.4649
18910TIP3    H278222   5.112   5.034  12.649  0.6726 -0.4523 -1.7039
18911TIP3   OH278223   0.833   0.728   2.052  0.6948 -0.2085 -0.1191
18911TIP3    H178224   0.917   0.765   2.078  1.2381 -0.4244 -1.4802
18911TIP3    H278225   0.804   0.677   2.128  0.4768  2.0085  1.3862
18912TIP3   OH278226   3.694   6.322   6.027 -0.4065 -0.2839 -0.1550
18912TIP3    H178227   3.605   6.356   6.037 -0.0040  0.7107  0.1742
18912TIP3    H278228   3.733   6.377   5.959  0.0303 -0.5664 -0.1352
18913TIP3   OH278229   0.507   4.088  13.764  0.2503  0.3270  0.4137
18913TIP3    H178230   0.522   4.175  13.801  0.9703  0.4233 -0.0897
18913TIP3    H278231   0.544   4.028  13.829 -0.3004  0.3875  0.7897
18914TIP3   OH278232   6.527   4.298  16.994  0.1140 -0.1389  0.1797
18914TIP3    H178233   6.481   4.237  16.936 -0.6298  1.2550 -0.7711
18914TIP3    H278234   6.605   4.323  16.944  2.6291 -3.2171  2.1550
18915TIP3   OH278235   3.186   0.580   5.159 -0.0864  0.4237  0.4621
18915TIP3    H178236   3.157   0.656   5.109  1.7278 -0.1999 -1.6560
18915TIP3    H278237   3.277   0.599   5.181  0.0418 -0.6557  0.9357
18916TIP3   OH278238   0.610   3.198   1.853 -0.2951  0.1153  0.7318
18916TIP3    H178239   0.673   3.161   1.791  0.4727  1.2273  0.8202
18916TIP3    H278240   0.625   3.150   1.935  1.6515  1.4889  1.2450
18917TIP3   OH278241   1.570   0.561  11.364  0.5950  0.1571 -0.1610
18917TIP3    H178242   1.650   0.605  11.335  0.5812  0.5923  0.4240
18917TIP3    H278243   1.522   0.630  11.411 -0.2108 -0.0459 -0.6661
18918TIP3   OH278244   0.574   5.355   3.396 -0.7961  1.1403  0.0030
18918TIP3    H178245   0.498   5.350   3.454 -1.1083  1.7022 -0.3568
18918TIP3    H278246   0.594   5.448   3.390  0.2863  0.9688  0.5532
18919TIP3   OH278247   1.410   1.753  13.148 -0.0355 -0.1883  0.0401
18919TIP3    H178248   1.448   1.831  13.187  1.5221 -0.5583 -0.6613
18919TIP3    H278249   1.457   1.680  13.189 -1.6642 -0.8066  0.9096
18920TIP3   OH278250   2.505   6.826  12.531 -0.4170  0.0099  0.1165
18920TIP3    H178251   2.541   6.788  12.611 -0.9037  0.3466  0.5009
18920TIP3    H278252   2.559   6.903  12.515 -1.1679  0.7086  0.8845
18921TIP3   OH278253   3.282   2.976   5.954  0.1555  0.1824  0.6652
18921TIP3    H178254   3.333   2.896   5.951  0.9461  0.6795  0.5305
18921TIP3    H278255   3.324   3.029   6.022 -0.6422  0.2960  1.0865
18922TIP3   OH278256   0.486   6.050   0.338 -0.2081  0.0154 -0.4696
18922TIP3    H178257   0.538   6.058   0.418  0.3504  0.7408 -0.8867
18922TIP3    H278258   0.417   6.116   0.348 -1.4136 -1.3096  0.3231
18923TIP3   OH278259   3.497   5.513   3.482  0.0727 -0.0342  0.1495
18923TIP3    H178260   3.445   5.443   3.522 -1.4862  0.2552 -1.2529
18923TIP3    H278261   3.484   5.588   3.540  1.2939 -0.7153  1.3548
18924TIP3   OH278262   0.955   4.141  11.698 -0.1627  0.4158  0.6598
18924TIP3    H178263   0.993   4.059  11.730 -0.9469  0.5334  1.9804
18924TIP3    H278264   0.980   4.145  11.606  0.4722 -0.9602  0.7465
18925TIP3   OH278265   1.637   2.697  13.783 -0.4666  0.8030  0.2736
18925TIP3    H178266   1.656   2.694  13.877 -2.2785  0.2388  0.6658
18925TIP3    H278267   1.604   2.610  13.762  1.5187  0.3415 -1.3152
18926TIP3   OH278268   4.163   1.162   1.691 -0.1563 -0.2841  0.1496
18926TIP3    H178269   4.110   1.182   1.614 -1.1101  1.0130  1.0883
18926TIP3    H278270   4.176   1.067   1.688 -0.4335 -0.2950 -1.4232
18927TIP3   OH278271   4.011   5.246  13.226  0.1974 -0.2881 -0.5732
18927TIP3    H178272   3.973   5.158  13.228 -0.4253 -0.0168 -0.0381
18927TIP3    H278273   3.950   5.300  13.276  1.2532  0.1860  0.2386
18928TIP3   OH278274   3.805   0.808  11.739  0.0123 -0.0103 -0.1680
18928TIP3    H178275   3.778   0.753  11.812  1.6214  0.7154  1.0285
18928TIP3    H278276   3.891   0.841  11.764 -1.1623  3.6799 -0.4508
18929TIP3   OH278277   3.554   5.750  13.606  0.2657 -0.1329 -0.1255
18929TIP3    H178278   3.587   5.803  13.678 -1.0251  2.4034 -1.2756
18929TIP3    H278279   3.496   5.685  13.648  1.0329  0.0409  1.2442
18930TIP3   OH278280   1.966   2.955   5.189  0.4739  0.9628  0.9785
18930TIP3    H178281   1.949   3.045   5.216 -0.7016  1.3299 -0.8102
18930TIP3    H278282   1.893   2.905   5.227 -0.6108  1.3102 -0.5782
18931TIP3   OH278283   2.317   5.032  11.598  0.1620 -0.1486 -0.5548
18931TIP3    H178284   2.393   5.023  11.541  1.5699  2.6974  0.6256
18931TIP3    H278285   2.355   5.052  11.684 -1.9130  0.4133  0.2898
18932TIP3   OH278286   3.521   4.907  14.849 -0.2646 -0.8291 -0.2845
18932TIP3    H178287   3.521   4.923  14.944  2.0909 -2.6121  0.1066
18932TIP3    H278288   3.482   4.821  14.840 -0.8865 -0.4785 -1.0073
18933TIP3   OH278289   5.695   6.569   5.651  0.0731  0.0149  0.2402
18933TIP3    H178290   5.740   6.495   5.611  1.3935 -0.3149  2.2444
18933TIP3    H278291   5.757   6.642   5.643 -0.9279  0.7838 -1.0662
18934TIP3   OH278292   4.267   2.526   1.967 -0.3401  0.4293  0.1186
18934TIP3    H178293   4.326   2.506   2.040 -0.3299 -2.4333 -0.5521
18934TIP3    H278294   4.180   2.505   2.000 -0.6300  1.4122  0.0185
18935TIP3   OH278295   0.596   3.252   2.292  0.0671 -0.1216 -0.2921
18935TIP3    H178296   0.573   3.342   2.268 -0.9229  0.4347  2.4582
18935TIP3    H278297   0.512   3.206   2.293 -0.1330  0.1292  2.7372
18936TIP3   OH278298   0.770   4.233  15.007 -0.1830  0.4838 -0.0906
18936TIP3    H178299   0.762   4.138  15.007 -2.2638  0.6260 -0.2292
18936TIP3    H278300   0.753   4.259  15.098 -0.9112  0.8104 -0.3177
18937TIP3   OH278301   5.250   0.523  15.166 -0.6505 -0.2846  0.0944
18937TIP3    H178302   5.251   0.495  15.075 -1.0645  0.8632 -0.2838
18937TIP3    H278303   5.158   0.546  15.183 -0.3138  0.9588  0.3302
18938TIP3   OH278304   4.986   5.817   5.879 -0.1844  0.3474 -0.0636
18938TIP3    H178305   5.045   5.891   5.870  0.0221 -0.0527 -2.4734
18938TIP3    H278306   4.935   5.815   5.798 -1.4542 -1.0857  0.6923
18939TIP3   OH278307   3.610   0.136   1.934 -0.2499 -0.1882  0.3646
18939TIP3    H178308   3.588   0.052   1.893  0.8363 -0.7154  0.8153
18939TIP3    H278309   3.672   0.176   1.874 -0.0240 -0.1492  0.6236
18940TIP3   OH278310   2.791   0.727  10.731 -0.2938 -0.1445 -0.1835
18940TIP3    H178311   2.747   0.732  10.647 -0.4455  3.0382 -0.0594
18940TIP3    H278312   2.853   0.800  10.730 -2.1905  1.8523  3.3533
18941TIP3   OH278313   5.979   1.645   0.392  0.0862  0.3203  0.0661
18941TIP3    H178314   5.967   1.737   0.369  1.9577  0.3426 -0.9949
18941TIP3    H278315   5.922   1.598   0.330  0.2661  0.6971 -0.3903
18942TIP3   OH278316   5.159   1.605  14.991 -0.5386  0.3260  0.5104
18942TIP3    H178317   5.203   1.666  14.931 -1.2421  1.9910  1.5910
18942TIP3    H278318   5.164   1.649  15.076 -1.7627 -0.7964  1.1900
18943TIP3   OH278319   1.992   2.990  11.108  0.0470  0.2501 -0.2450
18943TIP3    H178320   2.071   3.017  11.062 -0.7483  0.6408 -1.4024
18943TIP3    H278321   1.976   3.059  11.172 -0.6243  1.3517 -1.5597
18944TIP3   OH278322   5.020   1.514   2.686  0.5392  0.2556 -0.3518
18944TIP3    H178323   5.053   1.573   2.618  0.4928  1.0582  0.2998
18944TIP3    H278324   5.029   1.564   2.767  0.7955 -0.7665  0.2643
18945TIP3   OH278325   2.028   6.691   6.407 -0.0580  0.2745 -0.2151
18945TIP3    H178326   1.998   6.605   6.377  1.9309 -0.2883 -0.7334
18945TIP3    H278327   1.977   6.754   6.356  0.1604 -0.6383 -1.6163
18946TIP3   OH278328   3.940   5.236   5.571 -0.2070 -0.4993 -0.0649
18946TIP3    H178329   3.928   5.311   5.629  0.2416 -0.9348  0.6093
18946TIP3    H278330   4.010   5.185   5.611  0.8594 -0.2721 -1.5580
18947TIP3   OH278331   4.545   3.960  12.955 -0.3652  0.2067 -0.4238
18947TIP3    H178332   4.524   3.963  12.861  0.0324  1.3191 -0.4965
18947TIP3    H278333   4.534   4.050  12.984  0.0750 -0.0263  0.4825
18948TIP3   OH278334   3.602   5.187   5.671  0.3573 -0.1234 -0.0384
18948TIP3    H178335   3.567   5.105   5.705  0.5803  0.3582  1.4348
18948TIP3    H278336   3.697   5.176   5.675  0.3904  0.2678  0.3402
18949TIP3   OH278337   1.234   3.131   5.673 -0.5085  0.4079 -0.6196
18949TIP3    H178338   1.139   3.120   5.680 -0.0736 -3.4274  3.7215
18949TIP3    H278339   1.263   3.053   5.626  0.6093  0.3244  0.1855
18950TIP3   OH278340   0.687   0.991   2.245  0.3144 -0.6073  0.0425
18950TIP3    H178341   0.609   1.027   2.287  1.2146  1.0098  0.4072
18950TIP3    H278342   0.716   0.922   2.305 -1.0067 -1.4713 -0.2717
18951TIP3   OH278343   5.330   0.351  14.662  0.1548 -0.4016 -0.3443
18951TIP3    H178344   5.290   0.375  14.578  2.0515 -0.0460 -1.2027
18951TIP3    H278345   5.422   0.335  14.640  0.5793 -0.8085  1.5994
18952TIP3   OH278346   5.951   3.639   1.789 -0.2221  0.8142 -0.6965
18952TIP3    H178347   5.912   3.713   1.836 -0.9896  1.3440 -2.1274
18952TIP3    H278348   5.877   3.593   1.750  0.2693 -0.5697 -0.0923
18953TIP3   OH278349   1.119   1.714  13.746  0.0109 -0.0068  0.1308
18953TIP3    H178350   1.087   1.725  13.835  0.4466 -0.0261  0.2916
18953TIP3    H278351   1.157   1.627  13.745  0.1362  0.0498 -0.0343
18954TIP3   OH278352   4.171   5.256  11.413 -0.3015  0.2700  0.7656
18954TIP3    H178353   4.195   5.284  11.325  0.0663 -2.3945 -0.0656
18954TIP3    H278354   4.243   5.287  11.469  0.4809  0.2584 -0.2082
18955TIP3   OH278355   4.610   5.543  12.639  0.7253 -0.3729 -0.1267
18955TIP3    H178356   4.581   5.490  12.565  0.9147  1.6416 -1.7040
18955TIP3    H278357   4.702   5.516  12.653  1.3214  0.5981 -1.9374
18956TIP3   OH278358   5.949   6.694   5.609  0.4225  0.4716 -0.0169
18956TIP3    H178359   5.911   6.772   5.568 -0.7161  0.1801  0.4572
18956TIP3    H278360   6.040   6.718   5.625  0.6180  0.9820 -1.7060
18957TIP3   OH278361   2.970   1.577  12.031 -0.3029  0.7021  0.4083
18957TIP3    H178362   3.052   1.533  12.055 -0.1303 -1.1353 -3.0092
18957TIP3    H278363   2.904   1.535  12.086  0.7759  1.1504  2.1355
18958TIP3   OH278364   5.035   6.311  16.538  0.2458  0.7210 -0.2140
18958TIP3    H178365   4.983   6.376  16.585 -0.2181  0.2301 -0.0304
18958TIP3    H278366   4.972   6.267  16.481  0.7814  1.2405 -1.2205
18959TIP3   OH278367   6.327   1.017  12.212  0.3686  0.0598  0.5873
18959TIP3    H178368   6.340   1.111  12.215  0.7187 -0.0043  1.9452
18959TIP3    H278369   6.382   0.983  12.283 -0.7557 -1.0237  0.9787
18960TIP3   OH278370   3.436   1.936  12.064 -0.3745  0.0444 -0.3698
18960TIP3    H178371   3.429   1.871  11.995 -1.2562 -0.6344  0.3328
18960TIP3    H278372   3.346   1.948  12.095  0.0974 -0.3592  1.2730
18961TIP3   OH278373   1.454   1.605  13.746  0.0415 -0.4761 -0.2249
18961TIP3    H178374   1.368   1.565  13.728  0.0153 -0.9634  0.9024
18961TIP3    H278375   1.515   1.531  13.748  0.5772 -0.0868 -1.4351
18962TIP3   OH278376   6.033   5.385  15.028 -0.2785 -0.5953 -0.1779
18962TIP3    H178377   6.058   5.294  15.011  0.7267 -0.9489  2.6714
18962TIP3    H278378   6.117   5.430  15.043 -0.8607  0.3373  0.3748
18963TIP3   OH278379   5.347   5.188   3.901  0.1984 -0.0173  0.1145
18963TIP3    H178380   5.382   5.192   3.990  0.6988  0.4367 -0.1046
18963TIP3    H278381   5.252   5.183   3.913  0.3442 -2.5573  0.7586
18964TIP3   OH278382   6.618   0.929   0.420 -0.8207 -0.3306 -0.1009
18964TIP3    H178383   6.571   0.894   0.496  1.4996  1.8503  2.5312
18964TIP3    H278384   6.584   1.017   0.410  0.9078  0.4211  0.3146
18965TIP3   OH278385   0.436   5.076  15.022  0.0623  0.0788 -0.1165
18965TIP3    H178386   0.408   5.126  15.099  0.1856 -1.1813  0.7718
18965TIP3    H278387   0.358   5.028  14.995  0.3662 -0.5100  0.0424
18966TIP3   OH278388   0.367   6.383   2.140  0.0700  0.6224  0.3565
18966TIP3    H178389   0.273   6.400   2.131 -0.5504 -2.0195  0.9812
18966TIP3    H278390   0.408   6.441   2.076 -2.1439  0.4652 -1.3268
18967TIP3   OH278391   6.765   0.627  12.824  0.4206 -0.4961  0.3415
18967TIP3    H178392   6.753   0.638  12.919  0.1637  2.3901  0.0543
18967TIP3    H278393   6.842   0.679  12.804  0.7531 -1.4680 -1.0052
18968TIP3   OH278394   1.894   2.278  14.126  0.2428  0.1743 -0.4209
18968TIP3    H178395   1.978   2.323  14.138  0.5271 -0.5368  0.4453
18968TIP3    H278396   1.910   2.190  14.161 -0.4845 -0.3901 -1.4794
18969TIP3   OH278397   3.140   4.191   0.988 -0.0791  0.2224 -0.0421
18969TIP3    H178398   3.061   4.190   0.935 -0.9807  2.1590  1.1297
18969TIP3    H278399   3.179   4.277   0.970  2.4079 -1.0481 -1.3853
18970TIP3   OH278400   1.246   2.279  11.988 -0.1022 -0.0006 -0.1660
18970TIP3    H178401   1.270   2.252  12.077 -0.5977  0.9355  0.2695
18970TIP3    H278402   1.236   2.374  11.994 -2.4025 -0.1518 -0.6636
18971TIP3   OH278403   2.104   1.766   2.638  0.0290  0.1613  0.3499
18971TIP3    H178404   2.075   1.797   2.552 -0.2747 -1.1310 -0.0357
18971TIP3    H278405   2.024   1.739   2.683  0.1827  0.8341  1.0559
18972TIP3   OH278406   0.129   3.753  16.651 -0.4868  0.3572 -0.1686
18972TIP3    H178407   0.110   3.755  16.745 -0.4566  2.3224 -0.1708
18972TIP3    H278408   0.048   3.781  16.609 -0.5291 -0.5999 -0.7613
18973TIP3   OH278409   4.629   6.036  14.868  0.6504  0.2899 -0.7035
18973TIP3    H178410   4.667   6.004  14.949 -0.1391 -0.0881 -0.4699
18973TIP3    H278411   4.541   6.064  14.892  0.2547 -0.2192 -1.5107
18974TIP3   OH278412   0.006   0.600  14.964  0.2781 -0.2861 -0.1479
18974TIP3    H178413   0.003   0.665  14.895 -2.5086 -1.2718 -1.1219
18974TIP3    H278414   0.074   0.538  14.937  1.9825  1.4151  0.0966
18975TIP3   OH278415   5.517   0.598   5.114 -0.1548 -0.2644 -0.1275
18975TIP3    H178416   5.510   0.554   5.030  2.3840 -0.1456 -0.4824
18975TIP3    H278417   5.611   0.610   5.127 -0.5279  0.6376  2.2575
18976TIP3   OH278418   1.758   4.514  13.532  0.5529  0.0241  0.4079
18976TIP3    H178419   1.760   4.421  13.507  1.6392  0.1314  0.0575
18976TIP3    H278420   1.843   4.548  13.505  0.0511  1.2022  0.2701
18977TIP3   OH278421   5.371   2.031   0.996 -0.7716 -0.4576  0.9234
18977TIP3    H178422   5.374   1.994   1.085 -0.7015 -1.8240  0.3728
18977TIP3    H278423   5.318   2.110   1.005  0.3303  0.1652  2.4400
18978TIP3   OH278424   3.172   1.447   6.093 -0.9282  0.3288 -0.4896
18978TIP3    H178425   3.266   1.454   6.080 -0.7439  0.6891  0.8341
18978TIP3    H278426   3.144   1.536   6.113 -1.4942  0.1767 -0.6003
18979TIP3   OH278427   0.730   0.393  12.323 -0.2029 -0.3970 -0.0879
18979TIP3    H178428   0.784   0.320  12.355 -2.3838 -1.5065  1.3597
18979TIP3    H278429   0.641   0.366  12.342 -1.0875  3.2214  1.8074
18980TIP3   OH278430   3.065   2.919  15.045  0.1134 -1.0067  1.0863
18980TIP3    H178431   3.068   2.845  14.984 -3.0157 -1.7810  1.6902
18980TIP3    H278432   3.046   2.880  15.130  0.6359  0.3366  1.8589
18981TIP3   OH278433   0.848   1.809  10.371 -0.3286 -0.0634  0.2531
18981TIP3    H178434   0.936   1.806  10.332  0.0338  2.0457  0.8008
18981TIP3    H278435   0.864   1.831  10.463 -1.3637 -1.4577  0.7864
18982TIP3   OH278436   1.334   1.227   0.040  0.2455  0.4142  0.3425
18982TIP3    H178437   1.252   1.177   0.035  0.3078  0.2877  0.5812
18982TIP3    H278438   1.395   1.179  -0.017  0.6399 -0.4267  1.4292
18983TIP3   OH278439   1.425   2.387   4.101 -0.1035  0.4050  0.1758
18983TIP3    H178440   1.341   2.404   4.144  0.1622  0.5990  0.6270
18983TIP3    H278441   1.477   2.340   4.167 -0.1318 -0.4180 -0.3741
18984TIP3   OH278442   0.661   5.845  12.208  0.2474 -0.6529 -0.1367
18984TIP3    H178443   0.714   5.814  12.281  1.1304  0.0387 -0.4678
18984TIP3    H278444   0.627   5.930  12.237 -1.3878 -1.4306  0.3946
18985TIP3   OH278445   4.933   2.274   6.498 -0.1991  0.3703  0.7417
18985TIP3    H178446   4.884   2.201   6.537 -1.7514  0.9091 -0.1294
18985TIP3    H278447   4.980   2.313   6.572 -1.8959  0.4475  1.8339
18986TIP3   OH278448   3.665   0.389   2.762  0.2126  0.1589  0.0803
18986TIP3    H178449   3.714   0.366   2.683 -0.1655 -1.4108  0.2748
18986TIP3    H278450   3.577   0.355   2.747 -0.0208  0.3636  0.9359
18987TIP3   OH278451   3.118   2.325   1.525  0.0852 -0.0903 -0.1838
18987TIP3    H178452   3.213   2.328   1.527  0.0817  0.6404 -0.7102
18987TIP3    H278453   3.095   2.334   1.433 -0.5369  2.0666  0.1101
18988TIP3   OH278454   3.995   1.007   4.688  0.4277  0.4233  0.3283
18988TIP3    H178455   3.965   1.042   4.604 -0.5430 -1.0972 -0.0026
18988TIP3    H278456   3.918   1.013   4.745  0.3248 -0.7820  0.3574
18989TIP3   OH278457   4.160   5.193  15.970  0.0124  0.1972 -0.8097
18989TIP3    H178458   4.186   5.116  16.021 -0.6188  0.8776  0.6202
18989TIP3    H278459   4.207   5.265  16.011 -0.1083  0.7022 -1.5480
18990TIP3   OH278460   5.418   2.450   0.110  0.7603 -0.0941 -0.0309
18990TIP3    H178461   5.381   2.484   0.028  0.2526 -0.4336  0.0521
18990TIP3    H278462   5.469   2.374   0.082  1.3748  0.3550 -0.1420
18991TIP3   OH278463   1.424   4.133  13.954 -0.2310  0.0823 -0.4342
18991TIP3    H178464   1.464   4.160  14.037  0.2624 -1.6626 -0.0655
18991TIP3    H278465   1.498   4.107  13.899 -0.7154 -2.2032 -0.1077
18992TIP3   OH278466   3.500   5.847  13.100 -0.2777 -0.0375  0.1542
18992TIP3    H178467   3.469   5.830  13.011 -0.5992 -1.4841  0.5192
18992TIP3    H278468   3.583   5.800  13.106 -0.6757 -0.6681  0.8731
18993TIP3   OH278469   3.193   1.134   3.924  0.3128 -0.1542  0.4362
18993TIP3    H178470   3.274   1.101   3.885  0.7144  3.2694 -2.1034
18993TIP3    H278471   3.223   1.198   3.990 -0.2174  1.4447 -0.8103
18994TIP3   OH278472   6.363   1.451   3.635 -0.0711  0.8996  0.0916
18994TIP3    H178473   6.287   1.461   3.577  1.0093  1.9162 -1.2098
18994TIP3    H278474   6.326   1.458   3.723 -1.7797 -0.9150 -0.4201
18995TIP3   OH278475   6.248   2.539   3.396  0.8471  0.6072 -0.0551
18995TIP3    H178476   6.242   2.628   3.360 -0.2818  0.4985 -0.1542
18995TIP3    H278477   6.298   2.550   3.476 -0.7893  1.6540  0.8858
18996TIP3   OH278478   2.143   2.048  16.050 -1.1814  0.2727 -0.4828
18996TIP3    H178479   2.117   2.137  16.074  0.7103  0.8264 -0.3348
18996TIP3    H278480   2.207   2.060  15.980  2.1849 -0.6620  2.1549
18997TIP3   OH278481   6.265   4.739   1.314  0.0897  0.2136 -0.0584
18997TIP3    H178482   6.180   4.696   1.307 -0.7592  2.0166 -2.1689
18997TIP3    H278483   6.328   4.668   1.310 -1.2737 -1.0122 -1.9548
18998TIP3   OH278484   0.396   6.199  10.914  0.4137  0.3683 -0.0904
18998TIP3    H178485   0.437   6.123  10.956 -1.0556 -1.3668 -1.5723
18998TIP3    H278486   0.463   6.233  10.854  1.1537  0.3636  0.7252
18999TIP3   OH278487   1.641   5.545  12.128 -0.1097 -0.1257 -0.1282
18999TIP3    H178488   1.636   5.449  12.123  0.8265 -0.3029  1.4738
18999TIP3    H278489   1.676   5.562  12.216 -0.6744  1.7071 -0.2172
19000TIP3   OH278490   4.519   3.312  16.345  0.2585 -0.3417  0.3603
19000TIP3    H178491   4.589   3.351  16.292 -0.6820 -0.6496 -1.1361
19000TIP3    H278492   4.447   3.374  16.338 -0.4739 -1.2411 -0.1866
19001TIP3   OH278493   5.342   0.494  11.273 -0.5435  0.4982  0.3549
19001TIP3    H178494   5.350   0.503  11.368 -0.5257 -1.5545  0.6027
19001TIP3    H278495   5.425   0.453  11.246 -1.4154 -0.9595 -0.2062
19002TIP3   OH278496   1.241   4.931  16.907 -0.1514 -0.2664  0.3807
19002TIP3    H178497   1.197   4.992  16.966 -1.6782 -0.1584 -0.7788
19002TIP3    H278498   1.327   4.969  16.892  0.5367 -0.6180  2.9651
19003TIP3   OH278499   5.239   4.244  14.616  0.2403 -0.2204  0.4560
19003TIP3    H178500   5.300   4.298  14.566 -0.9452  0.5350 -0.2007
19003TIP3    H278501   5.246   4.276  14.706 -0.4217  1.0263  0.0812
19004TIP3   OH278502   2.361   1.472   2.692  0.1391  0.1889  0.0104
19004TIP3    H178503   2.361   1.560   2.653  1.5684 -0.8420 -2.5782
19004TIP3    H278504   2.449   1.462   2.728 -0.7728  0.6361  2.6025
19005TIP3   OH278505   6.749   0.674  15.797  0.7473 -0.3376 -0.0067
19005TIP3    H178506   6.784   0.585  15.795 -3.1690 -2.0573 -1.5144
19005TIP3    H278507   6.704   0.681  15.881 -0.9481 -0.7510 -0.8356
19006TIP3   OH278508   0.727   6.395  16.488  0.5404  0.0155 -0.1834
19006TIP3    H178509   0.660   6.369  16.551 -0.4173  0.0585 -1.1513
19006TIP3    H278510   0.703   6.350  16.407  0.4947  1.6329 -1.1171
19007TIP3   OH278511   1.303   5.119   2.219  0.5024 -0.1970  0.0409
19007TIP3    H178512   1.245   5.181   2.175  0.8444 -0.3171 -0.5867
19007TIP3    H278513   1.304   5.042   2.162  1.6496 -0.0194 -0.2045
19008TIP3   OH278514   1.922   3.814   1.645  0.0019  0.8247 -0.5819
19008TIP3    H178515   1.903   3.859   1.727 -0.0286  1.6122 -1.0158
19008TIP3    H278516   1.867   3.735   1.648 -0.4666  1.1621 -0.1232
19009TIP3   OH278517   4.410   4.687  13.167  0.1971  0.4653  0.1966
19009TIP3    H178518   4.346   4.728  13.108 -1.2107  1.6439  2.4078
19009TIP3    H278519   4.444   4.613  13.117 -3.1417 -0.4573 -1.0036
19010TIP3   OH278520   0.058   0.864   0.815  0.3932 -0.0578  0.1397
19010TIP3    H178521  -0.032   0.889   0.833  0.2982  1.8752 -2.5030
19010TIP3    H278522   0.062   0.856   0.720  2.6862 -1.5453  0.2909
19011TIP3   OH278523   1.960   4.816   3.989  0.4766 -0.2676  0.4095
19011TIP3    H178524   1.988   4.896   4.033 -1.0034  0.8974 -0.6664
19011TIP3    H278525   1.894   4.778   4.047  0.5366 -0.2301  0.5026
19012TIP3   OH278526   6.534   5.341   4.618  0.0886 -0.5018 -0.0324
19012TIP3    H178527   6.444   5.362   4.641  0.3336  2.0887 -1.0480
19012TIP3    H278528   6.586   5.384   4.686  0.5790 -0.4756 -0.4151
19013TIP3   OH278529   0.571   2.119   0.868  0.0433  0.2653 -0.4466
19013TIP3    H178530   0.580   2.027   0.844 -1.8053  0.2721 -1.3159
19013TIP3    H278531   0.585   2.121   0.963 -0.0048 -0.9240 -0.4069
19014TIP3   OH278532   5.399   5.364  11.269 -0.0867 -0.1249  0.2810
19014TIP3    H178533   5.309   5.384  11.296 -0.5290  2.6029 -2.5512
19014TIP3    H278534   5.391   5.284  11.217 -0.9614  0.2749 -0.2194
19015TIP3   OH278535   1.650   1.492  16.822  0.1380 -0.3592 -0.4633
19015TIP3    H178536   1.721   1.526  16.877  0.2355 -1.6032  0.2143
19015TIP3    H278537   1.687   1.487  16.734  0.3671  0.5089 -0.4250
19016TIP3   OH278538   5.691   3.910   2.104 -0.4629  0.6963  0.2840
19016TIP3    H178539   5.613   3.853   2.102 -0.8768  1.2594  0.1966
19016TIP3    H278540   5.697   3.945   2.015  0.1753  0.2901  0.1600
19017TIP3   OH278541   3.081   3.987   4.694  0.9652 -0.1530 -0.0967
19017TIP3    H178542   3.002   3.934   4.705  1.4655 -1.1638 -1.2067
19017TIP3    H278543   3.104   4.015   4.783 -1.2064  1.0614  0.1643
19018TIP3   OH278544   1.627   5.260  13.419  0.2456 -0.0213  0.0971
19018TIP3    H178545   1.588   5.348  13.424  0.9188  0.2954 -0.0866
19018TIP3    H278546   1.704   5.272  13.364  0.0415 -0.8424 -0.3827
19019TIP3   OH278547   5.903   5.132   2.248  0.0156  0.2125  0.4360
19019TIP3    H178548   5.946   5.167   2.326  1.1066 -1.0391  0.4320
19019TIP3    H278549   5.871   5.209   2.202  2.2713  1.2412  0.4411
19020TIP3   OH278550   6.365   6.026   5.857  0.0722  0.0370 -0.1588
19020TIP3    H178551   6.320   5.981   5.928  0.2184  0.9577  0.5440
19020TIP3    H278552   6.310   6.012   5.780 -0.5158 -0.2877  0.3167
19021TIP3   OH278553   3.712   3.296  11.380 -0.3293 -0.0306 -0.5194
19021TIP3    H178554   3.759   3.223  11.340 -1.9459  0.3392 -3.3275
19021TIP3    H278555   3.728   3.286  11.474  3.3684 -1.1974 -1.1203
19022TIP3   OH278556   1.592   6.257   0.430  0.5654 -0.0373  0.1212
19022TIP3    H178557   1.569   6.178   0.479 -0.5793 -0.7261 -1.4193
19022TIP3    H278558   1.564   6.237   0.340  0.7220  1.9314 -0.3924
19023TIP3   OH278559   4.335   4.905   5.156 -0.2042 -0.0418  0.4092
19023TIP3    H178560   4.330   4.902   5.061 -0.0704 -1.5851  0.4198
19023TIP3    H278561   4.247   4.881   5.186 -0.3347  0.7594  0.6731
19024TIP3   OH278562   0.982   4.345  14.710  0.0321  0.1230 -0.3116
19024TIP3    H178563   0.896   4.380  14.731  0.1710 -0.9575  2.4176
19024TIP3    H278564   1.035   4.423  14.692 -1.0450  0.9204 -0.1464
19025TIP3   OH278565   2.762   6.732  14.748 -0.5073  0.5590  0.1546
19025TIP3    H178566   2.704   6.718  14.823 -2.1969  2.9913 -0.5774
19025TIP3    H278567   2.703   6.749  14.674  1.1257  0.0807 -1.3377
19026TIP3   OH278568   0.729   0.571   1.827  0.2612  0.2228  0.0387
19026TIP3    H178569   0.814   0.551   1.788  0.7983 -0.4140  1.4321
19026TIP3    H278570   0.747   0.641   1.890 -0.6326  1.4377 -1.0159
19027TIP3   OH278571   3.790   2.206  14.398 -0.0394 -0.5397 -0.5446
19027TIP3    H178572   3.727   2.187  14.328 -0.8932  3.4108 -1.1178
19027TIP3    H278573   3.740   2.255  14.463  2.2331  2.8352 -1.0476
19028TIP3   OH278574   6.384   3.409   3.997  0.5267 -0.3242  0.0630
19028TIP3    H178575   6.415   3.360   4.073  0.8280  2.4362  1.9002
19028TIP3    H278576   6.289   3.399   4.000  0.5279 -0.2232  0.8593
19029TIP3   OH278577   3.165   2.655  15.879 -0.1790 -1.0190  0.5102
19029TIP3    H178578   3.089   2.712  15.893  0.9104  0.6290 -0.1442
19029TIP3    H278579   3.158   2.628  15.787  1.0139  0.6950 -0.1298
19030TIP3   OH278580   4.485   3.122  11.640 -0.1235  0.3250 -0.3133
19030TIP3    H178581   4.454   3.115  11.731  0.7823 -0.2048 -0.0363
19030TIP3    H278582   4.410   3.160  11.593 -1.2237 -0.9431  0.3237
19031TIP3   OH278583   5.228   4.224   1.376 -0.1617  0.2502 -0.3061
19031TIP3    H178584   5.291   4.267   1.434 -0.6299  0.1191  0.3063
19031TIP3    H278585   5.144   4.263   1.400 -0.4680 -0.3789 -0.3434
19032TIP3   OH278586   2.488   6.734   3.846 -0.0531  0.0285 -0.3842
19032TIP3    H178587   2.490   6.821   3.806 -0.5000  0.7976  1.1637
19032TIP3    H278588   2.419   6.688   3.798 -0.1124  0.6819 -0.9491
19033TIP3   OH278589   2.834   6.412  13.426  0.5355 -0.0897  0.4484
19033TIP3    H178590   2.789   6.485  13.469 -1.4316 -0.6049 -0.6343
19033TIP3    H278591   2.904   6.453  13.376  0.4893  0.8733  1.1331
19034TIP3   OH278592   0.317   5.323  16.388 -0.2714  0.4350  0.0302
19034TIP3    H178593   0.365   5.405  16.396  0.8244 -0.2354  0.6298
19034TIP3    H278594   0.226   5.349  16.375 -0.2100  1.7320  1.8397
19035TIP3   OH278595   2.966   6.764  13.226 -0.2981 -0.0751  0.1828
19035TIP3    H178596   3.007   6.746  13.141  1.2385 -0.1880  0.9053
19035TIP3    H278597   3.025   6.826  13.268  0.1478 -1.6229  2.0054
19036TIP3   OH278598   6.422   3.791   4.388  0.0300 -0.4519 -0.2162
19036TIP3    H178599   6.341   3.748   4.360 -0.7783  0.6657  0.3457
19036TIP3    H278600   6.415   3.797   4.483  0.5023  0.1678 -0.2129
19037TIP3   OH278601   3.717   2.556  12.880 -0.1941  0.2236  0.2633
19037TIP3    H178602   3.788   2.614  12.852 -0.5626 -0.3626 -2.1715
19037TIP3    H278603   3.750   2.468  12.862 -1.8289 -0.0339 -1.9075
19038TIP3   OH278604   2.640   1.736  16.808 -1.2048 -0.3081  0.0174
19038TIP3    H178605   2.573   1.767  16.869 -1.3795 -0.0235 -0.3148
19038TIP3    H278606   2.611   1.649  16.782 -1.2595 -0.3288  0.1494
19039TIP3   OH278607   1.816   4.151  13.546  0.5506 -0.3404 -0.1828
19039TIP3    H178608   1.838   4.058  13.539 -3.3807 -1.3740 -1.4735
19039TIP3    H278609   1.857   4.191  13.469  2.9475 -0.7177  0.8027
19040TIP3   OH278610   6.718   3.360   2.577 -0.6450 -0.3585 -0.1327
19040TIP3    H178611   6.781   3.384   2.508 -2.0993 -0.5462 -1.5796
19040TIP3    H278612   6.745   3.272   2.604  1.7772  0.8355  1.7792
19041TIP3   OH278613   3.911   3.667   5.983 -0.0649  0.0456  0.4771
19041TIP3    H178614   3.853   3.694   5.911 -0.2784 -0.2762  0.5245
19041TIP3    H278615   3.856   3.672   6.061 -0.1557 -0.6593  0.4676
19042TIP3   OH278616   3.789   0.318  13.904  0.0256 -0.0586 -0.2691
19042TIP3    H178617   3.863   0.373  13.878 -0.4841 -0.4012 -2.6658
19042TIP3    H278618   3.819   0.228  13.888  0.1980 -0.4394  1.8732
19043TIP3   OH278619   4.398   3.614   2.023  0.0318  0.3892 -0.3397
19043TIP3    H178620   4.458   3.638   2.094  0.1125  0.9037 -0.5738
19043TIP3    H278621   4.352   3.696   2.002  0.4992  0.4082 -1.3410
19044TIP3   OH278622   1.156   4.858  12.787  0.7150  0.0664 -0.6675
19044TIP3    H178623   1.180   4.931  12.844  0.6984  0.4018 -1.0959
19044TIP3    H278624   1.228   4.795  12.798  0.5730 -0.0053 -0.0529
19045TIP3   OH278625   1.731   1.409  13.866 -0.5729 -0.3638  0.3855
19045TIP3    H178626   1.671   1.386  13.795 -2.6138  0.1125  1.8626
19045TIP3    H278627   1.752   1.325  13.908 -2.9634 -0.3100  1.8892
19046TIP3   OH278628   6.197   4.725   1.698  0.1567  0.2937  0.3115
19046TIP3    H178629   6.288   4.754   1.690  0.7398 -1.6661 -0.7654
19046TIP3    H278630   6.186   4.658   1.630 -1.8429 -0.1368  0.9664
19047TIP3   OH278631   6.454   3.414   0.131 -0.0956  0.2200  0.4659
19047TIP3    H178632   6.532   3.469   0.130 -0.2382  0.5551  2.5956
19047TIP3    H278633   6.486   3.326   0.148 -0.1999  0.5525  2.6718
19048TIP3   OH278634   5.067   5.261   0.642 -0.1190 -0.1453 -0.4578
19048TIP3    H178635   5.136   5.207   0.604 -0.7540  0.4933 -2.6483
19048TIP3    H278636   5.101   5.350   0.638 -0.3522 -0.0220  0.1594
19049TIP3   OH278637   6.168   0.881   5.688  0.0980 -0.4259  0.3053
19049TIP3    H178638   6.215   0.876   5.771 -0.7320 -3.1820  0.7290
19049TIP3    H278639   6.221   0.828   5.628 -0.5637 -0.4715 -0.2461
19050TIP3   OH278640   3.219   3.275  15.650 -0.0397 -0.0133  0.4288
19050TIP3    H178641   3.213   3.319  15.565 -3.0790 -2.0434 -0.5848
19050TIP3    H278642   3.192   3.341  15.713  2.4054  1.5744 -0.0599
19051TIP3   OH278643   2.532   1.387  12.897  0.0363  0.3419  0.0490
19051TIP3    H178644   2.559   1.390  12.805 -0.4080 -0.0428 -0.0979
19051TIP3    H278645   2.480   1.466  12.910 -0.5366  0.0230 -0.2410
19052TIP3   OH278646   0.161   3.178   4.570 -0.1985 -0.1554  0.0400
19052TIP3    H178647   0.087   3.166   4.510 -1.3542 -2.1267  1.7473
19052TIP3    H278648   0.195   3.265   4.548 -2.6141  0.5697 -1.2390
19053TIP3   OH278649   5.053   0.521   2.112  0.5616 -0.1632 -0.0843
19053TIP3    H178650   4.989   0.467   2.158 -2.3636  2.0286 -1.3079
19053TIP3    H278651   5.039   0.500   2.019  3.0897 -1.0612 -0.3414
19054TIP3   OH278652   2.013   0.192   0.500  0.2444 -0.1637  0.0519
19054TIP3    H178653   1.934   0.210   0.551 -0.0499 -0.1843 -0.3999
19054TIP3    H278654   2.079   0.173   0.567  0.3403  1.6279  0.5248
19055TIP3   OH278655   0.800   3.110   2.781  0.2939  0.5502 -0.0107
19055TIP3    H178656   0.727   3.117   2.843  0.6831 -2.1914  0.9011
19055TIP3    H278657   0.759   3.080   2.699  0.3296 -1.0043  0.5043
19056TIP3   OH278658   3.485   5.094   0.937 -0.5661  0.2561 -0.2748
19056TIP3    H178659   3.567   5.045   0.939 -1.0209 -0.5787 -1.2658
19056TIP3    H278660   3.487   5.148   1.016  0.8204  0.0646 -0.1603
19057TIP3   OH278661   3.042   3.571  12.537  0.4742 -0.5390  0.0871
19057TIP3    H178662   3.033   3.606  12.449  0.9827 -1.0709 -0.1856
19057TIP3    H278663   3.136   3.553  12.546  0.6055  0.5685  1.1498
19058TIP3   OH278664   6.602   5.646   0.084  0.4790 -0.2326 -0.7121
19058TIP3    H178665   6.683   5.594   0.088  0.1609 -0.6765  0.4337
19058TIP3    H278666   6.631   5.737   0.086  0.9691 -0.3894 -0.6181
19059TIP3   OH278667   4.886   4.041   5.845  0.1440 -0.0158  0.2399
19059TIP3    H178668   4.850   3.962   5.806  0.5054  0.6408 -1.5110
19059TIP3    H278669   4.874   4.029   5.939  0.8411 -2.4595  0.0758
19060TIP3   OH278670   5.620   0.410   1.556  0.4863  0.3164  0.4647
19060TIP3    H178671   5.704   0.427   1.600  1.6209  2.1659 -2.1891
19060TIP3    H278672   5.569   0.364   1.622  4.1455 -2.5588  1.6753
19061TIP3   OH278673   3.822   6.249  13.468  0.3461  0.5167  0.1511
19061TIP3    H178674   3.755   6.268  13.403 -0.0639  1.5688  0.8567
19061TIP3    H278675   3.814   6.320  13.533  1.5923  0.2166  0.6692
19062TIP3   OH278676   5.359   6.333   3.486 -0.1401  0.1567 -0.0300
19062TIP3    H178677   5.293   6.391   3.523 -1.1287 -0.2295 -1.1042
19062TIP3    H278678   5.394   6.381   3.410 -1.4292 -0.8513 -1.3165
19063TIP3   OH278679   1.304   4.950  10.945 -0.1416 -0.3293 -0.4216
19063TIP3    H178680   1.322   5.016  10.878 -2.5146 -0.1775 -0.9938
19063TIP3    H278681   1.282   5.001  11.023 -3.8440 -0.1898 -1.3418
19064TIP3   OH278682   2.686   0.487   4.833  0.8245  0.4101  0.5789
19064TIP3    H178683   2.628   0.562   4.837  1.3526  1.0209 -1.4753
19064TIP3    H278684   2.768   0.517   4.873  0.5107  0.3699  1.2502
19065TIP3   OH278685   1.717   0.337  15.763  0.2848  0.2186 -0.0431
19065TIP3    H178686   1.647   0.379  15.714 -0.5695 -0.4551  0.5672
19065TIP3    H278687   1.707   0.244  15.745  0.2708  0.0038  0.9929
19066TIP3   OH278688   0.663   6.080   4.455  0.5749 -0.0495 -0.0679
19066TIP3    H178689   0.637   6.000   4.502  1.4338  0.7064  1.8154
19066TIP3    H278690   0.604   6.147   4.489  0.4418  0.3106 -0.9885
19067TIP3   OH278691   1.026   4.410  11.759 -0.5720 -0.0505  0.4009
19067TIP3    H178692   1.091   4.418  11.829 -0.2844  1.1849  0.0100
19067TIP3    H278693   0.998   4.319  11.763  1.1983 -0.6190  0.5578
19068TIP3   OH278694   3.347   0.872  16.791  0.5639 -0.7439  0.3331
19068TIP3    H178695   3.366   0.942  16.728 -1.7621  0.7222  1.1302
19068TIP3    H278696   3.359   0.791  16.741  0.6428  0.3133 -1.4409
19069TIP3   OH278697   1.346   5.658  14.195  0.3965  0.0056 -0.5502
19069TIP3    H178698   1.407   5.701  14.254  0.0099 -1.2604  0.8251
19069TIP3    H278699   1.402   5.608  14.135  0.7828  1.1545 -1.1760
19070TIP3   OH278700   0.886   3.803   0.315 -0.6148 -0.4334 -0.0339
19070TIP3    H178701   0.931   3.719   0.324 -0.4448 -0.3848 -0.4248
19070TIP3    H278702   0.900   3.829   0.224  0.4358  0.6377  0.4016
19071TIP3   OH278703   5.804   1.691  14.814 -0.2897 -0.2371  0.1667
19071TIP3    H178704   5.861   1.768  14.809  0.1446 -0.4875  1.0186
19071TIP3    H278705   5.833   1.635  14.741 -0.6248  0.4031 -0.4676
19072TIP3   OH278706   4.694   1.158  13.121  0.2523  0.1296  0.0196
19072TIP3    H178707   4.782   1.125  13.141  0.1460 -0.7585 -0.8589
19072TIP3    H278708   4.640   1.131  13.195  0.1308 -1.9186 -0.7592
19073TIP3   OH278709   4.671   2.839   4.862  0.6725  0.2893 -0.1481
19073TIP3    H178710   4.641   2.786   4.788  0.4185 -0.4946  0.5122
19073TIP3    H278711   4.596   2.844   4.921  1.4331 -0.7085  0.9627
19074TIP3   OH278712   3.259   2.407   4.821  0.0295 -0.3028  0.4908
19074TIP3    H178713   3.164   2.399   4.823  0.0531 -0.5741  0.5583
19074TIP3    H278714   3.280   2.423   4.729  0.0006 -1.3236  0.2939
19075TIP3   OH278715   5.193   1.729   1.112 -0.2250 -0.0197 -0.6732
19075TIP3    H178716   5.207   1.634   1.116  0.9314  0.1576  0.0306
19075TIP3    H278717   5.101   1.739   1.087 -0.6841 -1.3191  0.3926
19076TIP3   OH278718   2.867   6.594  12.393 -0.4436 -0.4182  0.1212
19076TIP3    H178719   2.889   6.675  12.439  0.1066  0.3893 -1.4645
19076TIP3    H278720   2.932   6.531  12.421 -2.4445 -1.2328  3.4882
19077TIP3   OH278721   2.576   0.297  16.425  0.0252  0.7846 -0.4231
19077TIP3    H178722   2.493   0.339  16.445  0.8024  1.0634  2.8788
19077TIP3    H278723   2.554   0.207  16.404 -1.0929  0.6328  1.2666
19078TIP3   OH278724   1.844   5.054  12.921 -0.6854 -0.3436 -0.3237
19078TIP3    H178725   1.833   5.068  12.827 -0.1736  1.9091 -0.1092
19078TIP3    H278726   1.934   5.084  12.939 -0.8358 -0.5823  0.8992
19079TIP3   OH278727   2.775   5.674  15.746  0.1931  0.9645 -0.1368
19079TIP3    H178728   2.843   5.607  15.747 -0.1178  0.6465  0.2827
19079TIP3    H278729   2.693   5.625  15.752  0.0053  1.4137  1.4473
19080TIP3   OH278730   0.398   0.423   1.474 -0.0949 -0.2712  0.1515
19080TIP3    H178731   0.429   0.484   1.408 -0.5561  0.0102  0.1871
19080TIP3    H278732   0.441   0.452   1.555 -0.0988 -0.1609  0.1150
19081TIP3   OH278733   3.105   3.717  14.639 -0.2444  0.4389  0.1923
19081TIP3    H178734   3.041   3.739  14.571 -1.7582 -0.9731  1.0534
19081TIP3    H278735   3.056   3.661  14.700  2.3056 -2.4381 -0.1390
19082TIP3   OH278736   2.088   1.145  15.353 -0.2180  0.3704  0.6538
19082TIP3    H178737   2.052   1.175  15.436  2.9975  1.4522  1.8296
19082TIP3    H278738   2.104   1.225  15.304 -2.1409 -0.2654 -1.1335
19083TIP3   OH278739   2.250   6.435  10.803 -0.4236  0.4316 -0.2138
19083TIP3    H178740   2.308   6.401  10.735 -1.6268  0.5745 -1.3578
19083TIP3    H278741   2.284   6.522  10.822  2.0389 -0.8621  1.9743
19084TIP3   OH278742   3.777   2.750  12.508 -0.1329 -0.3588 -0.2054
19084TIP3    H178743   3.723   2.752  12.587  0.4062  0.8744  0.1643
19084TIP3    H278744   3.750   2.671  12.462 -1.0787 -0.6334  0.7816
19085TIP3   OH278745   4.232   6.523  14.605 -0.5142  0.2944 -0.3707
19085TIP3    H178746   4.190   6.559  14.683 -0.3352 -1.1278  0.4176
19085TIP3    H278747   4.184   6.442  14.587  0.0271  0.1423 -1.2043
19086TIP3   OH278748   1.634   3.699  11.789 -0.8025  0.2519  0.2614
19086TIP3    H178749   1.682   3.639  11.731 -0.8560  1.4079 -1.0186
19086TIP3    H278750   1.702   3.738  11.844 -0.7653 -0.9433  1.1000
19087TIP3   OH278751   1.013   3.882  14.382 -0.5728  0.1306 -0.7390
19087TIP3    H178752   0.993   3.851  14.470 -2.5123  0.2030 -1.1253
19087TIP3    H278753   1.008   3.803  14.327 -1.4101  0.4077 -1.0816
19088TIP3   OH278754   4.256   4.561  11.570  0.0138 -0.7909  0.4351
19088TIP3    H178755   4.349   4.553  11.550 -0.2331  1.4270 -2.1971
19088TIP3    H278756   4.253   4.603  11.656  1.5144  0.5419 -0.1247
19089TIP3   OH278757   4.681   3.326   3.815  0.1098 -0.9537 -0.3977
19089TIP3    H178758   4.649   3.415   3.832 -2.5034 -1.8197 -0.3625
19089TIP3    H278759   4.758   3.338   3.760  0.6362  1.3743  0.7395
19090TIP3   OH278760   1.202   4.205  11.892 -0.3714 -0.1048 -0.0837
19090TIP3    H178761   1.180   4.132  11.835 -0.0208  0.3114 -0.7525
19090TIP3    H278762   1.200   4.167  11.980  1.4515 -1.3289 -0.5208
19091TIP3   OH278763   2.085   0.675  11.367  0.2408 -0.5274 -0.2427
19091TIP3    H178764   2.081   0.579  11.367 -1.4005 -0.5523  1.9978
19091TIP3    H278765   2.036   0.701  11.445 -0.3165  2.1921 -1.3611
19092TIP3   OH278766   2.885   1.404  13.763 -0.1198  0.2518  0.6455
19092TIP3    H178767   2.816   1.443  13.709 -0.2233 -0.7624  0.0136
19092TIP3    H278768   2.918   1.477  13.815 -3.1177  0.4150  2.5747
19093TIP3   OH278769   1.200   5.342   4.650  0.4079  0.1625  0.2183
19093TIP3    H178770   1.275   5.393   4.682  1.6398 -1.3146 -0.1836
19093TIP3    H278771   1.173   5.290   4.725  0.2294  0.1994  0.1783
19094TIP3   OH278772   0.267   4.507  12.200  0.0184 -0.1218  0.2327
19094TIP3    H178773   0.310   4.583  12.160 -0.6698 -0.1237 -0.5202
19094TIP3    H278774   0.337   4.464  12.249 -0.0435  2.2980  2.7098
19095TIP3   OH278775   3.770   2.018  12.743 -0.2942 -0.4150  0.2909
19095TIP3    H178776   3.788   1.928  12.716 -1.6933 -0.3104 -1.0833
19095TIP3    H278777   3.732   2.060  12.666  0.4486  1.4117  0.8551
19096TIP3   OH278778   4.425   0.030  16.929  0.3430  0.2372 -0.2123
19096TIP3    H178779   4.371   0.033  16.849  0.5085  1.3474 -0.3103
19096TIP3    H278780   4.470   0.115  16.929 -1.0601  1.0449  2.0306
19097TIP3   OH278781   0.145   5.248  16.757  0.5812  0.1667  0.6185
19097TIP3    H178782   0.100   5.289  16.831  1.8899 -2.7856  3.2593
19097TIP3    H278783   0.082   5.185  16.722 -0.3896  2.2054 -1.5883
19098TIP3   OH278784   6.711   0.472   4.216 -0.0424 -0.5429 -0.6316
19098TIP3    H178785   6.671   0.531   4.153 -1.0400  0.7060  1.0668
19098TIP3    H278786   6.780   0.524   4.258 -0.8295 -0.5731  0.7719
19099TIP3   OH278787   4.491   3.899  14.458  0.5445 -0.3296  0.1688
19099TIP3    H178788   4.428   3.866  14.522  1.0483 -2.0387 -0.1577
19099TIP3    H278789   4.566   3.928  14.510 -0.0162  0.6059  0.4824
19100TIP3   OH278790   6.309   5.805  15.411  0.3077 -0.0210  0.4282
19100TIP3    H178791   6.383   5.746  15.395  1.1897  1.1854 -0.0911
19100TIP3    H278792   6.238   5.769  15.359  1.0287 -0.2627 -0.4104
19101TIP3   OH278793   4.161   5.944   1.273 -0.2517 -0.4293 -0.4409
19101TIP3    H178794   4.114   5.877   1.223 -0.3796 -2.0470  1.7554
19101TIP3    H278795   4.193   6.005   1.206 -0.0302 -2.7081 -2.5307
19102TIP3   OH278796   3.190   5.061  16.347  0.2226  0.6488 -0.5537
19102TIP3    H178797   3.136   5.040  16.423 -0.4079  2.5388 -0.4386
19102TIP3    H278798   3.142   5.130  16.302  1.1362  0.3267 -2.0740
19103TIP3   OH278799   0.831   0.629   2.754  0.2373 -0.0703  0.2477
19103TIP3    H178800   0.756   0.667   2.798 -0.5723 -0.2757 -0.8965
19103TIP3    H278801   0.906   0.680   2.784 -0.4846  0.7264  0.7156
19104TIP3   OH278802   1.814   4.571  14.199 -0.1766 -0.4209 -0.0668
19104TIP3    H178803   1.755   4.498  14.216  0.2495 -0.4106  1.6246
19104TIP3    H278804   1.902   4.534  14.205  0.0713  0.3723  1.8258
19105TIP3   OH278805   1.541   1.095  11.869 -0.3256  0.1848 -0.2666
19105TIP3    H178806   1.628   1.076  11.836 -0.2212  0.3256 -0.0732
19105TIP3    H278807   1.555   1.138  11.954 -0.5937 -0.4670  0.1212
19106TIP3   OH278808   2.061   3.839  14.783 -0.1603 -0.2448  0.1469
19106TIP3    H178809   2.098   3.908  14.837 -1.3023  1.3432 -1.0373
19106TIP3    H278810   2.040   3.769  14.845  0.0249  0.8769  1.5231
19107TIP3   OH278811   0.351   2.816   4.276 -0.2268 -0.3904 -0.1463
19107TIP3    H178812   0.288   2.863   4.331 -0.0594 -0.5963  0.2230
19107TIP3    H278813   0.349   2.726   4.308  1.4542 -0.0745  0.9734
19108TIP3   OH278814   6.782   5.409  11.872  0.1197  0.0175 -0.0791
19108TIP3    H178815   6.719   5.379  11.938  1.2152 -0.1817  0.8934
19108TIP3    H278816   6.800   5.331  11.819 -1.3579  0.3578 -1.1597
19109TIP3   OH278817   0.831   5.785  11.960 -0.3454  0.1702  0.4033
19109TIP3    H178818   0.756   5.798  12.017 -0.0779  1.3085  0.5223
19109TIP3    H278819   0.831   5.861  11.902 -0.6640 -0.9886 -1.2050
19110TIP3   OH278820   6.842   4.390  13.304  0.2018 -0.4010 -0.0895
19110TIP3    H178821   6.870   4.451  13.372  0.3890 -0.3223 -0.2340
19110TIP3    H278822   6.793   4.322  13.351 -1.7597  0.8975 -0.1484
19111TIP3   OH278823   2.167   0.539   3.891  0.4723  0.2405  0.5597
19111TIP3    H178824   2.186   0.520   3.983 -0.4082 -0.9933  0.5131
19111TIP3    H278825   2.096   0.479   3.868  1.1128  0.0603 -1.1163
19112TIP3   OH278826   2.023   5.257  15.021  0.5721 -0.0398 -0.4620
19112TIP3    H178827   2.040   5.176  15.069  0.7585  0.7359  0.8112
19112TIP3    H278828   2.094   5.316  15.046 -0.9147  1.3782  0.6474
19113TIP3   OH278829   1.106   1.732  14.055 -0.3689  0.2539 -0.3946
19113TIP3    H178830   1.152   1.741  14.139 -2.1726 -0.3997  0.7183
19113TIP3    H278831   1.055   1.813  14.046  0.3760  0.6465 -1.2503
19114TIP3   OH278832   4.674   1.069   1.153 -0.7470  0.2322 -0.1361
19114TIP3    H178833   4.723   0.988   1.169 -0.8608  0.1112 -0.3790
19114TIP3    H278834   4.630   1.053   1.069 -0.5096  0.6768 -0.3483
19115TIP3   OH278835   2.350   0.325  14.292  0.4105 -0.3547  0.2124
19115TIP3    H178836   2.278   0.275  14.252 -0.0963  0.8985 -0.4799
19115TIP3    H278837   2.407   0.346  14.219  1.4598 -1.2592  0.7477
19116TIP3   OH278838   1.437   0.142  16.547 -0.8870  0.0545  0.2059
19116TIP3    H178839   1.518   0.170  16.591 -2.5459 -0.1251  3.7285
19116TIP3    H278840   1.458   0.055  16.512  0.4435 -0.0137  1.0884
19117TIP3   OH278841   0.448   2.768   3.951  0.5656 -0.1254 -0.1362
19117TIP3    H178842   0.524   2.786   4.006 -1.3273 -0.1294  2.7242
19117TIP3    H278843   0.405   2.694   3.993 -1.9664  0.9941 -0.5219
19118TIP3   OH278844   0.812   3.216  15.257  0.3916 -0.2626 -0.2681
19118TIP3    H178845   0.808   3.276  15.183 -0.7644  0.3505  0.2534
19118TIP3    H278846   0.895   3.169  15.247  0.8130  0.6733 -1.2678
19119TIP3   OH278847   3.837   3.358   2.106 -0.2955 -0.1132  0.0008
19119TIP3    H178848   3.774   3.286   2.108 -0.2883 -0.1341  2.4304
19119TIP3    H278849   3.887   3.344   2.025 -0.3631 -2.7725  0.3456
19120TIP3   OH278850   5.367   3.664  14.969 -0.0599 -0.0611 -0.5000
19120TIP3    H178851   5.363   3.601  14.897 -1.8559  3.2489 -3.6332
19120TIP3    H278852   5.307   3.630  15.035 -0.9361 -1.6304 -2.0347
19121TIP3   OH278853   5.767   0.290   2.728  0.1430  0.1973  0.0849
19121TIP3    H178854   5.774   0.251   2.641 -0.2449 -0.7227  0.4582
19121TIP3    H278855   5.780   0.384   2.713  0.5599 -0.0048 -0.8966
19122TIP3   OH278856   3.992   1.875   4.539 -0.2112  0.3706 -0.2022
19122TIP3    H178857   3.973   1.818   4.465  2.7620 -1.4748  0.2809
19122TIP3    H278858   4.083   1.902   4.525 -0.4387  2.2406  1.4044
19123TIP3   OH278859   0.630   1.465  12.432 -0.4006  0.4290  0.0096
19123TIP3    H178860   0.661   1.552  12.458  0.7919 -0.0082  0.1432
19123TIP3    H278861   0.689   1.405  12.477 -1.7362 -0.4899  0.6026
19124TIP3   OH278862   5.359   2.943  13.801  0.0510 -0.2702 -0.0508
19124TIP3    H178863   5.453   2.942  13.817 -0.1432  0.2945  1.2447
19124TIP3    H278864   5.348   3.004  13.728  0.6063  0.5303  0.5143
19125TIP3   OH278865   4.067   1.849   2.087 -0.3380 -0.1304  0.0847
19125TIP3    H178866   4.017   1.854   2.005  0.8787  2.3202 -0.6070
19125TIP3    H278867   4.029   1.917   2.142  0.7369  0.2251  0.4065
19126TIP3   OH278868   6.648   3.605   0.197 -0.0035  0.6269 -0.1294
19126TIP3    H178869   6.666   3.673   0.261 -0.1968 -0.9087  1.6360
19126TIP3    H278870   6.721   3.543   0.207 -0.3359  0.0680 -1.0111
19127TIP3   OH278871   4.465   1.223   2.851  0.0425 -0.0916  0.1497
19127TIP3    H178872   4.445   1.313   2.878  1.5493  0.8237 -1.5839
19127TIP3    H278873   4.383   1.191   2.812 -1.1375 -0.2618  2.5722
19128TIP3   OH278874   4.982   3.676   2.578 -0.2430  0.6569  0.0941
19128TIP3    H178875   4.938   3.602   2.620 -0.6677  0.6883 -0.2931
19128TIP3    H278876   5.059   3.692   2.633 -1.0319  1.0053  1.1245
19129TIP3   OH278877   6.461   3.944  13.015 -0.0703 -0.1590  0.1539
19129TIP3    H178878   6.503   4.025  13.043  0.7355 -0.5599  0.1608
19129TIP3    H278879   6.513   3.875  13.058 -1.0369 -0.6608  0.5402
19130TIP3   OH278880   0.643   6.648   1.131 -0.5696  0.6488  0.0338
19130TIP3    H178881   0.671   6.709   1.063 -0.1971 -0.2784 -0.6747
19130TIP3    H278882   0.547   6.652   1.129 -0.5633  2.1680  0.9202
19131TIP3   OH278883   3.299   0.885   1.106  0.0143  0.0392 -0.2926
19131TIP3    H178884   3.252   0.913   1.028  1.1957  0.4534 -0.8801
19131TIP3    H278885   3.231   0.874   1.173 -1.4820 -3.4946 -2.1424
19132TIP3   OH278886   2.257   0.149   0.635 -0.0881  1.4261 -0.2048
19132TIP3    H178887   2.313   0.206   0.687  0.7383  0.1802  0.3339
19132TIP3    H278888   2.276   0.061   0.668 -1.5191  0.8628 -0.8083
19133TIP3   OH278889   6.435   6.188   4.209  0.1720  0.0843  0.3447
19133TIP3    H178890   6.487   6.165   4.286 -1.0373  0.4100  1.2904
19133TIP3    H278891   6.386   6.109   4.188  1.2273 -0.3118 -0.7203
19134TIP3   OH278892   6.516   5.090  13.557 -0.1686 -0.5209  0.3659
19134TIP3    H178893   6.518   5.182  13.531 -0.2763 -0.8534 -0.8955
19134TIP3    H278894   6.484   5.091  13.647  0.6277  0.7237  0.6596
19135TIP3   OH278895   5.889   1.617   1.085  0.0932 -0.2116  0.2432
19135TIP3    H178896   5.831   1.694   1.087 -0.2722 -0.4989  0.7724
19135TIP3    H278897   5.843   1.554   1.030 -0.9698 -1.1155  2.0970
19136TIP3   OH278898   5.150   5.189   3.540  0.0570  0.2397 -0.1069
19136TIP3    H178899   5.106   5.240   3.607  0.5026  1.0003 -0.3730
19136TIP3    H278900   5.173   5.253   3.473 -0.5907 -0.5416 -1.1013
19137TIP3   OH278901   6.068   1.042   0.987  0.2443  0.5255  0.0991
19137TIP3    H178902   6.102   0.976   1.048 -0.3434  0.9039  0.8523
19137TIP3    H278903   5.974   1.042   1.001  0.0932  0.6104 -0.8386
19138TIP3   OH278904   2.910   6.206  16.723  0.3853  0.3927  0.1339
19138TIP3    H178905   2.882   6.144  16.655  1.4958 -0.5530  0.4981
19138TIP3    H278906   2.999   6.177  16.746  0.7207  1.8047  0.7054
19139TIP3   OH278907   5.622   6.133   2.549  0.0861  0.3608 -0.0218
19139TIP3    H178908   5.533   6.102   2.567  0.4572  0.2515  1.8616
19139TIP3    H278909   5.670   6.116   2.630  1.9784 -0.0524 -1.1743
19140TIP3   OH278910   5.707   5.929  11.934 -0.0636  0.3325 -0.1967
19140TIP3    H178911   5.685   6.008  11.885  1.2876  0.0726 -1.2670
19140TIP3    H278912   5.643   5.864  11.906  0.7944  0.1369 -1.7969
19141TIP3   OH278913   4.263   4.283  16.379  0.4121  0.1721 -0.1007
19141TIP3    H178914   4.207   4.211  16.347 -1.0686  0.9592  0.6223
19141TIP3    H278915   4.309   4.313  16.301 -1.3471  0.5014 -1.0733
19142TIP3   OH278916   1.875   3.919  15.125 -0.7900 -0.1497 -0.0302
19142TIP3    H178917   1.857   3.841  15.072 -1.2765 -0.6064  0.7815
19142TIP3    H278918   1.812   3.914  15.197 -0.1764  0.4753  0.5704
19143TIP3   OH278919   0.770   4.946  16.247  0.6681 -0.4362 -0.1801
19143TIP3    H178920   0.740   4.865  16.290 -0.4738 -0.5209 -1.1006
19143TIP3    H278921   0.710   4.958  16.173  3.8731 -1.5592 -3.2467
19144TIP3   OH278922   6.331   0.175   0.086  0.3344 -0.1626  0.6333
19144TIP3    H178923   6.311   0.263   0.118  0.0910  0.1410 -0.3390
19144TIP3    H278924   6.426   0.167   0.098  0.3017  0.0682  1.1032
19145TIP3   OH278925   1.500   3.570  14.510  0.0914  0.3878 -0.4218
19145TIP3    H178926   1.422   3.545  14.461 -0.5017  0.5552  0.4012
19145TIP3    H278927   1.541   3.638  14.457  1.2697 -1.6283 -2.2702
19146TIP3   OH278928   6.518   0.469   2.970  0.2340 -1.1121 -0.3406
19146TIP3    H178929   6.535   0.563   2.959 -0.6385 -0.9316 -0.1774
19146TIP3    H278930   6.574   0.427   2.905 -0.8651 -0.3760 -1.7981
19147TIP3   OH278931   0.895   5.149   1.667 -0.0451  0.4932 -0.7353
19147TIP3    H178932   0.903   5.155   1.571  0.0902  0.4192 -0.7290
19147TIP3    H278933   0.824   5.086   1.680 -0.0859  0.5282 -0.7881
19148TIP3   OH278934   5.028   5.442  11.971  0.5506  0.4134  0.5380
19148TIP3    H178935   5.010   5.351  11.949  2.4376 -0.2848  1.6667
19148TIP3    H278936   5.092   5.471  11.906  0.8419  0.5579  0.8847
19149TIP3   OH278937   4.095   1.135   5.075 -0.0882 -0.1027  0.2161
19149TIP3    H178938   4.136   1.158   4.992 -1.3292  0.5767 -0.2404
19149TIP3    H278939   4.020   1.194   5.082 -0.4177 -0.6264  1.4846
19150TIP3   OH278940   0.226   2.397  13.778 -0.0071  0.5903 -0.1655
19150TIP3    H178941   0.137   2.408  13.747 -1.0950 -0.4157  2.3202
19150TIP3    H278942   0.232   2.304  13.802  1.0581  1.0175  1.4299
19151TIP3   OH278943   5.631   4.111   1.602  0.4802  0.1157  0.2639
19151TIP3    H178944   5.580   4.047   1.553 -1.1205  0.4905  1.3491
19151TIP3    H278945   5.572   4.186   1.612  0.4026 -0.2374  3.3642
19152TIP3   OH278946   0.741   5.365  12.116  0.4399  0.3081  0.2671
19152TIP3    H178947   0.806   5.299  12.092 -1.0806 -1.5614  1.0460
19152TIP3    H278948   0.784   5.417  12.185  1.8864  0.5974 -0.7963
19153TIP3   OH278949   0.848   6.337   1.585  0.2745  0.3246 -0.6042
19153TIP3    H178950   0.882   6.266   1.531  1.0477  0.5345 -0.4081
19153TIP3    H278951   0.885   6.321   1.672  1.0747  1.3793 -0.7327
19154TIP3   OH278952   0.445   2.427  15.974  0.1846  0.0926  0.1791
19154TIP3    H178953   0.478   2.343  15.942  0.7811 -0.0478  1.1192
19154TIP3    H278954   0.518   2.488  15.961  0.2774  0.1303  0.8359
19155TIP3   OH278955   4.930   6.357  15.167  0.0766  0.1233  0.2283
19155TIP3    H178956   4.872   6.318  15.232  1.0197 -1.3133  0.2616
19155TIP3    H278957   4.925   6.451  15.183  0.5812 -0.2036  2.6728
19156TIP3   OH278958   6.044   0.557   0.136 -0.9372 -0.3362  0.0563
19156TIP3    H178959   6.041   0.476   0.186 -1.0557 -0.4109 -0.0716
19156TIP3    H278960   6.085   0.532   0.053 -0.7237 -0.2096  0.1231
19157TIP3   OH278961   1.094   2.945   2.482 -0.3993 -0.1356 -0.2356
19157TIP3    H178962   1.011   2.980   2.451 -1.8924 -2.3888  0.9505
19157TIP3    H278963   1.073   2.905   2.567  1.6953 -1.5656 -0.3163
19158TIP3   OH278964   3.462   2.372   4.301 -0.2742  0.1874 -0.0032
19158TIP3    H178965   3.472   2.407   4.212  0.4710 -0.9736 -0.4008
19158TIP3    H278966   3.525   2.299   4.305  0.2362  0.6823  1.7223
19159TIP3   OH278967   1.232   2.689   5.023 -0.2719 -0.1179 -0.0468
19159TIP3    H178968   1.253   2.595   5.028 -0.7729 -0.2354 -0.1109
19159TIP3    H278969   1.302   2.726   4.969 -0.8457 -0.6943 -1.2193
19160TIP3   OH278970   3.279   4.127  11.992 -0.1335  0.0419  0.4979
19160TIP3    H178971   3.250   4.191  12.056  2.0628 -0.7871  2.4965
19160TIP3    H278972   3.374   4.138  11.988 -0.0229 -1.0784 -1.3733
19161TIP3   OH278973   0.163   0.744   5.758 -0.0127  0.2852 -0.1161
19161TIP3    H178974   0.140   0.819   5.812 -1.7203 -0.5355  0.3417
19161TIP3    H278975   0.171   0.671   5.819 -3.8081 -1.0856 -0.9856
19162TIP3   OH278976   2.757   0.972  13.444 -0.4805  1.0959  0.8450
19162TIP3    H178977   2.765   0.954  13.351  0.9817  1.4501  0.8743
19162TIP3    H278978   2.810   0.904  13.487  0.1491  1.8554  1.3065
19163TIP3   OH278979   4.118   6.756  11.838  0.0637 -0.1500 -0.5032
19163TIP3    H178980   4.094   6.849  11.847 -1.6291 -0.6185  0.1466
19163TIP3    H278981   4.209   6.758  11.809  0.1527  1.7172 -0.2369
19164TIP3   OH278982   5.508   6.224  13.651 -0.2541  0.5126  0.6643
19164TIP3    H178983   5.468   6.240  13.566 -1.7777  2.6588  1.7041
19164TIP3    H278984   5.447   6.164  13.695  0.5439 -0.6136  0.3017
19165TIP3   OH278985   5.314   4.377   2.664  0.0703  0.1075  0.1181
19165TIP3    H178986   5.301   4.340   2.751 -0.5275 -1.3635 -0.5552
19165TIP3    H278987   5.392   4.334   2.630 -0.9155 -0.9994 -0.8717
19166TIP3   OH278988   4.435   3.848  13.622  0.2911  0.0410  0.0268
19166TIP3    H178989   4.406   3.870  13.710  1.1569 -3.4952  1.4020
19166TIP3    H278990   4.358   3.808  13.581  0.3216  0.2352 -0.2171
19167TIP3   OH278991   2.496   0.716   2.362 -0.1090 -0.1414  0.0906
19167TIP3    H178992   2.430   0.671   2.414 -0.0610 -0.7274 -0.3621
19167TIP3    H278993   2.513   0.797   2.411  1.3944 -1.5640  2.1135
19168TIP3   OH278994   4.437   2.754   1.122  0.3169 -0.1375  0.2165
19168TIP3    H178995   4.372   2.787   1.060  0.2033  1.1561  0.9959
19168TIP3    H278996   4.521   2.781   1.085  0.2703  0.2941  0.4203
19169TIP3   OH278997   1.209   6.841   6.111  0.1617  0.5240 -0.0103
19169TIP3    H178998   1.153   6.764   6.109 -0.5233  0.9680  1.3384
19169TIP3    H278999   1.157   6.910   6.070  0.5465  0.4341 -0.6715
19170TIP3   OH279000   5.525   3.940  16.284 -0.3796  0.0744 -0.0182
19170TIP3    H179001   5.566   3.859  16.316 -2.8798 -1.6979 -0.9499
19170TIP3    H279002   5.440   3.943  16.328  0.4233  3.4070  1.5922
19171TIP3   OH279003   3.693   6.608  13.271  0.4117  0.3194 -0.1288
19171TIP3    H179004   3.776   6.616  13.317  1.1608  1.3227 -1.5597
19171TIP3    H279005   3.700   6.671  13.199 -0.8148 -0.9236 -1.3990
19172TIP3   OH279006   4.529   1.438   0.010  0.1793 -0.1397 -0.3536
19172TIP3    H179007   4.590   1.374  -0.027  0.5350 -0.0596  0.0945
19172TIP3    H279008   4.575   1.476   0.084 -1.2165 -1.6229  1.3696
19173TIP3   OH279009   6.150   2.994  10.165  0.0569  0.2264  0.1407
19173TIP3    H179010   6.213   2.929  10.134  0.9978  1.4263 -0.5497
19173TIP3    H279011   6.197   3.077  10.158 -1.9302  1.2878 -1.3527
19174TIP3   OH279012   3.389   3.258   0.929 -0.3611 -0.1541 -0.5430
19174TIP3    H179013   3.424   3.170   0.931  1.1733  0.4380  0.0646
19174TIP3    H279014   3.453   3.311   0.976 -0.8204  1.4367 -1.6089
19175TIP3   OH279015   4.923   2.430  10.493  0.4514  0.0431 -0.6311
19175TIP3    H179016   4.868   2.351  10.495  1.7555 -1.1599  4.6111
19175TIP3    H279017   4.861   2.502  10.508 -0.2534 -0.8437  1.0855
19176TIP3   OH279018   2.503   2.805  14.165 -0.8341 -0.4589 -0.2511
19176TIP3    H179019   2.519   2.858  14.243 -0.9394 -0.3709 -0.2888
19176TIP3    H279020   2.431   2.747  14.190 -0.3634 -0.9585 -0.0333
19177TIP3   OH279021   5.996   0.699   1.568  0.5710  0.0465  0.2311
19177TIP3    H179022   6.074   0.748   1.542  0.2156  0.4988  0.0151
19177TIP3    H279023   5.968   0.655   1.487  1.0501 -0.7544  0.4832
19178TIP3   OH279024   2.054   5.128  12.688 -0.2932  0.3723  0.0128
19178TIP3    H179025   2.100   5.087  12.616  0.4378 -1.0642  1.2399
19178TIP3    H279026   1.963   5.135  12.658 -0.5390 -2.4904 -0.1704
19179TIP3   OH279027   1.940   0.964  16.048  0.3709  0.4321 -0.3217
19179TIP3    H179028   1.934   0.876  16.083  1.8074  0.0904 -0.8724
19179TIP3    H279029   2.029   0.992  16.067 -0.0812  1.7917 -0.1013
19180TIP3   OH279030   1.085   1.059  12.719  0.1558  0.6741 -0.3086
19180TIP3    H179031   1.167   1.019  12.749  2.1858  3.3611 -1.8242
19180TIP3    H279032   1.064   1.013  12.637 -0.2351 -0.4065  0.3727
19181TIP3   OH279033   2.356   0.774  15.197  0.2443  0.0581 -0.4702
19181TIP3    H179034   2.276   0.792  15.245 -0.3928 -1.0526 -1.0694
19181TIP3    H279035   2.405   0.856  15.200 -1.1316  0.9129 -0.5044
19182TIP3   OH279036   4.211   6.677   3.702 -0.1288 -0.6093 -0.0477
19182TIP3    H179037   4.226   6.701   3.793  0.4569  0.4352 -0.3959
19182TIP3    H279038   4.124   6.711   3.682  0.9181  1.9099 -0.7015
19183TIP3   OH279039   6.297   4.617  11.089 -0.3082 -0.2310  0.0696
19183TIP3    H179040   6.289   4.692  11.148  0.0440  0.1457 -0.3599
19183TIP3    H279041   6.315   4.543  11.148  1.1603  0.3239  0.3692
19184TIP3   OH279042   6.328   4.673  13.740  0.2845 -0.2706 -0.0934
19184TIP3    H179043   6.366   4.727  13.670 -0.9074  0.1666 -0.4423
19184TIP3    H279044   6.317   4.733  13.813 -1.3692  0.1155 -0.5962
19185TIP3   OH279045   4.084   5.553   3.907 -0.2533  0.1712 -0.4190
19185TIP3    H179046   4.163   5.581   3.861 -0.5152 -1.5279 -1.9935
19185TIP3    H279047   4.111   5.474   3.955 -0.4630  0.8614  0.8870
19186TIP3   OH279048   2.692   1.124   2.883  0.4416  0.2541 -0.0431
19186TIP3    H179049   2.734   1.039   2.900 -0.4822 -0.4693 -1.2982
19186TIP3    H279050   2.600   1.104   2.872  0.4644  1.1426 -2.2817
19187TIP3   OH279051   6.256   1.811  14.386 -0.3274  0.0446  0.0446
19187TIP3    H179052   6.256   1.779  14.476  1.0561  2.0154  0.8260
19187TIP3    H279053   6.344   1.794  14.353 -0.1144  1.3086 -0.1248
19188TIP3   OH279054   1.051   3.889   3.877  0.5450 -0.1384 -0.1438
19188TIP3    H179055   0.974   3.907   3.822 -0.1408  1.9112  1.3637
19188TIP3    H279056   1.017   3.835   3.949  0.8240 -0.3647 -0.1787
19189TIP3   OH279057   3.572   0.884  13.655  0.0651 -0.1888  0.8725
19189TIP3    H179058   3.476   0.884  13.664  0.0973 -1.0375  1.2974
19189TIP3    H279059   3.598   0.795  13.679  0.9660  0.0409  0.7645
19190TIP3   OH279060   1.306   0.237  11.502  0.1695 -0.1757 -0.1950
19190TIP3    H179061   1.323   0.209  11.412 -1.5517 -1.4850 -0.1679
19190TIP3    H279062   1.290   0.331  11.495 -0.8451 -0.4085 -1.4225
19191TIP3   OH279063   6.626   5.738   4.178 -0.1384 -0.4770 -0.3979
19191TIP3    H179064   6.652   5.789   4.254  0.0248 -0.0619 -0.7244
19191TIP3    H279065   6.678   5.658   4.183  1.0576  0.2308 -0.9042
19192TIP3   OH279066   2.870   0.286   5.756 -0.2435  0.5444 -0.1540
19192TIP3    H179067   2.805   0.346   5.790  0.5639  1.2146  0.2444
19192TIP3    H279068   2.936   0.279   5.825  1.0232  1.3146 -1.2373
19193TIP3   OH279069   6.844   5.479  13.233 -0.3311 -0.8741  0.6781
19193TIP3    H179070   6.778   5.545  13.210  1.7060  0.7585 -0.9386
19193TIP3    H279071   6.810   5.398  13.196 -1.8672 -0.3073  0.7416
19194TIP3   OH279072   4.144   4.923   3.726 -0.2018 -0.0945 -0.2786
19194TIP3    H179073   4.072   4.897   3.668  1.2240 -2.3458 -1.1761
19194TIP3    H279074   4.222   4.882   3.688  1.8824  3.3086 -0.1198
19195TIP3   OH279075   1.727   5.960   4.088 -0.1865 -0.5258 -0.0176
19195TIP3    H179076   1.655   5.897   4.095 -0.5769  0.0926  3.3818
19195TIP3    H279077   1.698   6.023   4.023 -2.0430 -1.1386  0.1721
19196TIP3   OH279078   4.584   1.931   5.384 -0.0643  0.0528 -0.1803
19196TIP3    H179079   4.673   1.910   5.412  0.6605  1.5168 -1.2448
19196TIP3    H279080   4.528   1.891   5.450  1.2542 -2.7184 -0.5760
19197TIP3   OH279081   4.272   4.173   2.513 -0.2540 -0.4226 -0.5061
19197TIP3    H179082   4.301   4.082   2.524  1.6115  0.2970  1.3071
19197TIP3    H279083   4.178   4.170   2.529  0.1030 -1.7673  1.9443
19198TIP3   OH279084   3.660   1.839   4.213  0.1344  0.4967 -0.0412
19198TIP3    H179085   3.575   1.797   4.226  0.2951 -0.4909 -1.8822
19198TIP3    H279086   3.672   1.893   4.291 -2.1823  0.6886  0.2407
19199TIP3   OH279087   6.431   4.654   0.763  0.0711 -0.0249 -0.0737
19199TIP3    H179088   6.442   4.748   0.748  0.8014 -0.0051  0.5256
19199TIP3    H279089   6.340   4.644   0.789  0.2427  0.6639  0.8382
19200TIP3   OH279090   2.405   2.829   0.921  0.2057 -0.6165 -0.1311
19200TIP3    H179091   2.393   2.763   0.989 -0.5700  0.4352  0.7932
19200TIP3    H279092   2.358   2.906   0.954  3.4202  1.3739  0.2163
19201TIP3   OH279093   1.938   5.491  11.526  0.3678  0.1773 -0.1501
19201TIP3    H179094   1.876   5.436  11.479  1.0590 -1.3198  0.6401
19201TIP3    H279095   1.953   5.446  11.609  2.3681  0.5775 -0.2386
19202TIP3   OH279096   1.362   2.471   1.721  0.7940 -0.2909  0.0791
19202TIP3    H179097   1.318   2.480   1.805  0.6956  1.7882 -0.1378
19202TIP3    H279098   1.310   2.406   1.673 -0.9455  0.6832  0.5504
19203TIP3   OH279099   3.399   5.220   1.189  0.3417 -0.3222 -0.3033
19203TIP3    H179100   3.430   5.229   1.279  0.5210 -1.6468 -0.2027
19203TIP3    H279101   3.349   5.139   1.189 -0.5403  0.2026 -1.1712
19204TIP3   OH279102   4.882   2.688  15.541  0.2719 -0.1620  0.3705
19204TIP3    H179103   4.850   2.692  15.450 -0.2653  0.1380  0.5710
19204TIP3    H279104   4.939   2.611  15.542 -1.9653 -1.9362  0.4624
19205TIP3   OH279105   0.819   4.861  12.724  0.0274 -0.3213  0.2835
19205TIP3    H179106   0.877   4.849  12.798  0.3896  1.4364  0.3352
19205TIP3    H279107   0.871   4.834  12.648  1.1742  1.7453  0.2680
19206TIP3   OH279108   3.512   6.200  13.764  0.0127 -0.0633  0.1395
19206TIP3    H179109   3.514   6.246  13.680 -1.7894  1.1113  0.6841
19206TIP3    H279110   3.430   6.228  13.805  1.0905 -0.1793  2.5297
19207TIP3   OH279111   2.327   2.621   1.326 -0.8879  0.1138 -0.1337
19207TIP3    H179112   2.355   2.680   1.396 -0.3823  0.4486 -0.6070
19207TIP3    H279113   2.277   2.553   1.370  1.2325 -0.8915  0.8828
19208TIP3   OH279114   3.574   6.657  11.792 -0.4720 -0.7051  0.2589
19208TIP3    H179115   3.529   6.723  11.740 -1.0152  1.1226  2.8690
19208TIP3    H279116   3.665   6.687  11.795 -0.4003 -0.9174  0.1835
19209TIP3   OH279117   3.604   1.143  16.919  0.0988 -0.2743 -0.0642
19209TIP3    H179118   3.682   1.157  16.972 -0.6676  0.5485  0.8634
19209TIP3    H279119   3.551   1.081  16.969 -0.2620 -0.1218 -0.2511
19210TIP3   OH279120   3.481   2.188  14.086  0.0751  0.0688  0.6231
19210TIP3    H179121   3.474   2.136  14.166  1.9948  0.2475  0.9577
19210TIP3    H279122   3.446   2.274  14.109 -2.0939 -0.7010  0.3869
19211TIP3   OH279123   2.417   4.272   4.562 -0.2009 -0.3065 -0.2991
19211TIP3    H179124   2.328   4.276   4.528 -0.5687 -1.2020  0.4894
19211TIP3    H279125   2.409   4.299   4.654  0.0588 -1.8137  0.2015
19212TIP3   OH279126   6.750   6.673   5.578 -0.5581 -0.2550  0.3602
19212TIP3    H179127   6.816   6.647   5.642  0.1711  0.6154 -0.0232
19212TIP3    H279128   6.731   6.593   5.529  0.6860 -0.3768  0.0532
19213TIP3   OH279129   0.447   5.047   2.892  0.3323 -0.6178  0.1259
19213TIP3    H179130   0.478   5.029   2.981  1.1664 -0.6819 -0.1698
19213TIP3    H279131   0.357   5.080   2.904  0.5016 -0.4474  1.0018
19214TIP3   OH279132   5.051   4.365   4.004  0.3165 -1.0111  0.1646
19214TIP3    H179133   5.099   4.448   4.006 -0.2345 -0.6256 -1.4304
19214TIP3    H279134   5.107   4.306   3.954  0.1354 -1.2438  0.2360
19215TIP3   OH279135   2.840   6.450   5.767 -0.1507 -0.3218 -0.2524
19215TIP3    H179136   2.845   6.380   5.702  1.6898 -0.8156  0.3628
19215TIP3    H279137   2.827   6.403   5.850  1.8020 -0.0385  0.2591
19216TIP3   OH279138   4.923   6.003  15.345  0.4120  0.3335 -0.0002
19216TIP3    H179139   4.945   5.911  15.355  0.0354  0.2158 -0.2316
19216TIP3    H279140   4.847   6.016  15.402 -1.2787 -0.1660 -1.9800
19217TIP3   OH279141   2.185   5.091   4.867 -0.0811  0.2690  0.2034
19217TIP3    H179142   2.181   5.125   4.956 -0.4591 -0.4919  0.4874
19217TIP3    H279143   2.128   5.014   4.868  0.7800 -0.3932 -0.4079
19218TIP3   OH279144   2.824   6.557   2.839  0.6589 -0.0190 -0.1667
19218TIP3    H179145   2.877   6.572   2.917  1.6321 -1.5350 -0.5122
19218TIP3    H279146   2.870   6.604   2.769  2.5151 -2.5778 -0.7975
19219TIP3   OH279147   2.647   2.054  16.516 -0.2300 -0.0343  0.5842
19219TIP3    H179148   2.555   2.072  16.535 -0.5179 -2.6161  2.0399
19219TIP3    H279149   2.645   2.003  16.434 -0.2500 -1.1626  1.2660
19220TIP3   OH279150   5.410   0.237   0.321 -0.5103  0.1080  0.1487
19220TIP3    H179151   5.339   0.301   0.321 -0.0970  0.5798 -0.2012
19220TIP3    H279152   5.470   0.269   0.253 -0.4376 -0.8121 -0.2332
19221TIP3   OH279153   3.915   5.941  16.635 -0.3556 -0.4221 -0.1465
19221TIP3    H179154   3.985   5.997  16.668 -2.0329  2.1834 -0.6683
19221TIP3    H279155   3.954   5.854  16.631  2.7921  0.8391 -0.2720
19222TIP3   OH279156   6.756   0.710  11.133 -0.2047  0.5202  0.1507
19222TIP3    H179157   6.725   0.787  11.181 -0.1381 -0.3085  1.5586
19222TIP3    H279158   6.847   0.700  11.160 -0.4875 -0.6149  0.7627
19223TIP3   OH279159   0.452   3.755  15.696  1.0153  0.5369  0.3914
19223TIP3    H179160   0.387   3.761  15.626  0.3672  1.0185  1.0143
19223TIP3    H279161   0.491   3.668  15.685 -0.7833 -0.3835  0.8853
19224TIP3   OH279162   3.970   3.482  11.792  0.2649  0.2899  0.0443
19224TIP3    H179163   3.908   3.504  11.860  0.3441  2.0589 -0.4140
19224TIP3    H279164   3.944   3.535  11.717  2.7533  1.7693  0.0915
19225TIP3   OH279165   5.500   1.313  15.814  0.0740  0.1820 -0.3959
19225TIP3    H179166   5.577   1.259  15.796  0.1425  0.5330 -1.1937
19225TIP3    H279167   5.534   1.391  15.856 -0.0109 -0.3214  0.6350
19226TIP3   OH279168   0.699   4.063   5.437  0.1986  0.0918 -0.1449
19226TIP3    H179169   0.707   4.143   5.385  0.6835 -0.2844 -0.6468
19226TIP3    H279170   0.766   4.072   5.505 -0.4942  0.6241  0.4884
19227TIP3   OH279171   5.656   6.011  13.159 -0.0568  0.5884 -0.3407
19227TIP3    H179172   5.705   5.974  13.086  0.8588  0.6567  0.2188
19227TIP3    H279173   5.721   6.063  13.207 -0.7188  0.8079  0.3364
19228TIP3   OH279174   6.409   3.023  12.349  0.1789 -0.0712 -0.4018
19228TIP3    H179175   6.503   3.020  12.330  0.2417  0.2067 -0.1343
19228TIP3    H279176   6.369   3.061  12.271  0.3264  0.1423 -0.3718
19229TIP3   OH279177   2.213   2.971   6.027 -0.2604  0.3098 -0.5195
19229TIP3    H179178   2.265   2.932   6.097 -0.2806 -1.3072 -1.3580
19229TIP3    H279179   2.241   3.062   6.024  1.3805 -0.1385  0.0971
19230TIP3   OH279180   2.125   4.160   0.170 -0.2747 -0.0949 -0.0836
19230TIP3    H179181   2.219   4.176   0.159 -0.0369 -1.8674 -1.0196
19230TIP3    H279182   2.087   4.177   0.084 -1.0948  2.0125  0.6291
19231TIP3   OH279183   5.709   2.307  15.771  0.3339 -0.2525 -0.3980
19231TIP3    H179184   5.623   2.347  15.755  0.7480  0.8360  0.0051
19231TIP3    H279185   5.772   2.375  15.746  1.0450  0.1118  2.0959
19232TIP3   OH279186   3.596   0.823   5.116 -0.0947 -0.1706  0.7056
19232TIP3    H179187   3.525   0.884   5.094 -0.2171 -0.2007  1.0091
19232TIP3    H279188   3.675   0.877   5.115  0.0518 -0.3733 -0.7962
19233TIP3   OH279189   0.145   1.923  15.720  0.2913 -0.7978 -0.9894
19233TIP3    H179190   0.115   1.976  15.646 -1.5355 -1.1886 -0.5595
19233TIP3    H279191   0.175   1.842  15.680 -0.4605 -0.9120 -1.3282
19234TIP3   OH279192   5.290   2.246  16.226 -0.4453  0.1787 -0.0053
19234TIP3    H179193   5.259   2.322  16.275  0.9605  1.0608 -0.4207
19234TIP3    H279194   5.244   2.251  16.142 -0.3012  0.6454 -0.0620
19235TIP3   OH279195   5.084   2.668  15.916  0.1095 -0.0706 -0.2349
19235TIP3    H179196   5.126   2.724  15.851  0.6447  0.1174  0.2625
19235TIP3    H279197   5.155   2.639  15.973 -0.2038 -1.0178 -0.3036
19236TIP3   OH279198   1.674   3.775  10.566 -0.6595  0.7995  0.4412
19236TIP3    H179199   1.662   3.865  10.597 -0.8263  0.9223  0.0209
19236TIP3    H279200   1.706   3.728  10.643 -2.0380  0.8699  1.0844
19237TIP3   OH279201   3.019   4.682  11.221  0.3422 -0.1748  0.6127
19237TIP3    H179202   3.002   4.591  11.244 -1.7720 -0.0163 -0.0992
19237TIP3    H279203   2.964   4.698  11.145  1.3723  1.4613  0.1557
19238TIP3   OH279204   5.244   2.720  13.104 -0.1161  0.3727 -0.6240
19238TIP3    H179205   5.299   2.741  13.179  0.7120  2.5403 -1.7637
19238TIP3    H279206   5.207   2.634  13.125 -0.0855  0.9755  2.3430
19239TIP3   OH279207   3.710   0.779  14.924  0.5125  0.5893  0.4020
19239TIP3    H179208   3.750   0.839  14.985 -0.4425  2.1825 -0.4686
19239TIP3    H279209   3.616   0.794  14.933  0.2163 -1.0755  0.4453
19240TIP3   OH279210   2.792   5.674   5.658 -0.1508  0.9241  0.4871
19240TIP3    H179211   2.883   5.695   5.640  0.0200  0.2103  0.4963
19240TIP3    H279212   2.772   5.600   5.601 -0.8161  1.2473  0.2740
19241TIP3   OH279213   4.159   1.154  11.835  0.2743 -0.0059  0.3129
19241TIP3    H179214   4.250   1.146  11.865  0.9460  2.3859 -0.8597
19241TIP3    H279215   4.158   1.233  11.782 -2.4886 -0.0564  0.1472
19242TIP3   OH279216   5.226   2.977  12.579 -0.1671  0.2257 -0.3185
19242TIP3    H179217   5.261   2.889  12.568 -0.6021  0.1072 -0.7898
19242TIP3    H279218   5.221   2.990  12.674 -0.1986 -0.2914 -0.2488
19243TIP3   OH279219   1.576   6.658  15.880  0.0146 -0.2726  0.3333
19243TIP3    H179220   1.620   6.673  15.797 -0.0095  2.3382  0.7113
19243TIP3    H279221   1.486   6.687  15.865  0.4197  1.9339  1.6682
19244TIP3   OH279222   0.447   3.813  10.795 -0.0139  0.6152  0.1534
19244TIP3    H179223   0.451   3.909  10.794 -1.0146  0.6639 -1.5024
19244TIP3    H279224   0.353   3.793  10.797  0.1848 -0.3685  1.4540
19245TIP3   OH279225   3.016   6.626   0.882  0.3589  0.0823  0.3259
19245TIP3    H179226   3.010   6.555   0.818 -2.7454 -0.1309  0.6655
19245TIP3    H279227   3.016   6.581   0.967  0.0384  0.4279  0.5141
19246TIP3   OH279228   0.466   1.464  16.863  0.6511  0.3229 -0.1242
19246TIP3    H179229   0.422   1.536  16.907 -0.2246  0.2609 -0.8702
19246TIP3    H279230   0.434   1.385  16.907 -0.6018  0.2288 -1.1394
19247TIP3   OH279231   2.248   6.387   5.760  0.1986 -0.1896 -0.1793
19247TIP3    H179232   2.244   6.307   5.708  1.3257 -0.6588  0.4008
19247TIP3    H279233   2.206   6.363   5.843 -0.3901  0.1439 -0.3770
19248TIP3   OH279234   1.179   0.288   3.584 -0.5144  0.2732 -0.3919
19248TIP3    H179235   1.192   0.203   3.626 -0.6863  0.5992  0.3260
19248TIP3    H279236   1.113   0.332   3.637  0.8473  1.5621  0.3129
19249TIP3   OH279237   0.240   5.898  15.745  0.3350 -0.0806 -0.1510
19249TIP3    H179238   0.264   5.849  15.666  0.8171  1.0227 -0.7148
19249TIP3    H279239   0.324   5.932  15.778  0.1734 -0.7089  0.9883
19250TIP3   OH279240   6.649   0.727   6.070  0.3904  0.3701 -0.6186
19250TIP3    H179241   6.630   0.763   5.983 -2.2861  0.0172 -0.2729
19250TIP3    H279242   6.684   0.640   6.053  1.7546  1.0309 -1.3454
19251TIP3   OH279243   6.323   2.724  11.255 -0.0133  0.6867 -0.0020
19251TIP3    H179244   6.302   2.631  11.246  0.5449  0.4068  1.3354
19251TIP3    H279245   6.416   2.730  11.236  0.0408  0.8984  0.3222
19252TIP3   OH279246   5.367   0.190   4.788  0.1065  0.3722 -0.4927
19252TIP3    H179247   5.320   0.265   4.753 -1.4176 -0.2938  0.0367
19252TIP3    H279248   5.427   0.164   4.718  0.7026  2.0910 -0.6564
19253TIP3   OH279249   5.552   6.232   3.264  0.0369 -0.1153  0.3538
19253TIP3    H179250   5.614   6.173   3.309  1.8147 -0.0939 -1.8728
19253TIP3    H279251   5.597   6.316   3.262 -1.6144  0.8359  1.7048
19254TIP3   OH279252   3.158   2.310  16.692 -0.1522 -0.1038  0.3386
19254TIP3    H179253   3.090   2.337  16.630 -0.5007  1.3599  1.2852
19254TIP3    H279254   3.169   2.216  16.677 -2.3777 -0.3922  0.1239
19255TIP3   OH279255   5.196   3.873   5.712  0.1595  0.1356 -0.9881
19255TIP3    H179256   5.147   3.924   5.647  0.4937 -0.5430 -1.7973
19255TIP3    H279257   5.235   3.939   5.770 -1.9549  0.6970 -0.1022
19256TIP3   OH279258   6.400   3.450  11.701 -0.3622  0.1881 -0.1162
19256TIP3    H179259   6.326   3.391  11.715 -1.2839  1.4004  0.2944
19256TIP3    H279260   6.425   3.436  11.609 -1.6302  0.3275 -0.5040
19257TIP3   OH279261   4.093   3.391  14.233 -0.1732  0.4334  0.0464
19257TIP3    H179262   4.033   3.317  14.245  2.1795 -1.5843  0.2271
19257TIP3    H279263   4.042   3.468  14.257 -1.8315 -1.4230  3.0857
19258TIP3   OH279264   4.313   5.351  12.550 -0.1134  0.0974 -0.0159
19258TIP3    H179265   4.262   5.283  12.594  0.0726 -0.6415 -0.8952
19258TIP3    H279266   4.267   5.365  12.467  0.1295  0.6913 -0.0523
19259TIP3   OH279267   5.870   1.481   1.456  0.1176 -0.4373  0.3291
19259TIP3    H179268   5.837   1.435   1.533  0.5332 -2.1543 -0.4762
19259TIP3    H279269   5.801   1.468   1.390  0.4077 -0.2165 -0.0199
19260TIP3   OH279270   3.332   4.190   0.701  0.3540 -0.3850  0.1488
19260TIP3    H179271   3.343   4.285   0.696  1.0331 -0.5339 -1.8952
19260TIP3    H279272   3.272   4.169   0.630  0.4739 -1.5469  0.3701
19261TIP3   OH279273   2.585   2.695  12.057  0.0991 -0.4985 -0.5150
19261TIP3    H179274   2.590   2.779  12.013  0.4199 -0.0060  0.4343
19261TIP3    H279275   2.491   2.674  12.057 -0.0025 -0.0572 -0.6030
19262TIP3   OH279276   5.540   5.176  16.578  0.4771  0.5177  0.3340
19262TIP3    H179277   5.464   5.169  16.635  0.8112  0.5677  0.7962
19262TIP3    H279278   5.577   5.263  16.597  0.6535  0.4903  0.1248
19263TIP3   OH279279   5.797   4.231  14.960 -0.0924  0.5190  0.2933
19263TIP3    H179280   5.858   4.305  14.950 -0.4931  0.9789  1.1117
19263TIP3    H279281   5.711   4.272  14.960 -0.6634 -0.3256 -3.2859
19264TIP3   OH279282   4.003   6.654   2.725  0.2072 -0.0291 -0.0453
19264TIP3    H179283   3.939   6.716   2.760 -1.0196 -0.7082 -1.0150
19264TIP3    H279284   4.084   6.705   2.717 -0.7004  1.3797 -0.5916
19265TIP3   OH279285   1.427   5.604  10.569 -0.1844 -0.1139 -0.3037
19265TIP3    H179286   1.383   5.689  10.569  0.7777  0.6296 -4.7189
19265TIP3    H279287   1.358   5.540  10.553 -0.6833 -0.0502  1.4114
19266TIP3   OH279288   3.635   0.146   3.501  0.1025 -0.2176  0.6991
19266TIP3    H179289   3.628   0.080   3.570  2.5509 -0.5135  0.7786
19266TIP3    H279290   3.680   0.100   3.430 -0.6877  0.6139 -0.3667
19267TIP3   OH279291   4.710   0.916   3.339  0.3452  0.0456  0.2369
19267TIP3    H179292   4.765   0.915   3.417  1.2383  1.1774 -0.3570
19267TIP3    H279293   4.621   0.927   3.373  0.7704  1.0652  1.0890
19268TIP3   OH279294   4.108   1.586   2.023  0.1716  0.0175 -0.0790
19268TIP3    H179295   4.127   1.677   2.046 -0.0085 -0.1336  0.6837
19268TIP3    H279296   4.193   1.542   2.025  0.0270 -0.2652  1.5659
19269TIP3   OH279297   5.640   4.589   0.025  0.1663 -0.5137  0.1941
19269TIP3    H179298   5.559   4.613   0.069 -0.4605 -1.4138 -0.4259
19269TIP3    H279299   5.695   4.667   0.030 -0.2277 -0.3221  1.7710
19270TIP3   OH279300   0.383   1.161  10.647 -0.2919 -0.4143 -0.3031
19270TIP3    H179301   0.365   1.254  10.662 -0.0061 -0.0885 -1.7976
19270TIP3    H279302   0.319   1.115  10.702 -0.6308  0.6605  0.2330
19271TIP3   OH279303   3.832   5.134  12.151  0.4356  0.6830  0.1528
19271TIP3    H179304   3.794   5.213  12.112 -1.9950 -0.3413  0.2698
19271TIP3    H279305   3.785   5.122  12.233  0.1153 -1.3260 -0.2644
19272TIP3   OH279306   1.452   5.755  14.781 -0.6547 -0.4463 -0.1490
19272TIP3    H179307   1.452   5.767  14.686  2.0449  2.2389  0.0165
19272TIP3    H279308   1.404   5.830  14.815  1.0159  0.3260  0.6195
19273TIP3   OH279309   1.519   3.191   4.140  0.4689 -0.2005 -0.2200
19273TIP3    H179310   1.598   3.223   4.097  0.5584 -0.1988 -0.0554
19273TIP3    H279311   1.472   3.142   4.072  0.3678  0.2174 -0.4570
19274TIP3   OH279312   2.705   5.769   1.958  0.2600 -0.1226  0.2320
19274TIP3    H179313   2.658   5.689   1.933 -1.3801  1.0659 -0.7437
19274TIP3    H279314   2.756   5.744   2.035  0.2226 -2.2277 -0.3522
19275TIP3   OH279315   6.828   2.646  16.844 -0.5098 -0.4711 -0.1385
19275TIP3    H179316   6.756   2.587  16.821  0.6496 -1.6045 -1.0204
19275TIP3    H279317   6.882   2.650  16.766 -0.2000  1.2962  0.1257
19276TIP3   OH279318   0.395   3.328   6.327  0.5499  0.2108 -0.6846
19276TIP3    H179319   0.325   3.267   6.304  0.5499 -0.5046  1.1216
19276TIP3    H279320   0.350   3.410   6.345 -0.3732 -1.0397  3.7559
19277TIP3   OH279321   5.091   2.639  11.178 -0.4400 -0.3923  0.6349
19277TIP3    H179322   5.018   2.682  11.223 -1.1525 -0.4618 -0.4266
19277TIP3    H279323   5.056   2.614  11.093  1.0016  0.1486 -0.1584
19278TIP3   OH279324   3.396   2.981  14.532  0.1851 -0.0823 -0.7696
19278TIP3    H179325   3.314   3.008  14.572  1.0721  1.3404  0.2080
19278TIP3    H279326   3.418   2.898  14.574  0.4912  0.7917  0.8850
19279TIP3   OH279327   4.940   4.134  11.176 -0.0470 -0.0593  0.1020
19279TIP3    H179328   5.000   4.080  11.124  1.8200  0.7747  1.2800
19279TIP3    H279329   4.880   4.173  11.112  1.1655 -0.3016 -1.2260
19280TIP3   OH279330   3.902   1.624  15.054  0.3873 -0.3224  0.2466
19280TIP3    H179331   3.943   1.551  15.101 -0.1717 -0.6242  0.2779
19280TIP3    H279332   3.808   1.614  15.071  0.4255  1.6709  2.0682
19281TIP3   OH279333   6.392   0.244   1.167 -0.2773 -0.6671  0.4683
19281TIP3    H179334   6.449   0.181   1.122 -1.2426 -0.2007 -1.5313
19281TIP3    H279335   6.358   0.195   1.242 -0.0040 -2.1296 -0.3087
19282TIP3   OH279336   0.457   1.470   0.150  0.1131  0.2789  0.7434
19282TIP3    H179337   0.489   1.489   0.238  0.8467 -0.0185  0.5449
19282TIP3    H279338   0.472   1.377   0.138 -2.8491 -0.4071  1.4493
19283TIP3   OH279339   3.786   6.093  15.976  0.0791  0.2154  0.0212
19283TIP3    H179340   3.759   6.178  15.942  0.9984  0.0348 -1.2219
19283TIP3    H279341   3.706   6.040  15.975 -0.3231  0.8115  0.0399
19284TIP3   OH279342   2.901   0.054   5.635  0.8007 -0.0393 -0.5516
19284TIP3    H179343   2.856   0.109   5.699 -2.1752 -0.9569 -1.6926
19284TIP3    H279344   2.968   0.111   5.598  1.5876  0.9920  2.1923
19285TIP3   OH279345   1.009   5.245  16.051  0.4510  0.6361 -0.0741
19285TIP3    H179346   0.988   5.177  15.986  0.3551  0.6309 -0.0363
19285TIP3    H279347   1.073   5.301  16.007  1.4301 -0.1499  0.2972
19286TIP3   OH279348   2.277   3.052  15.470 -0.5018  0.6321 -0.1029
19286TIP3    H179349   2.219   3.039  15.545 -1.0509  1.2517 -0.4124
19286TIP3    H279350   2.351   2.993  15.486 -0.3155  1.1931  1.2277
19287TIP3   OH279351   2.397   5.944   3.567 -0.2018 -0.2415  0.0131
19287TIP3    H179352   2.342   6.021   3.585  0.0670  0.2683 -1.2003
19287TIP3    H279353   2.414   5.905   3.653 -0.5050  0.9425  0.6296
19288TIP3   OH279354   4.014   5.756  14.888 -0.4566 -0.3386  0.4226
19288TIP3    H179355   3.932   5.708  14.884  0.1629 -1.6148  1.9850
19288TIP3    H279356   4.053   5.746  14.801 -0.7729 -1.9218  0.4474
19289TIP3   OH279357   5.870   5.909  13.911 -0.1904  0.0049 -0.0365
19289TIP3    H179358   5.961   5.888  13.886 -0.5305 -0.2443 -1.1212
19289TIP3    H279359   5.849   5.986  13.858 -0.8145 -0.3034 -0.2346
19290TIP3   OH279360   2.777   3.851   2.272  0.6769  0.2068  0.0561
19290TIP3    H179361   2.803   3.847   2.364 -0.6724 -2.2874  0.4243
19290TIP3    H279362   2.715   3.924   2.268  3.3070  2.6493  0.2812
19291TIP3   OH279363   3.033   0.529  12.503 -0.0161 -0.0184 -0.0556
19291TIP3    H179364   3.021   0.435  12.517 -0.9305  0.0760 -0.1372
19291TIP3    H279365   3.019   0.540  12.409 -0.8153  0.3205  0.0971
19292TIP3   OH279366   2.492   2.260   1.591  0.9326  0.6760 -0.4538
19292TIP3    H179367   2.410   2.298   1.622  0.1907 -0.2391 -1.2277
19292TIP3    H279368   2.543   2.335   1.562  0.0686  1.2104 -0.6488
19293TIP3   OH279369   2.075   4.812   0.872 -0.1232 -0.4350 -0.1231
19293TIP3    H179370   1.983   4.818   0.850  0.1003  0.4522 -0.8710
19293TIP3    H279371   2.121   4.819   0.789  0.6160 -1.3032  0.1883
19294TIP3   OH279372   0.023   6.375  10.383 -0.2044  0.2547 -0.1354
19294TIP3    H179373   0.118   6.377  10.377 -0.0697 -0.2849  1.3163
19294TIP3    H279374  -0.006   6.333  10.302  0.8402 -0.2223 -0.2777
19295TIP3   OH279375   0.207   5.934   4.033 -0.0495 -0.1198  0.1943
19295TIP3    H179376   0.166   5.963   3.952 -0.5526 -0.6112  0.2585
19295TIP3    H279377   0.189   5.840   4.035  0.2636 -0.1688  0.7023
19296TIP3   OH279378   3.541   6.812   6.144 -0.2066 -0.0775  0.1640
19296TIP3    H179379   3.622   6.785   6.100  0.0082 -0.0896  0.5649
19296TIP3    H279380   3.541   6.765   6.227 -0.6107 -0.0508  0.1812
19297TIP3   OH279381   0.963   4.388  16.247 -0.1931  0.3681  0.6291
19297TIP3    H179382   1.042   4.338  16.226 -0.5960  0.2233 -0.5998
19297TIP3    H279383   0.948   4.371  16.340  1.7237  1.1163  1.1366
19298TIP3   OH279384   3.011   6.206  13.866  0.1026  0.5053 -0.3237
19298TIP3    H179385   2.959   6.220  13.788  1.6559  1.2214 -1.2852
19298TIP3    H279386   3.086   6.154  13.836  1.3949  1.8760  0.3612
19299TIP3   OH279387   0.443   6.225   2.537  0.6315  0.0215  0.5425
19299TIP3    H179388   0.420   6.311   2.504 -1.3694  0.0747  1.8616
19299TIP3    H279389   0.359   6.179   2.545  1.3942 -1.2290  2.0211
19300TIP3   OH279390   4.612   2.995  14.515  0.3215  0.5157 -0.2897
19300TIP3    H179391   4.704   2.973  14.499  0.8440  1.2554  1.4885
19300TIP3    H279392   4.613   3.088  14.536 -0.8045  0.4711 -0.0002
19301TIP3   OH279393   0.315   4.298   3.923  0.0892  0.6752 -0.3353
19301TIP3    H179394   0.377   4.298   3.851 -0.9632  2.0556 -1.2901
19301TIP3    H279395   0.268   4.215   3.914  0.9762  0.1592 -0.3090
19302TIP3   OH279396   1.125   3.450   1.766 -0.3913  0.2825  0.1073
19302TIP3    H179397   1.218   3.450   1.788 -0.0368  1.5758 -1.2139
19302TIP3    H279398   1.102   3.357   1.761  1.0863 -0.0858 -0.5459
19303TIP3   OH279399   2.396   2.501  10.937 -0.1986  0.3016 -0.0537
19303TIP3    H179400   2.309   2.462  10.939 -0.4953  0.9826  0.8866
19303TIP3    H279401   2.441   2.456  10.865 -1.5622  0.4392 -1.0417
19304TIP3   OH279402   1.361   0.745  14.545  0.3884  0.5255 -0.1730
19304TIP3    H179403   1.290   0.778  14.600 -0.7694  0.6193 -1.6264
19304TIP3    H279404   1.332   0.658  14.518  2.4736 -0.9433  1.9630
19305TIP3   OH279405   5.993   3.373   4.530  0.5194 -0.4755 -0.1448
19305TIP3    H179406   6.079   3.405   4.557  0.6506 -0.6553 -0.3489
19305TIP3    H279407   5.958   3.331   4.608  0.3150  0.2199  0.1486
19306TIP3   OH279408   4.809   2.487   5.577 -0.0865 -0.5781 -0.0780
19306TIP3    H179409   4.883   2.427   5.575  1.1152  0.8460 -2.3552
19306TIP3    H279410   4.836   2.557   5.636  0.1750 -0.2959 -0.5343
19307TIP3   OH279411   5.081   5.608  15.733  0.1195  0.0089 -0.1389
19307TIP3    H179412   5.039   5.667  15.795 -0.0064 -0.3890  0.1597
19307TIP3    H279413   5.066   5.648  15.647 -0.9514 -0.1781 -0.0466
19308TIP3   OH279414   3.631   5.008  16.880 -0.4684  0.5985  0.0978
19308TIP3    H179415   3.673   5.090  16.906 -0.0113 -0.0023  1.3431
19308TIP3    H279416   3.561   4.995  16.944  0.6284 -0.8810  1.0748
19309TIP3   OH279417   5.270   3.554   6.109  0.1024 -0.1390 -0.1662
19309TIP3    H179418   5.310   3.539   6.194 -1.5748 -0.0397  0.6861
19309TIP3    H279419   5.274   3.649   6.097  2.4090 -0.3229 -1.3052
19310TIP3   OH279420   6.818   5.153   3.764  0.0782 -0.8345  0.1039
19310TIP3    H179421   6.809   5.213   3.838 -0.4201 -1.4611  0.5599
19310TIP3    H279422   6.897   5.183   3.718  0.3682 -0.4134  0.8679
19311TIP3   OH279423   0.390   1.913  15.110  0.0592 -0.1889 -0.3377
19311TIP3    H179424   0.344   1.865  15.179  2.8483  0.1592  1.9574
19311TIP3    H279425   0.352   2.001  15.113 -1.9320 -0.9558 -1.4277
19312TIP3   OH279426   4.639   2.781  16.198  0.0065  0.5143 -0.0984
19312TIP3    H179427   4.652   2.867  16.239  0.7808  0.4990 -0.2950
19312TIP3    H279428   4.620   2.802  16.106 -0.7378  0.5050  0.0438
19313TIP3   OH279429   5.748   5.769  14.278 -0.4625  0.7476  0.7383
19313TIP3    H179430   5.733   5.858  14.247  0.3017  1.5819  2.6163
19313TIP3    H279431   5.695   5.762  14.358 -2.6989 -1.4589 -0.7565
19314TIP3   OH279432   4.096   0.077  15.101 -0.1564  0.0298 -0.1997
19314TIP3    H179433   4.120   0.136  15.173 -1.6271  1.1394 -0.5847
19314TIP3    H279434   4.176   0.026  15.085  0.9086  1.3423  0.6848
19315TIP3   OH279435   3.687   3.254  14.127 -0.0965 -0.2746 -0.5828
19315TIP3    H179436   3.763   3.269  14.072  0.2249 -1.5795 -0.5389
19315TIP3    H279437   3.627   3.326  14.107  1.0900  0.7044 -0.6929
19316TIP3   OH279438   2.418   1.053   4.256  0.2465 -0.4202  0.5893
19316TIP3    H179439   2.338   1.064   4.204  1.2482 -1.1005 -1.2181
19316TIP3    H279440   2.417   1.126   4.318 -0.8345  0.7189 -0.6836
19317TIP3   OH279441   4.694   2.164   2.308  0.0412 -0.5352  0.0258
19317TIP3    H179442   4.668   2.072   2.301 -0.4158 -0.3814 -0.3088
19317TIP3    H279443   4.788   2.161   2.327 -0.2394 -1.0961  1.4415
19318TIP3   OH279444   1.843   0.727  13.205  0.0512 -0.3321 -0.6890
19318TIP3    H179445   1.771   0.669  13.231  0.4442 -0.5847 -0.1435
19318TIP3    H279446   1.901   0.729  13.281  1.2347 -1.1005 -1.5278
19319TIP3   OH279447   4.944   1.273   0.250 -0.5502  0.0832  0.0772
19319TIP3    H179448   4.879   1.295   0.183 -0.7460 -0.4101  0.0998
19319TIP3    H279449   5.012   1.224   0.203 -1.3041 -1.3736  0.4460
19320TIP3   OH279450   6.477   6.567  14.648 -0.1375  0.4840 -0.2410
19320TIP3    H179451   6.425   6.489  14.627  1.0176 -0.4393  0.2094
19320TIP3    H279452   6.463   6.579  14.742  0.1681  0.4579 -0.1932
19321TIP3   OH279453   1.183   6.303   5.190 -0.0309  0.1747 -0.1493
19321TIP3    H179454   1.161   6.388   5.228 -1.3941  0.8848 -2.3573
19321TIP3    H279455   1.111   6.284   5.129 -0.0119 -2.7962  0.5803
19322TIP3   OH279456   4.427   3.585  13.295 -0.2214  0.2648  0.2077
19322TIP3    H179457   4.334   3.587  13.272 -0.2862  0.3905  0.4830
19322TIP3    H279458   4.429   3.579  13.390  0.0371 -1.3672  0.1280
19323TIP3   OH279459   2.704   1.200  14.522 -0.5599 -0.5701 -0.0429
19323TIP3    H179460   2.642   1.133  14.552 -1.3679 -0.1556 -0.7346
19323TIP3    H279461   2.749   1.159  14.448 -0.6812 -0.5378 -0.1347
19324TIP3   OH279462   5.186   0.160   1.631  0.5685 -0.6043  0.3339
19324TIP3    H179463   5.102   0.188   1.595 -1.0077 -1.1067  3.2479
19324TIP3    H279464   5.162   0.097   1.699  3.3579 -0.9912  1.0645
19325TIP3   OH279465   0.388   2.639   5.224 -0.1460  0.5130 -0.3172
19325TIP3    H179466   0.420   2.551   5.203 -2.2943 -0.3593 -0.1697
19325TIP3    H279467   0.466   2.695   5.219  1.2632 -1.3771 -0.4601
19326TIP3   OH279468   2.699   5.227   0.770 -0.3217  0.1072  0.4836
19326TIP3    H179469   2.648   5.228   0.689  1.1000  0.8236 -0.4484
19326TIP3    H279470   2.789   5.214   0.741  0.3958  1.7876  1.8311
19327TIP3   OH279471   3.636   5.041  11.123  0.2366 -0.1777 -0.5493
19327TIP3    H179472   3.569   5.016  11.187  0.6754 -2.8481 -1.0097
19327TIP3    H279473   3.625   5.136  11.113 -1.2987 -0.0081  1.7942
19328TIP3   OH279474   3.574   4.981   3.966  0.0203  0.2447 -0.0811
19328TIP3    H179475   3.515   5.029   3.908  0.2468 -0.6914 -1.1283
19328TIP3    H279476   3.616   4.917   3.908 -0.0034 -0.9483  1.1815
19329TIP3   OH279477   4.921   4.493   3.752 -0.4504  0.0670 -0.0924
19329TIP3    H179478   4.960   4.577   3.775 -0.3903 -0.3025  1.2705
19329TIP3    H279479   4.888   4.458   3.835 -2.8493 -0.0704 -0.9971
19330TIP3   OH279480   6.630   5.665   5.869 -0.0988  0.3802 -0.3648
19330TIP3    H179481   6.600   5.737   5.813  0.7631  0.8010 -0.3033
19330TIP3    H279482   6.586   5.680   5.953 -0.7025  0.2560 -0.6520
19331TIP3   OH279483   3.814   2.447  12.230  0.0795  0.0157  0.5904
19331TIP3    H179484   3.848   2.456  12.141  1.8185  0.2207  1.2381
19331TIP3    H279485   3.882   2.400  12.277 -0.6368  0.2628  1.9168
19332TIP3   OH279486   4.538   1.204   0.751 -0.8162  0.0743  0.0839
19332TIP3    H179487   4.553   1.143   0.679 -2.1727 -1.8250  1.3049
19332TIP3    H279488   4.619   1.256   0.757 -0.0650 -0.8285 -1.7287
19333TIP3   OH279489   3.741   0.465  11.633 -0.0100 -0.5811 -0.1013
19333TIP3    H179490   3.699   0.447  11.717  0.2935 -1.5324 -0.1440
19333TIP3    H279491   3.762   0.378  11.598  1.5776 -0.1448 -0.2881
19334TIP3   OH279492   6.282   0.810   3.672  0.2579 -0.3543 -0.2108
19334TIP3    H179493   6.211   0.869   3.694  1.6165  1.8122 -1.2646
19334TIP3    H279494   6.255   0.768   3.590  0.3098  0.7295 -0.7989
19335TIP3   OH279495   5.400   0.988   1.742  0.5174 -0.2820  0.3095
19335TIP3    H179496   5.438   1.074   1.728 -0.6705 -0.1567 -2.7930
19335TIP3    H279497   5.471   0.926   1.725  0.5467  0.0418 -0.7889
19336TIP3   OH279498   4.406   1.248   5.179 -0.1371 -0.3897 -0.2587
19336TIP3    H179499   4.317   1.238   5.211  0.4010 -1.5011  1.0071
19336TIP3    H279500   4.419   1.174   5.118  0.1676 -0.7154  0.1933
19337TIP3   OH279501   6.726   3.779  12.515 -0.2497 -0.2336  0.6262
19337TIP3    H179502   6.765   3.785  12.428 -0.9449 -1.7760  0.1734
19337TIP3    H279503   6.732   3.686  12.538 -0.4623  0.0780  2.0547
19338TIP3   OH279504   1.250   0.913  13.741  0.5126 -0.0303  0.5099
19338TIP3    H179505   1.333   0.866  13.730 -0.4450 -1.7441  0.2512
19338TIP3    H279506   1.231   0.906  13.835 -1.0719 -2.8602  0.0783
19339TIP3   OH279507   1.859   0.382   3.016  0.2653  0.2356  0.9353
19339TIP3    H179508   1.950   0.404   3.033  1.2294 -1.2861 -1.6822
19339TIP3    H279509   1.856   0.286   3.018 -0.4285  0.0743 -2.2995
19340TIP3   OH279510   4.745   0.182   4.976 -0.3750 -0.1799  0.9510
19340TIP3    H179511   4.726   0.267   5.018 -1.6658 -0.8572  1.8144
19340TIP3    H279512   4.816   0.145   5.028  0.8018  0.7232  0.0409
19341TIP3   OH279513   0.827   3.383  15.032  0.1671 -0.3282  0.0652
19341TIP3    H179514   0.888   3.453  15.056  1.1308 -1.8370  2.3783
19341TIP3    H279515   0.869   3.341  14.957 -0.6583  1.7584 -1.6732
19342TIP3   OH279516   4.920   6.776  12.107  0.0011  0.9972  0.1567
19342TIP3    H179517   4.877   6.762  12.191  2.8039 -0.4890  1.4521
19342TIP3    H279518   4.970   6.856  12.118  0.2463  0.8897 -0.1429
19343TIP3   OH279519   5.172   1.620   1.441 -0.2591 -0.0202  0.6861
19343TIP3    H179520   5.187   1.535   1.401 -0.8613 -0.4115  1.2745
19343TIP3    H279521   5.163   1.602   1.535 -0.7720  0.6297  0.7734
19344TIP3   OH279522   3.992   3.251  13.931 -0.4207 -0.5379 -0.3528
19344TIP3    H179523   3.968   3.310  13.860  0.2502  0.9682  0.6144
19344TIP3    H279524   4.076   3.285  13.963 -0.6955 -1.1851  1.1491
19345TIP3   OH279525   5.397   1.319   6.199 -0.1113  0.8848 -0.5732
19345TIP3    H179526   5.399   1.243   6.256  2.6582  2.0253  1.0544
19345TIP3    H279527   5.319   1.367   6.226  0.0737  0.4014  0.9151
19346TIP3   OH279528   5.889   0.312  11.814  0.3545 -0.0438  0.3158
19346TIP3    H179529   5.929   0.271  11.737  1.6821  0.7730  0.5506
19346TIP3    H279530   5.958   0.315  11.879  0.3857  2.6511  0.2717
19347TIP3   OH279531   5.008   4.715  14.303 -0.1493 -0.4598  0.1072
19347TIP3    H179532   5.089   4.667  14.284 -0.0807 -0.5953  0.7158
19347TIP3    H279533   5.028   4.806  14.281  0.3256 -0.4175  0.6829
19348TIP3   OH279534   5.473   1.854   3.601  0.4874  0.2380 -0.0433
19348TIP3    H179535   5.398   1.821   3.651  1.4433 -0.4450  0.9842
19348TIP3    H279536   5.541   1.787   3.612  1.0245  0.4813 -1.5670
19349TIP3   OH279537   3.258   0.135   0.562  0.6391  0.4261  0.0585
19349TIP3    H179538   3.263   0.106   0.470 -0.9880 -2.1447  0.6641
19349TIP3    H279539   3.265   0.054   0.612  1.9695  1.8313  2.2684
19350TIP3   OH279540   5.683   4.287  16.316 -0.5579 -0.3235 -0.1479
19350TIP3    H179541   5.617   4.319  16.254  0.2590  0.6562 -0.5448
19350TIP3    H279542   5.746   4.239  16.262 -0.7075 -0.8767  0.1623
19351TIP3   OH279543   0.974   4.741  12.508  0.0840  0.1146  0.8636
19351TIP3    H179544   1.064   4.773  12.510 -0.3536  1.4096  0.7608
19351TIP3    H279545   0.982   4.645  12.505  1.4666  0.2485 -0.9408
19352TIP3   OH279546   1.932   2.632  16.166  1.2445 -0.2500 -0.3864
19352TIP3    H179547   2.014   2.673  16.194  1.7396 -0.9813 -0.7444
19352TIP3    H279548   1.955   2.583  16.087  0.2853  0.2131 -0.9867
19353TIP3   OH279549   4.293   6.691   5.278  0.4186 -0.4369 -0.2065
19353TIP3    H179550   4.240   6.715   5.202  0.8892 -0.2802 -0.4862
19353TIP3    H279551   4.335   6.609   5.254 -1.1169 -1.5610  0.7192
19354TIP3   OH279552   6.519   5.988  11.519  0.5276  0.2972  0.0900
19354TIP3    H179553   6.572   6.068  11.516  0.4911  0.3075 -2.4900
19354TIP3    H279554   6.559   5.936  11.588 -0.0571  2.8750  2.5770
19355TIP3   OH279555   3.647   0.872   3.237 -0.0919 -0.1453 -0.0892
19355TIP3    H179556   3.581   0.855   3.304 -0.2784 -1.3809 -0.5593
19355TIP3    H279557   3.681   0.959   3.258 -1.4359  0.2535  0.5151
19356TIP3   OH279558   0.236   2.245   1.720 -0.2640  0.0913  0.3391
19356TIP3    H179559   0.282   2.201   1.792  0.3850  2.2023  1.2932
19356TIP3    H279560   0.296   2.314   1.692 -0.1086 -1.1945 -2.9044
19357TIP3   OH279561   4.598   2.439  16.722 -0.0642  0.1099  0.8711
19357TIP3    H179562   4.521   2.490  16.697  1.0310  2.5125  2.1309
19357TIP3    H279563   4.592   2.430  16.817  0.7099 -0.5483  0.8689
19358TIP3   OH279564   1.109   3.026   1.258 -0.1926  0.4789  0.1890
19358TIP3    H179565   1.167   3.099   1.278 -1.2669  2.2638 -2.6562
19358TIP3    H279566   1.099   3.029   1.163 -1.8230 -2.2258  0.1724
19359TIP3   OH279567   0.284   2.193   1.431  0.2201 -0.4267  0.5177
19359TIP3    H179568   0.296   2.108   1.389  0.0444 -0.1786 -0.0314
19359TIP3    H279569   0.262   2.171   1.522 -0.3739 -0.9875  0.2527
19360TIP3   OH279570   3.027   5.275   4.801  0.0672 -0.5380  0.6897
19360TIP3    H179571   3.042   5.256   4.709  0.4836  1.5717  0.2743
19360TIP3    H279572   2.940   5.239   4.819  0.2914 -1.6264 -0.3087
19361TIP3   OH279573   5.425   2.502   2.098 -0.1182 -0.5801  0.0347
19361TIP3    H179574   5.496   2.461   2.146 -0.4880 -1.3526 -0.0447
19361TIP3    H279575   5.373   2.548   2.164 -0.2288 -1.0473  0.2790
19362TIP3   OH279576   5.769   4.074  15.425 -0.1239  0.1962 -0.0166
19362TIP3    H179577   5.789   4.071  15.518 -1.6300 -0.1504  0.3152
19362TIP3    H279578   5.740   3.986  15.403  1.8274 -0.1906 -1.2219
19363TIP3   OH279579   2.628   2.571   4.516  0.3257  0.4344 -0.5415
19363TIP3    H179580   2.700   2.589   4.576 -1.3151  1.6824  1.1959
19363TIP3    H279581   2.660   2.600   4.431  2.3623 -0.4126 -0.1199
19364TIP3   OH279582   2.397   4.508  14.456  0.3105 -0.3409  0.1280
19364TIP3    H179583   2.425   4.599  14.444  1.8091 -0.8730 -0.8254
19364TIP3    H279584   2.391   4.473  14.367  0.7733 -1.4517  0.5108
19365TIP3   OH279585   3.370   3.245  16.639 -0.0136  0.2394  0.2492
19365TIP3    H179586   3.339   3.210  16.722  0.2457 -1.6323 -0.4036
19365TIP3    H279587   3.462   3.221  16.636 -0.1330 -0.1151 -0.7804
19366TIP3   OH279588   1.275   0.905  16.294 -0.0008 -0.2022 -0.2932
19366TIP3    H179589   1.272   0.952  16.377  0.1016 -0.1113 -0.3396
19366TIP3    H279590   1.289   0.814  16.318  0.4098 -0.1242 -0.2238
19367TIP3   OH279591   0.210   3.997  13.225  0.0843 -0.0355 -0.2957
19367TIP3    H179592   0.183   4.037  13.308  0.6617  2.3034 -1.1615
19367TIP3    H279593   0.162   3.914  13.222  0.8740 -0.7538  2.8601
19368TIP3   OH279594   4.218   4.680  13.370  0.3089 -0.0418 -0.3295
19368TIP3    H179595   4.294   4.670  13.312 -0.8132 -0.5280 -1.7980
19368TIP3    H279596   4.222   4.771  13.399  1.9048 -0.2906  0.3100
19369TIP3   OH279597   4.123   3.741  14.509  0.3188  0.0240 -0.3668
19369TIP3    H179598   4.039   3.769  14.544  0.8556  0.6221  0.4885
19369TIP3    H279599   4.163   3.821  14.474  0.2101 -0.3941 -1.5024
19370TIP3   OH279600   2.710   6.497   5.117 -0.0401  0.8632 -0.0738
19370TIP3    H179601   2.642   6.518   5.181  0.3279 -3.1544  1.9404
19370TIP3    H279602   2.704   6.402   5.105  2.4132  0.9392 -3.1891
19371TIP3   OH279603   5.877   0.037   2.560 -0.0898  0.3635  0.1284
19371TIP3    H179604   5.822   0.096   2.509 -0.7958  0.0668  0.5365
19371TIP3    H279605   5.824   0.014   2.636  0.4280 -0.2822  0.3022
19372TIP3   OH279606   2.933   6.002   3.018  0.5660  0.2277  0.1724
19372TIP3    H179607   2.944   6.089   2.979  3.6209 -0.5823 -1.1409
19372TIP3    H279608   2.856   5.966   2.973 -0.3417  1.9525  0.2343
19373TIP3   OH279609   3.272   4.313  12.962  0.2853 -0.1558 -0.0173
19373TIP3    H179610   3.327   4.266  12.899 -2.1757  0.7333 -3.1295
19373TIP3    H279611   3.307   4.402  12.964 -0.7019  0.3339 -1.7803
19374TIP3   OH279612   2.647   3.927  11.543  0.4088 -0.1686  0.6184
19374TIP3    H179613   2.676   4.004  11.592  0.2000 -0.5637  1.3706
19374TIP3    H279614   2.727   3.895  11.500  1.1727 -1.3086  2.7473
19375TIP3   OH279615   2.539   3.986   4.577 -0.2017  0.0173  0.4824
19375TIP3    H179616   2.595   4.016   4.648  0.3300  1.2820 -0.4361
19375TIP3    H279617   2.518   4.065   4.527  0.8787 -1.0016 -1.7749
19376TIP3   OH279618   0.668   6.058  12.655 -0.2143  0.0746 -0.7140
19376TIP3    H179619   0.617   6.106  12.720  1.7930  2.3911 -0.7363
19376TIP3    H279620   0.635   6.089  12.571 -0.0633  0.1526 -0.7451
19377TIP3   OH279621   4.495   4.459  11.555  0.2712 -0.5982 -0.2800
19377TIP3    H179622   4.517   4.447  11.462 -0.6403 -0.2800 -0.5496
19377TIP3    H279623   4.509   4.373  11.594  0.9375 -0.6675 -0.6499
19378TIP3   OH279624   0.608   0.310   1.775 -0.4263  0.4364 -0.3489
19378TIP3    H179625   0.641   0.399   1.764 -1.4537  0.8523 -0.1591
19378TIP3    H279626   0.676   0.265   1.827 -0.5741  1.5218  0.8236
19379TIP3   OH279627   5.114   6.098  14.644  0.0066 -0.6492  0.0693
19379TIP3    H179628   5.165   6.168  14.683 -1.4769 -0.0063  0.9536
19379TIP3    H279629   5.178   6.044  14.597  1.2170  1.0840 -0.3401
19380TIP3   OH279630   1.153   5.041  12.584  0.0333 -0.2865  0.0210
19380TIP3    H179631   1.238   5.079  12.606  1.0469 -0.0717 -3.6043
19380TIP3    H279632   1.144   4.967  12.645  2.5758 -0.0126  0.8681
19381TIP3   OH279633   1.012   5.555  12.074 -0.0815  0.2374 -0.0885
19381TIP3    H179634   0.968   5.637  12.050 -0.9685  0.0426  0.7744
19381TIP3    H279635   0.996   5.497  11.999  2.8606  1.6106 -1.9527
19382TIP3   OH279636   1.455   0.000   4.406  0.4197 -0.2179  0.4586
19382TIP3    H179637   1.531   0.028   4.355  0.8545 -0.4099  0.9933
19382TIP3    H279638   1.396  -0.040   4.342  1.6208 -1.8460  0.3151
19383TIP3   OH279639   1.156   6.059   1.656 -0.0758 -0.0437  0.3635
19383TIP3    H179640   1.072   6.030   1.691 -1.0274  1.9369 -0.1411
19383TIP3    H279641   1.203   6.095   1.731  0.2219 -0.9029  0.5956
19384TIP3   OH279642   4.297   5.706   4.901  0.0096 -0.3292 -0.2250
19384TIP3    H179643   4.369   5.650   4.928  2.4993  2.7941  0.3004
19384TIP3    H279644   4.287   5.690   4.807  1.9527 -0.3391 -0.4659
19385TIP3   OH279645   3.153   1.413   4.719  0.9491 -0.0953  0.0834
19385TIP3    H179646   3.171   1.331   4.765  0.0516  0.1571  0.9166
19385TIP3    H279647   3.202   1.479   4.767  0.0044  0.1712  0.7109
19386TIP3   OH279648   1.471   0.448  12.270  0.2489  0.7191 -0.1912
19386TIP3    H179649   1.382   0.461  12.237 -0.0072 -0.4445  0.0162
19386TIP3    H279650   1.480   0.514  12.340  0.1683  1.9834 -1.3268
19387TIP3   OH279651   6.225   1.384  15.605  0.3678 -0.1800 -0.0338
19387TIP3    H179652   6.162   1.372  15.676  2.4162 -1.9717  1.6129
19387TIP3    H279653   6.205   1.314  15.543 -1.1170  1.1014 -1.0890
19388TIP3   OH279654   0.838   0.177  11.596 -0.4167 -0.4315  0.1227
19388TIP3    H179655   0.832   0.081  11.596  2.0566 -0.6541  0.4888
19388TIP3    H279656   0.910   0.196  11.536 -1.3271  1.2865 -0.4934
19389TIP3   OH279657   5.892   4.597  16.954  0.2096  0.1815  0.5587
19389TIP3    H179658   5.815   4.650  16.931 -0.2857 -0.8495 -0.2623
19389TIP3    H279659   5.876   4.571  17.045 -0.9837 -0.9155  0.0718
19390TIP3   OH279660   1.999   6.309   0.707 -0.0252  0.0816  0.1518
19390TIP3    H179661   1.956   6.299   0.792  0.6121  1.0901  0.6015
19390TIP3    H279662   2.051   6.389   0.715  0.2929  0.0180 -1.0835
19391TIP3   OH279663   0.069   2.697  10.229  0.4303  0.1716 -0.1923
19391TIP3    H179664   0.042   2.606  10.215  0.5118  0.3954 -2.0916
19391TIP3    H279665  -0.011   2.742  10.259 -0.4352  0.0699 -2.1936
19392TIP3   OH279666   2.203   4.716  15.753  0.1985 -0.8147  0.0798
19392TIP3    H179667   2.222   4.640  15.809  0.9368 -0.5786  0.1612
19392TIP3    H279668   2.164   4.678  15.674  0.2351 -1.2498  0.2652
19393TIP3   OH279669   1.595   5.021  14.517  0.3760  0.1378 -0.1341
19393TIP3    H179670   1.518   4.984  14.562 -0.8650  0.4457 -1.9315
19393TIP3    H279671   1.607   5.107  14.557 -1.2507  0.7692 -0.9553
19394TIP3   OH279672   4.629   5.494   5.764 -0.4641  0.0580 -0.4322
19394TIP3    H179673   4.537   5.481   5.784  0.0467 -2.1087  0.9427
19394TIP3    H279674   4.673   5.493   5.849  0.9883 -0.9512 -1.1263
19395TIP3   OH279675   6.712   3.395   5.039 -0.2133  0.4933  0.2266
19395TIP3    H179676   6.691   3.308   5.004 -1.4228  0.5324  0.8163
19395TIP3    H279677   6.640   3.451   5.010  0.3441  1.2154  0.2114
19396TIP3   OH279678   3.757   5.505  16.233  0.3921  0.0940  0.2810
19396TIP3    H179679   3.755   5.421  16.280  1.0180 -0.7758 -1.1486
19396TIP3    H279680   3.669   5.539  16.241  0.5012  0.0188  2.1226
19397TIP3   OH279681   5.666   5.553  13.316 -0.4424 -0.6735  0.5936
19397TIP3    H179682   5.647   5.618  13.383 -0.2946  1.3448 -1.2396
19397TIP3    H279683   5.762   5.546  13.316 -0.3221  0.6852 -0.5910
19398TIP3   OH279684   5.243   0.308   3.503 -0.3803 -0.4514 -0.1999
19398TIP3    H179685   5.212   0.220   3.479  0.6415 -0.5772 -1.1565
19398TIP3    H279686   5.231   0.360   3.424  1.8131 -0.5194 -0.6361
19399TIP3   OH279687   6.312   1.927  15.742 -0.5178 -0.6777 -0.5097
19399TIP3    H179688   6.275   1.908  15.656 -2.8717  0.5558  0.1542
19399TIP3    H279689   6.242   1.972  15.789  1.6628  1.3282  1.0628
19400TIP3   OH279690   2.287   6.598   5.460 -0.5035  0.0445 -0.0544
19400TIP3    H179691   2.298   6.505   5.436  0.5048  0.4373 -1.2435
19400TIP3    H279692   2.230   6.633   5.392  0.7869  0.7421 -0.8136
19401TIP3   OH279693   3.205   6.249  12.051  0.1418 -0.0110 -0.6953
19401TIP3    H179694   3.201   6.222  11.959  1.0783 -2.6768 -0.0370
19401TIP3    H279695   3.181   6.170  12.100  1.0218  0.9515  1.3924
19402TIP3   OH279696   6.739   4.706  16.051 -0.2251 -0.2401  0.1152
19402TIP3    H179697   6.802   4.688  16.121 -0.7828  0.5901  0.8644
19402TIP3    H279698   6.660   4.734  16.097 -0.3410  1.1546 -0.8527
19403TIP3   OH279699   5.329   3.178   5.803 -0.0708  0.3773  0.3411
19403TIP3    H179700   5.283   3.208   5.725 -1.3872 -1.5523  0.2930
19403TIP3    H279701   5.396   3.118   5.770 -1.1995 -1.1375  0.6671
19404TIP3   OH279702   2.843   4.084   5.221  0.3878 -0.6929  0.4822
19404TIP3    H179703   2.860   4.124   5.307  0.0855  0.0352  0.2114
19404TIP3    H279704   2.754   4.050   5.228 -0.8416  2.0035 -0.4666
19405TIP3   OH279705   3.217   6.765   0.764 -0.1893  0.1629 -0.3700
19405TIP3    H179706   3.260   6.686   0.732 -0.3424  0.3101 -0.9347
19405TIP3    H279707   3.157   6.733   0.831  0.2096 -0.1284 -0.1448
19406TIP3   OH279708   4.854   1.203  14.444 -0.1213 -0.4871  0.2369
19406TIP3    H179709   4.798   1.253  14.384  1.0887 -1.1830 -1.5559
19406TIP3    H279710   4.901   1.270  14.495 -1.1585  0.1134  0.4272
19407TIP3   OH279711   3.580   0.585  14.769  0.4325 -0.2902  0.2194
19407TIP3    H179712   3.553   0.515  14.828  1.3309 -1.2495 -0.4631
19407TIP3    H279713   3.640   0.638  14.821  1.0042 -0.9668  0.2728
19408TIP3   OH279714   5.339   1.023   2.018 -0.9639 -0.5163  0.0007
19408TIP3    H179715   5.273   1.082   1.980 -0.4096 -0.6934 -1.2964
19408TIP3    H279716   5.395   0.999   1.944 -0.0085 -1.1274  0.8930
19409TIP3   OH279717   1.680   6.168   4.935 -0.2058 -0.2965  0.0931
19409TIP3    H179718   1.760   6.188   4.886  0.1433 -0.9914  0.3631
19409TIP3    H279719   1.706   6.099   4.996 -1.2390 -1.1950 -0.4522
19410TIP3   OH279720   6.424   1.748   2.010  0.1364 -0.5977 -0.1796
19410TIP3    H179721   6.451   1.696   1.935 -0.1861  0.1859 -0.8516
19410TIP3    H279722   6.342   1.707   2.040  0.9766 -1.7524  0.6261
19411TIP3   OH279723   4.583   2.263   4.055  0.5045 -0.0989 -0.0356
19411TIP3    H179724   4.632   2.204   3.997  2.5396 -1.1305  2.5041
19411TIP3    H279725   4.651   2.316   4.097 -0.9394  1.0266  0.9673
19412TIP3   OH279726   5.513   2.454  13.199 -0.1710  0.1334  0.4746
19412TIP3    H179727   5.486   2.523  13.261  0.4302 -0.9316  1.9876
19412TIP3    H279728   5.447   2.386  13.210 -1.4298  0.8824 -1.8733
19413TIP3   OH279729   4.572   1.161  12.611 -0.0784  0.1594  0.1104
19413TIP3    H179730   4.546   1.223  12.543 -1.1383  0.1306  0.4827
19413TIP3    H279731   4.551   1.205  12.694  0.7246 -0.0144  0.4186
19414TIP3   OH279732   5.900   6.656  16.447  0.0502 -0.5430 -0.4241
19414TIP3    H179733   5.937   6.689  16.365 -0.1366 -0.9985 -0.6944
19414TIP3    H279734   5.972   6.610  16.490  0.3310  0.2534 -0.0177
19415TIP3   OH279735   6.123   4.178   0.314  0.5672  0.6256  0.0531
19415TIP3    H179736   6.211   4.184   0.277  1.5972  0.9621  2.4310
19415TIP3    H279737   6.071   4.241   0.262  1.4299 -0.3019 -2.0271
19416TIP3   OH279738   2.359   1.253   4.042  0.0693  0.1195 -0.3395
19416TIP3    H179739   2.374   1.334   3.993 -1.1801 -0.2521 -1.4222
19416TIP3    H279740   2.345   1.187   3.974 -1.7396 -0.4171  0.4881
19417TIP3   OH279741   1.576   1.661  11.273 -0.2557 -0.2639 -0.1054
19417TIP3    H179742   1.530   1.675  11.356  0.9347  1.0506  0.3688
19417TIP3    H279743   1.551   1.735  11.218  2.1832  1.2015  0.6174
19418TIP3   OH279744   2.349   4.897  16.911  0.4356 -0.4712 -0.4745
19418TIP3    H179745   2.285   4.943  16.857  1.0576  1.3006  0.2262
19418TIP3    H279746   2.316   4.909  17.001  0.7047 -1.2590 -0.2655
19419TIP3   OH279747   2.600   6.412   2.965 -0.3022  0.6568  0.8521
19419TIP3    H179748   2.652   6.449   2.894 -1.0893  0.7637  0.3161
19419TIP3    H279749   2.664   6.375   3.025  0.3782  0.5921  0.1025
19420TIP3   OH279750   2.781   1.885  13.399  0.1895  0.5076  0.1551
19420TIP3    H179751   2.859   1.845  13.361 -0.0335 -0.2267  0.4493
19420TIP3    H279752   2.718   1.812  13.407 -1.0552  1.3348 -1.4013
19421TIP3   OH279753   0.481   1.838   2.778 -0.2449  0.3802  0.1038
19421TIP3    H179754   0.434   1.756   2.792  0.2026  0.4017  1.8824
19421TIP3    H279755   0.428   1.885   2.714 -1.0499 -0.8532 -0.1718
19422TIP3   OH279756   2.918   0.052   2.204 -0.4003  0.4808 -0.3761
19422TIP3    H179757   2.966   0.080   2.282  0.6876 -0.0038 -0.8483
19422TIP3    H279758   2.969   0.087   2.131 -1.9110  1.7316 -0.8849
19423TIP3   OH279759   4.567   2.581  13.623  0.1963 -0.4761 -0.2497
19423TIP3    H179760   4.575   2.516  13.693  2.3484 -0.0805 -0.0404
19423TIP3    H279761   4.502   2.643  13.654  0.5043 -0.7750  1.0374
19424TIP3   OH279762   0.943   4.779   2.873  0.3487  0.2197 -0.4356
19424TIP3    H179763   0.903   4.863   2.899  1.4313  1.1196 -1.5465
19424TIP3    H279764   0.942   4.726   2.952 -0.0579  1.4145  0.3799
19425TIP3   OH279765   4.927   5.002  12.285 -0.2891 -0.1323  0.7972
19425TIP3    H179766   4.847   5.010  12.233  0.5754  0.0927 -0.5234
19425TIP3    H279767   4.901   5.031  12.373 -1.3856  1.0131  0.1283
19426TIP3   OH279768   1.834   1.260   2.699  0.6468  0.2823  0.3990
19426TIP3    H179769   1.804   1.297   2.782 -0.0580 -0.0869  0.3174
19426TIP3    H279770   1.812   1.167   2.705  1.9698 -0.0507  0.4086
19427TIP3   OH279771   3.591   0.599   0.269 -0.2584 -0.8798 -0.7786
19427TIP3    H179772   3.580   0.692   0.248  0.2077 -0.9406 -1.3412
19427TIP3    H279773   3.653   0.599   0.342  0.4655 -0.7679 -1.3690
19428TIP3   OH279774   0.740   3.519  12.213 -0.7557 -0.4767  0.0586
19428TIP3    H179775   0.717   3.546  12.124 -0.0610 -0.1935 -0.0424
19428TIP3    H279776   0.701   3.585  12.269 -0.2450 -0.0196 -0.1098
19429TIP3   OH279777   5.573   3.030  12.395 -0.2510 -0.5981  0.7337
19429TIP3    H179778   5.594   2.943  12.362 -0.3161 -0.5285  0.5038
19429TIP3    H279779   5.632   3.088  12.348  0.0117 -0.5492  1.1188
19430TIP3   OH279780   5.750   0.972   0.053  0.1944 -0.0028  0.1740
19430TIP3    H179781   5.710   0.897   0.010 -0.1096  0.6078 -0.6335
19430TIP3    H279782   5.706   1.048   0.014  0.8471  0.6127  0.6139
19431TIP3   OH279783   5.913   5.220  11.501  0.2071 -0.5379 -0.5869
19431TIP3    H179784   5.825   5.245  11.473 -0.3079 -0.8382  0.7200
19431TIP3    H279785   5.934   5.144  11.447 -0.5363 -0.7668 -0.5617
19432TIP3   OH279786   0.071   2.584   5.222 -0.3556 -0.4216  0.2603
19432TIP3    H179787   0.156   2.540   5.225  0.0683  0.4349  1.5171
19432TIP3    H279788   0.033   2.569   5.308 -0.5500  0.9786  0.4313
19433TIP3   OH279789   2.552   4.760  13.726  0.5346  0.2413 -0.2518
19433TIP3    H179790   2.603   4.693  13.771  0.0682  0.4063  0.5504
19433TIP3    H279791   2.578   4.753  13.635  0.6881 -0.8554 -0.1363
19434TIP3   OH279792   1.404   2.654   4.823 -0.1475  0.2125 -0.2615
19434TIP3    H179793   1.450   2.736   4.805  0.0852  0.3273  0.7837
19434TIP3    H279794   1.469   2.586   4.808  0.3125  0.3581  0.9393
19435TIP3   OH279795   6.059   5.255   3.708  0.2492  0.2209 -0.3512
19435TIP3    H179796   5.990   5.190   3.715 -0.2346  0.3995 -2.5692
19435TIP3    H279797   6.080   5.258   3.615  2.8168  0.6472  0.1665
19436TIP3   OH279798   5.225   0.991  11.869 -0.2527  0.4166 -0.1825
19436TIP3    H179799   5.268   0.988  11.954 -0.9936 -1.9540  0.1752
19436TIP3    H279800   5.279   0.937  11.812 -1.2810 -0.3993 -0.4209
19437TIP3   OH279801   4.402   4.718   3.323 -0.0623 -0.1358 -0.7238
19437TIP3    H179802   4.386   4.646   3.262  0.2732 -1.0289  0.2280
19437TIP3    H279803   4.406   4.677   3.409 -0.0479  1.0478 -0.1394
19438TIP3   OH279804   3.099   2.710   0.108 -0.1500  0.6399 -0.6084
19438TIP3    H179805   3.017   2.752   0.136 -0.4233 -0.2629  0.0150
19438TIP3    H279806   3.091   2.620   0.140  0.2202 -0.0297 -2.2841
19439TIP3   OH279807   4.779   5.695  14.123  0.1141 -0.2676 -0.2969
19439TIP3    H179808   4.748   5.677  14.211  0.9176 -0.1174  0.0300
19439TIP3    H279809   4.766   5.614  14.075  1.7313 -1.0897  0.5747
19440TIP3   OH279810   2.919   2.809  15.843  0.5380 -0.3974 -0.1908
19440TIP3    H179811   2.853   2.774  15.902  0.3433  0.9525  0.4420
19440TIP3    H279812   2.973   2.867  15.898  1.8573 -0.9655 -0.8289
19441TIP3   OH279813   4.325   5.073  14.125  0.2771 -0.2941  0.4625
19441TIP3    H179814   4.340   5.043  14.215  0.2432  0.3928  0.7040
19441TIP3    H279815   4.399   5.037  14.075  1.1011  0.5158  1.0540
19442TIP3   OH279816   6.457   6.564   4.746  0.1897 -0.2934  0.3888
19442TIP3    H179817   6.504   6.641   4.779 -0.6789  1.5483 -2.2963
19442TIP3    H279818   6.520   6.521   4.687 -0.5650  0.7491 -1.2542
19443TIP3   OH279819   4.739   4.802  15.175  0.2153  0.3606  0.1562
19443TIP3    H179820   4.740   4.857  15.253  1.7258 -0.3949  0.7054
19443TIP3    H279821   4.770   4.859  15.104 -0.1040  0.7475  0.3269
19444TIP3   OH279822   0.389   3.012   1.373  0.2195  0.3328 -0.1628
19444TIP3    H179823   0.326   3.061   1.427  1.1565  1.3032  0.0923
19444TIP3    H279824   0.348   3.009   1.287 -1.2713 -1.1821  0.5416
19445TIP3   OH279825   6.568   4.499   3.167 -0.8912  0.0252 -0.3198
19445TIP3    H179826   6.492   4.530   3.215 -0.4172 -1.4517  1.4913
19445TIP3    H279827   6.636   4.487   3.234  0.3284 -0.5083 -1.5973
19446TIP3   OH279828   2.914   4.603   3.605 -0.1110 -0.1907 -0.1329
19446TIP3    H179829   2.979   4.672   3.620 -0.8230  1.0068 -2.2123
19446TIP3    H279830   2.960   4.522   3.628  2.2560  0.5793 -1.7375
19447TIP3   OH279831   2.952   2.791  12.986 -0.0218  0.1161 -0.1745
19447TIP3    H179832   2.897   2.796  13.064  0.1530 -1.6984  0.0990
19447TIP3    H279833   2.948   2.879  12.948  0.2239  1.1527  2.0870
19448TIP3   OH279834   0.025   4.228   2.274  0.1540 -0.1451 -0.1462
19448TIP3    H179835   0.094   4.189   2.221 -0.5404 -0.1054 -1.1030
19448TIP3    H279836  -0.053   4.222   2.220 -0.2706  1.2657  0.2622
19449TIP3   OH279837   2.524   1.527  14.615 -0.0154  0.0606  0.2385
19449TIP3    H179838   2.516   1.604  14.560  0.0830  1.0120  1.5260
19449TIP3    H279839   2.612   1.532  14.652 -0.6897  0.3942  1.8561
19450TIP3   OH279840   0.970   2.424  13.319  0.1862 -0.5112  0.4636
19450TIP3    H179841   0.957   2.441  13.226 -0.0917 -0.8952  0.4328
19450TIP3    H279842   0.947   2.507  13.362  2.0444  0.2603  0.0590
19451TIP3   OH279843   2.673   3.325   4.249  0.0137  0.1156  0.3259
19451TIP3    H179844   2.622   3.406   4.254 -1.0503 -0.5496  0.5621
19451TIP3    H279845   2.705   3.323   4.159 -3.7824 -1.3980 -1.2037
19452TIP3   OH279846   3.670   0.639   3.959 -0.3623 -0.0688  0.0694
19452TIP3    H179847   3.638   0.591   4.035  0.5121  1.6636  1.6289
19452TIP3    H279848   3.682   0.573   3.891 -2.7678 -1.4413  0.8566
19453TIP3   OH279849   5.399   4.479  15.435 -0.0540  0.6161 -0.8118
19453TIP3    H179850   5.305   4.492  15.443 -0.3912 -1.3512 -1.2041
19453TIP3    H279851   5.426   4.543  15.368 -1.1230  1.0591 -0.8372
19454TIP3   OH279852   4.912   4.465   2.760 -0.1288  0.1252 -0.6615
19454TIP3    H179853   4.817   4.458   2.755 -0.1273  0.4820 -1.2371
19454TIP3    H279854   4.931   4.556   2.739  0.2921  0.2723  0.2637
19455TIP3   OH279855   3.615   3.973   4.996 -0.0782 -0.0204  0.2430
19455TIP3    H179856   3.556   4.048   4.999  0.1069  0.1736 -0.7288
19455TIP3    H279857   3.573   3.911   4.937  0.2262 -0.2911  0.3081
19456TIP3   OH279858   4.202   5.114  12.825  0.1177  0.2769  0.1675
19456TIP3    H179859   4.214   5.057  12.749  0.9424  0.4417  0.1712
19456TIP3    H279860   4.142   5.066  12.882  1.4156 -0.9558  0.5426
19457TIP3   OH279861   2.973   4.548   2.566  0.2983  0.3948 -0.1277
19457TIP3    H179862   2.942   4.572   2.653 -0.4656  0.8076 -0.4994
19457TIP3    H279863   2.910   4.589   2.506  1.9743  1.9099 -0.9601
19458TIP3   OH279864   4.950   1.208   3.883  0.1630  0.1342 -0.6843
19458TIP3    H179865   4.905   1.256   3.953 -0.4187  0.1552 -1.0637
19458TIP3    H279866   5.042   1.235   3.891  0.1202  0.0559  0.1298
19459TIP3   OH279867   0.479   3.850   0.138 -0.0279  0.2464 -0.0079
19459TIP3    H179868   0.494   3.924   0.079 -3.1529  0.0170 -1.3112
19459TIP3    H279869   0.428   3.887   0.210 -1.0049 -0.4407 -0.3190
19460TIP3   OH279870   2.968   5.506  12.954 -0.4742 -0.2158 -0.6928
19460TIP3    H179871   2.989   5.442  13.023  0.0662  1.0113  0.3237
19460TIP3    H279872   3.053   5.541  12.927 -0.8477  1.2245 -0.0746
19461TIP3   OH279873   5.773   0.916  15.286  0.0231  0.2562 -0.3056
19461TIP3    H179874   5.742   0.844  15.341 -0.3695  0.1085 -0.7132
19461TIP3    H279875   5.789   0.876  15.201 -1.1428  0.8284 -0.8180
19462TIP3   OH279876   6.227   5.484  15.483  0.0019 -0.6115  0.1783
19462TIP3    H179877   6.257   5.423  15.415  1.1458  0.9864 -0.8139
19462TIP3    H279878   6.172   5.547  15.436 -2.3793 -1.6175  1.4384
19463TIP3   OH279879   0.869   2.271  15.111  0.3217 -0.5773 -0.1405
19463TIP3    H179880   0.950   2.318  15.091  1.4881 -1.6222  1.8276
19463TIP3    H279881   0.852   2.218  15.033  1.5265 -0.3241 -0.5925
19464TIP3   OH279882   2.369   0.126  13.363 -0.3679 -0.4696  0.5757
19464TIP3    H179883   2.432   0.064  13.326  0.0083 -0.2537  0.8406
19464TIP3    H279884   2.288   0.110  13.315 -0.3688 -1.4031  0.8908
19465TIP3   OH279885   5.991   4.758  13.184 -0.5119 -0.0683 -0.2219
19465TIP3    H179886   6.068   4.808  13.158 -0.0383  0.6721  2.3277
19465TIP3    H279887   5.917   4.813  13.159 -0.2453 -0.4782 -2.0633
19466TIP3   OH279888   0.814   0.567   5.387 -0.1920 -0.4041 -0.7405
19466TIP3    H179889   0.878   0.614   5.441 -0.1562 -1.4084  0.1100
19466TIP3    H279890   0.730   0.605   5.413 -0.0398  0.2478 -1.1686
19467TIP3   OH279891   4.686   0.553  14.658  0.1716  0.0555 -0.7554
19467TIP3    H179892   4.749   0.598  14.601  0.4442 -0.6867 -1.0622
19467TIP3    H279893   4.737   0.484  14.701  0.3452  1.5742  1.6407
19468TIP3   OH279894   6.036   5.821  14.226  0.0947 -0.1857  0.1499
19468TIP3    H179895   6.004   5.911  14.217  0.1279 -0.1397  0.4896
19468TIP3    H279896   5.984   5.785  14.298 -0.7542 -0.8084 -0.7386
19469TIP3   OH279897   4.791   5.008   2.311  0.0666 -0.6679  0.3051
19469TIP3    H179898   4.799   5.002   2.216  0.5576  3.1338 -0.0296
19469TIP3    H279899   4.700   5.033   2.326  0.4633  0.6254  0.6484
19470TIP3   OH279900   5.876   3.601   6.044 -0.0229 -0.0748  0.1575
19470TIP3    H179901   5.842   3.608   5.955 -1.3774  0.0260  0.6679
19470TIP3    H279902   5.802   3.574   6.097  1.6136 -4.3226  0.6583
19471TIP3   OH279903   4.043   0.337  15.862  0.4872  0.6094 -0.5828
19471TIP3    H179904   4.042   0.287  15.781 -0.4217  0.2652 -0.3696
19471TIP3    H279905   3.952   0.364  15.876  0.6899  0.9708  0.1307
19472TIP3   OH279906   4.042   6.621   3.345  0.4545  0.9065 -0.5736
19472TIP3    H179907   4.089   6.630   3.428  1.3170 -0.6167 -0.8620
19472TIP3    H279908   3.998   6.706   3.333 -0.6856  0.7604  2.0027
19473TIP3   OH279909   5.144   6.613   4.412  0.2540 -0.3646 -0.1620
19473TIP3    H179910   5.059   6.594   4.373 -0.2781  0.1001  0.7378
19473TIP3    H279911   5.182   6.681   4.355  0.7637 -1.7063 -1.5073
19474TIP3   OH279912   1.848   6.495  13.796 -0.0586  0.7338 -0.5908
19474TIP3    H179913   1.828   6.420  13.739 -0.9044  0.2756  0.2716
19474TIP3    H279914   1.812   6.571  13.749 -3.3482  0.0346  0.5164
19475TIP3   OH279915   0.699   4.081  16.804  0.5420 -0.6773  0.4819
19475TIP3    H179916   0.684   4.042  16.718  4.5699 -1.1675 -0.2003
19475TIP3    H279917   0.659   4.168  16.799 -1.0621 -1.4607 -1.1140
19476TIP3   OH279918   4.997   5.924  15.677 -0.1329  0.2624  0.6131
19476TIP3    H179919   5.003   5.890  15.587  1.3372  0.0205  0.7686
19476TIP3    H279920   4.925   5.876  15.716 -0.2899 -0.1981 -0.2097
19477TIP3   OH279921   3.573   2.487  13.509  0.5579  0.0351  0.1786
19477TIP3    H179922   3.537   2.536  13.435 -1.3975  2.0342  2.2963
19477TIP3    H279923   3.622   2.414  13.468  0.2679  1.4655 -3.0284
19478TIP3   OH279924   6.663   1.391  13.253 -0.3777  0.4711  0.7237
19478TIP3    H179925   6.658   1.297  13.273  0.9906  0.7107  2.4621
19478TIP3    H279926   6.756   1.412  13.261 -0.8449  2.3053  2.1473
19479TIP3   OH279927   2.345   6.245  11.338 -0.2171  0.9328  0.6109
19479TIP3    H179928   2.385   6.308  11.278 -0.7258  0.6717 -0.0078
19479TIP3    H279929   2.401   6.168  11.334 -0.7513  0.5854 -0.2175
19480TIP3   OH279930   0.176   4.146   6.079  0.4207  0.3944  0.3723
19480TIP3    H179931   0.209   4.086   6.147  2.1572  0.6685 -0.1712
19480TIP3    H279932   0.198   4.103   5.997 -2.2438 -0.2373 -0.0964
19481TIP3   OH279933   0.164   2.429   2.984  0.7697 -0.2245  0.0983
19481TIP3    H179934   0.114   2.416   3.064  0.2074 -0.4773 -0.2875
19481TIP3    H279935   0.242   2.477   3.012  0.2004  0.3878  0.6676
19482TIP3   OH279936   0.787   2.671  14.290 -0.1141  0.1286 -0.2620
19482TIP3    H179937   0.719   2.720  14.335  1.8813  1.0502  2.0156
19482TIP3    H279938   0.820   2.731  14.222  0.6980  1.1022  0.9347
19483TIP3   OH279939   5.417   4.309   1.584 -0.1689  0.4461  0.5384
19483TIP3    H179940   5.411   4.403   1.567 -0.5397  0.2605 -0.3965
19483TIP3    H279941   5.345   4.290   1.644 -0.5461  0.6287  0.1426
19484TIP3   OH279942   5.461   4.672  11.676  0.6920  0.1187 -0.3060
19484TIP3    H179943   5.514   4.743  11.715 -0.7019  0.5289  0.9334
19484TIP3    H279944   5.396   4.717  11.623 -1.3303 -0.0447  1.8864
19485TIP3   OH279945   4.723   3.543  11.800  0.4218  0.4969 -0.0200
19485TIP3    H179946   4.817   3.554  11.815  1.3172 -2.1321 -2.5307
19485TIP3    H279947   4.716   3.523  11.706 -2.6886  0.6795  0.0481
19486TIP3   OH279948   0.082   6.484   0.121 -0.0171  0.0210 -0.1209
19486TIP3    H179949   0.174   6.484   0.145  0.4926 -0.5848 -1.8970
19486TIP3    H279950   0.072   6.406   0.065 -1.6132  0.0603  0.0610
19487TIP3   OH279951   4.054   2.802   2.526 -0.3488 -0.1283 -0.3910
19487TIP3    H179952   3.990   2.742   2.564 -1.1311  0.5142 -0.6641
19487TIP3    H279953   4.132   2.791   2.580 -0.2322 -1.9021 -0.8499
19488TIP3   OH279954   6.252   0.924  14.111  0.0134  0.2481 -0.2444
19488TIP3    H179955   6.190   0.853  14.125  1.0907 -0.2233  2.9500
19488TIP3    H279956   6.280   0.914  14.020 -2.2256 -1.4188 -0.8269
19489TIP3   OH279957   6.316   6.801  16.412 -0.5457  0.3139 -0.0887
19489TIP3    H179958   6.400   6.762  16.438 -1.8404 -0.9131  2.6100
19489TIP3    H279959   6.318   6.800  16.316  2.0783 -0.6256 -0.0972
19490TIP3   OH279960   5.065   3.128   2.226  0.3937  0.6794  0.1573
19490TIP3    H179961   5.106   3.050   2.264  0.8376  0.6188 -0.4358
19490TIP3    H279962   5.135   3.193   2.223  0.1905  0.8939  0.0534
19491TIP3   OH279963   4.958   4.931   5.370  0.3846  0.5318 -0.2260
19491TIP3    H179964   5.039   4.977   5.350  0.9865 -0.2377  0.4312
19491TIP3    H279965   4.893   5.001   5.381  0.7834  1.1246 -1.4259
19492TIP3   OH279966   6.128   4.300   5.444  0.1445  0.7453 -0.1435
19492TIP3    H179967   6.045   4.335   5.476 -0.9159  2.1767 -3.9850
19492TIP3    H279968   6.175   4.375   5.409  1.7411 -0.4903 -0.8122
19493TIP3   OH279969   3.679   6.181   3.565 -0.6054  0.3389 -0.5257
19493TIP3    H179970   3.749   6.177   3.500 -0.1668 -1.1446  0.0032
19493TIP3    H279971   3.723   6.175   3.650 -1.2720  0.8621 -0.1238
19494TIP3   OH279972   0.359   4.727  12.025  0.1065 -0.6501  0.2679
19494TIP3    H179973   0.453   4.732  12.007  0.1707  0.1871  0.7728
19494TIP3    H279974   0.335   4.816  12.049 -0.8659 -0.8162 -0.0625
19495TIP3   OH279975   5.590   2.126   5.895  0.0621  0.3819  0.3982
19495TIP3    H179976   5.629   2.196   5.843  0.6925 -0.5134 -0.3755
19495TIP3    H279977   5.655   2.108   5.963  0.4778 -0.2917 -0.1641
19496TIP3   OH279978   4.651   1.636   4.114  0.1555  0.2981 -0.1417
19496TIP3    H179979   4.605   1.585   4.180  0.3979  1.2363  0.7963
19496TIP3    H279980   4.744   1.622   4.134  0.2850 -0.9229 -1.4949
19497TIP3   OH279981   6.334   0.116   1.393 -0.7075 -0.0964 -0.0851
19497TIP3    H179982   6.377   0.033   1.416 -2.9963 -0.9037  1.7006
19497TIP3    H279983   6.340   0.168   1.474  1.9080  2.1776 -1.5583
19498TIP3   OH279984   1.249   0.187  16.763 -0.2768 -0.4010 -0.8420
19498TIP3    H179985   1.323   0.174  16.703  1.6716  0.2576  1.2592
19498TIP3    H279986   1.216   0.274  16.742 -0.6270 -0.7889 -1.9584
19499TIP3   OH279987   6.667   1.124  13.388  0.2036 -0.1641  0.2619
19499TIP3    H179988   6.700   1.049  13.338 -0.2924 -0.1486 -0.0983
19499TIP3    H279989   6.728   1.132  13.462  1.3704  0.2586 -0.7207
19500TIP3   OH279990   4.578   2.858   5.936  0.0770  0.0866 -0.0397
19500TIP3    H179991   4.572   2.891   5.846  0.7370  0.2752 -0.0214
19500TIP3    H279992   4.645   2.913   5.977  0.5327 -0.6826  0.2630
19501TIP3   OH279993   2.346   1.247   3.585  0.4069  0.0283 -0.1048
19501TIP3    H179994   2.262   1.283   3.559  0.7356  0.4726 -0.5747
19501TIP3    H279995   2.405   1.323   3.587  0.2491  0.1733  2.6893
19502TIP3   OH279996   3.589   3.702   0.404 -0.3524 -0.5317  0.3165
19502TIP3    H179997   3.602   3.615   0.366 -2.7131 -1.2740  1.0391
19502TIP3    H279998   3.614   3.762   0.334 -0.1612 -1.8143 -0.7624
19503TIP3   OH279999   3.070   4.450   4.855 -0.0473 -0.3826  0.1430
19503TIP3    H180000   3.000   4.513   4.872 -0.6172 -1.1825  0.8760
19503TIP3    H280001   3.120   4.446   4.936  0.3900 -0.3867 -0.1228
19504TIP3   OH280002   1.850   0.109   3.132 -0.2533 -0.4904  0.5361
19504TIP3    H180003   1.871   0.060   3.052  1.1465  1.1445 -0.1468
19504TIP3    H280004   1.799   0.047   3.185 -0.3079 -1.9694 -1.1546
19505TIP3   OH280005   2.951   1.151  11.929  0.4740 -0.1612 -0.0984
19505TIP3    H180006   2.882   1.085  11.919 -1.0473  0.8596  2.6001
19505TIP3    H280007   2.961   1.188  11.841 -2.3650 -0.4427 -0.6575
19506TIP3   OH280008   2.690   0.649  13.415  0.0485 -0.2626 -0.2511
19506TIP3    H180009   2.629   0.670  13.485 -0.8901 -2.3219 -0.3832
19506TIP3    H280010   2.774   0.686  13.444 -0.6042  0.0598  1.3127
19507TIP3   OH280011   0.275   1.247   1.935  0.0548  0.1716  0.1225
19507TIP3    H180012   0.282   1.323   1.993 -1.0398  0.3493  0.0439
19507TIP3    H280013   0.296   1.172   1.991 -0.5701  0.3789  0.6500
19508TIP3   OH280014   2.567   5.454  11.811 -0.2308 -0.5239  0.4283
19508TIP3    H180015   2.627   5.491  11.745 -1.5412  1.8705  0.4546
19508TIP3    H280016   2.490   5.427  11.761  0.7080 -3.4800  0.4093
19509TIP3   OH280017   3.893   1.791   0.063 -0.2488 -0.3801 -0.6828
19509TIP3    H180018   3.864   1.835   0.143  0.2749 -0.1506 -0.6156
19509TIP3    H280019   3.835   1.716   0.054  0.9270 -1.5688  1.0074
19510TIP3   OH280020   4.585   6.170   0.571 -0.0862  0.2710  0.1572
19510TIP3    H180021   4.648   6.113   0.614 -0.4842 -0.5306 -0.3095
19510TIP3    H280022   4.516   6.112   0.540 -0.8931  1.0877  0.3449
19511TIP3   OH280023   0.483   0.316   0.501  0.0230  0.5422 -0.8802
19511TIP3    H180024   0.440   0.264   0.433 -2.3657  0.4701  0.5853
19511TIP3    H280025   0.507   0.397   0.457 -2.8658  1.1474 -1.5779
19512TIP3   OH280026   0.594   0.224   2.478  0.2873 -0.0754 -0.1046
19512TIP3    H180027   0.559   0.247   2.564  1.2537  0.9434  0.0313
19512TIP3    H280028   0.609   0.307   2.435  0.9414 -0.5411 -0.7992
19513TIP3   OH280029   1.316   2.841  14.330 -0.3576  0.2987  0.4605
19513TIP3    H180030   1.321   2.754  14.292 -0.5707 -0.1833  1.5060
19513TIP3    H280031   1.223   2.865  14.324  0.0174  1.4564 -1.9392
19514TIP3   OH280032   3.181   3.951  11.745  0.2017 -0.6388 -0.2118
19514TIP3    H180033   3.235   3.988  11.815 -0.7374 -0.2675  0.3343
19514TIP3    H280034   3.157   4.027  11.691 -2.2498 -0.2758  1.2632
19515TIP3   OH280035   4.394   3.983   5.143  0.0226  0.3425  0.4600
19515TIP3    H180036   4.447   4.019   5.072 -0.9205  1.1945  0.1668
19515TIP3    H280037   4.367   3.897   5.111  0.6490  0.1957  0.3237
19516TIP3   OH280038   0.323   4.375   6.118  0.1595  0.5810 -0.0945
19516TIP3    H180039   0.267   4.298   6.111  3.2116 -1.6914 -1.8121
19516TIP3    H280040   0.274   4.445   6.074 -2.2391 -0.5887  0.5443
19517TIP3   OH280041   0.170   2.572  11.644  0.8174  0.2264 -0.1619
19517TIP3    H180042   0.180   2.664  11.668 -0.8457  0.3980  0.0248
19517TIP3    H280043   0.135   2.531  11.723  1.8350 -0.6437 -0.1438
19518TIP3   OH280044   1.609   6.447  16.907  0.3649  0.4620  0.5241
19518TIP3    H180045   1.550   6.409  16.842 -0.0643  2.1974 -0.1631
19518TIP3    H280046   1.589   6.541  16.906 -0.8416  0.4297  4.3430
19519TIP3   OH280047   3.953   5.129  14.609  0.2649 -0.0833 -0.4360
19519TIP3    H180048   3.874   5.088  14.643  1.4925 -1.9712  0.2914
19519TIP3    H280049   3.922   5.190  14.542 -1.8371 -0.1545  0.4086
19520TIP3   OH280050   6.632   2.694   6.518  0.1912  0.5162  0.1643
19520TIP3    H180051   6.608   2.786   6.520  0.2404  0.6005 -1.7858
19520TIP3    H280052   6.554   2.648   6.550 -0.3122  1.1438 -0.1386
19521TIP3   OH280053   5.142   5.295  14.981 -0.1518 -0.4802 -0.2861
19521TIP3    H180054   5.154   5.310  15.075  1.5965 -1.1496 -0.3468
19521TIP3    H280055   5.184   5.370  14.939  0.8118 -1.1243 -0.5176
19522TIP3   OH280056   5.057   0.836  12.919 -0.8208 -0.0717  0.5547
19522TIP3    H180057   5.061   0.813  13.012 -0.0870 -0.9872  0.3117
19522TIP3    H280058   5.088   0.757  12.874  0.4199  0.9176 -0.3934
19523TIP3   OH280059   2.538   3.801   6.622 -0.0971  0.3634  0.3736
19523TIP3    H180060   2.564   3.855   6.697 -1.3784  0.3759  0.8335
19523TIP3    H280061   2.586   3.719   6.633  0.2309  0.6117  0.8286
19524TIP3   OH280062   0.446   2.121  12.441 -0.4160 -0.2999  0.1467
19524TIP3    H180063   0.485   2.089  12.359 -0.0583  0.6085 -0.0411
19524TIP3    H280064   0.479   2.210  12.451 -0.6468 -0.3149  1.1652
19525TIP3   OH280065   5.259   3.262   6.690  0.2962  0.5155 -0.7562
19525TIP3    H180066   5.219   3.214   6.762 -0.7121  0.6049 -1.2411
19525TIP3    H280067   5.245   3.354   6.713  0.6192  0.5542 -0.7133
19526TIP3   OH280068   2.226   3.003  14.927 -0.1844 -0.2405 -0.0527
19526TIP3    H180069   2.291   3.003  14.997 -0.6762  0.8970  0.4140
19526TIP3    H280070   2.274   3.029  14.849  0.0861 -0.2271  0.1190
19527TIP3   OH280071   4.249   1.485  17.097 -0.1370  0.0638 -0.3726
19527TIP3    H180072   4.342   1.466  17.104  0.0846  1.2515  0.1098
19527TIP3    H280073   4.233   1.492  17.003  0.2660 -0.0946 -0.4544
19528TIP3   OH280074   4.849   5.367  15.885  0.5771  0.2079  0.3195
19528TIP3    H180075   4.823   5.459  15.894  1.3155  0.2887  1.8043
19528TIP3    H280076   4.767   5.320  15.872  0.1512  1.0041  0.0526
19529TIP3   OH280077   1.007   0.909  15.478 -0.3003 -0.1665  0.0725
19529TIP3    H180078   0.930   0.863  15.511  0.2001 -0.3233  1.0724
19529TIP3    H280079   0.974   0.993  15.448 -0.6874  0.3273  1.7732
19530TIP3   OH280080   6.702   1.098   1.710  0.2148 -0.4856 -0.1578
19530TIP3    H180081   6.768   1.115   1.643  2.0057  0.6012  1.7888
19530TIP3    H280082   6.750   1.092   1.792 -2.1495  1.7695  1.5993
19531TIP3   OH280083   3.220   4.803  13.928 -0.2482  0.8161 -0.3261
19531TIP3    H180084   3.231   4.772  13.838 -0.0571 -1.4240  0.4267
19531TIP3    H280085   3.302   4.782  13.972 -0.3648  1.8219  0.4132
19532TIP3   OH280086   2.697   5.880  12.838 -0.3405  0.1398  0.2499
19532TIP3    H180087   2.715   5.850  12.927 -1.6121 -2.6204 -0.3062
19532TIP3    H280088   2.649   5.962  12.849  1.7964  1.2563  1.9734
19533TIP3   OH280089   4.472   1.766   3.649  0.2662 -0.0655 -0.4154
19533TIP3    H180090   4.384   1.791   3.620 -0.5414 -1.1874  0.9655
19533TIP3    H280091   4.480   1.674   3.627  0.2597 -0.5243  1.3245
19534TIP3   OH280092   1.780   4.517   3.742 -0.5298  0.6991 -0.1407
19534TIP3    H180093   1.740   4.434   3.767 -0.5562 -0.3782 -3.2428
19534TIP3    H280094   1.708   4.581   3.746 -0.6829  0.4516  1.5626
19535TIP3   OH280095   0.573   3.195  13.016  0.1020 -0.1180 -0.0171
19535TIP3    H180096   0.636   3.244  12.963  1.2990 -0.5201  0.9843
19535TIP3    H280097   0.612   3.192  13.103 -1.6773  0.2653  0.8417
19536TIP3   OH280098   1.927   2.738  11.659  0.2263 -0.7659  0.6886
19536TIP3    H180099   1.975   2.662  11.692  2.5187 -0.4941 -1.6221
19536TIP3    H280100   1.894   2.710  11.574  0.1601  0.4660  0.2919
19537TIP3   OH280101   2.350   3.514   1.245  0.3943 -0.0471  0.8254
19537TIP3    H180102   2.424   3.521   1.305 -0.0194 -2.0377  1.6229
19537TIP3    H280103   2.323   3.605   1.230  2.3402  0.6639  1.3003
19538TIP3   OH280104   3.566   5.353   4.234  0.4110 -0.3653  0.5200
19538TIP3    H180105   3.572   5.435   4.282 -1.2370 -0.5979  1.2041
19538TIP3    H280106   3.646   5.349   4.183 -0.0419  2.3331 -0.5736
19539TIP3   OH280107   5.384   0.851   1.210 -0.0862 -1.1407  0.0629
19539TIP3    H180108   5.407   0.927   1.157 -2.5758 -0.7455 -0.5926
19539TIP3    H280109   5.442   0.856   1.286 -1.2289  2.4298  0.9068
19540TIP3   OH280110   2.327   6.667   6.394  0.3665  0.2123  0.0173
19540TIP3    H180111   2.335   6.609   6.470  0.1571  0.0243 -0.1034
19540TIP3    H280112   2.239   6.704   6.401  1.4677  2.8156  1.7189
19541TIP3   OH280113   5.414   1.354  16.944 -0.6217 -0.1523  0.0577
19541TIP3    H180114   5.493   1.404  16.921 -1.0647 -0.0852 -1.4680
19541TIP3    H280115   5.377   1.400  17.018  0.3372  0.2959  0.2745
19542TIP3   OH280116   3.703   5.479  14.107  0.5183  0.0523 -0.0365
19542TIP3    H180117   3.714   5.497  14.014 -0.0656 -1.7285 -0.4946
19542TIP3    H280118   3.774   5.528  14.150  0.5966  1.1541 -1.3672
19543TIP3   OH280119   5.777   4.042   6.168 -0.2154 -0.1948  0.3220
19543TIP3    H180120   5.777   4.025   6.262  0.7747  0.1947  0.3991
19543TIP3    H280121   5.848   4.105   6.155 -1.0480  0.6036 -0.5355
19544TIP3   OH280122   4.668   5.875  13.942 -0.0752  0.0919  0.3225
19544TIP3    H180123   4.701   5.834  14.022 -0.6879  1.8860  1.5537
19544TIP3    H280124   4.576   5.850  13.938 -0.4336  1.1979  1.0406
19545TIP3   OH280125   1.053   6.775  15.094  0.1456  0.2235 -0.5099
19545TIP3    H180126   0.973   6.802  15.048 -0.6929 -1.1749  0.0717
19545TIP3    H280127   1.123   6.787  15.029 -0.5257  1.3621 -1.0631
19546TIP3   OH280128   1.810   3.011   4.850  0.0669  0.5259 -0.4361
19546TIP3    H180129   1.764   3.062   4.783 -1.2295 -0.7791 -0.5815
19546TIP3    H280130   1.789   3.053   4.933 -1.1166  0.1740 -0.5423
19547TIP3   OH280131   6.242   1.764   3.111  0.1971 -0.0258  0.0743
19547TIP3    H180132   6.256   1.857   3.094 -0.3078 -0.0041 -0.2250
19547TIP3    H280133   6.305   1.720   3.054  0.0412  0.1182 -0.2140
19548TIP3   OH280134   2.859   1.167   6.525  0.2043 -0.0326 -0.4237
19548TIP3    H180135   2.821   1.148   6.439 -1.3918 -0.8673  0.4386
19548TIP3    H280136   2.929   1.102   6.536  0.1633 -0.1622 -0.9148
19549TIP3   OH280137   0.041   1.148   3.848 -0.9471  0.1192 -0.1052
19549TIP3    H180138   0.100   1.072   3.845  0.3968  1.1188 -0.0900
19549TIP3    H280139   0.023   1.168   3.756 -1.0535 -0.0335 -0.1181
19550TIP3   OH280140   4.908   1.481   2.237 -0.2907  0.5339 -0.2256
19550TIP3    H180141   4.955   1.398   2.242  1.4832  1.5455  1.2493
19550TIP3    H280142   4.845   1.477   2.309 -0.3172  0.4003 -0.2561
19551TIP3   OH280143   2.547   3.226   5.515  0.0608 -0.5025 -0.0546
19551TIP3    H180144   2.556   3.131   5.506  1.3110 -0.3809 -0.2713
19551TIP3    H280145   2.557   3.242   5.609  0.0818 -0.5619 -0.0462
19552TIP3   OH280146   5.277   1.375   0.301 -0.1133 -0.2374  0.3733
19552TIP3    H180147   5.242   1.341   0.219  0.7531  0.7436 -0.4338
19552TIP3    H280148   5.234   1.323   0.369 -0.0764 -1.7715 -0.7298
19553TIP3   OH280149   5.992   5.784  12.925 -0.5508 -0.0266  0.2832
19553TIP3    H180150   6.051   5.844  12.970 -1.8110  0.7656  0.9249
19553TIP3    H280151   5.972   5.716  12.990 -1.5159  0.5259  0.5740
19554TIP3   OH280152   3.403   0.882  11.158 -0.1518 -0.0292 -0.0170
19554TIP3    H180153   3.336   0.817  11.134 -0.1952 -0.1114  0.3163
19554TIP3    H280154   3.484   0.846  11.122 -0.2189 -0.1388 -0.0616
19555TIP3   OH280155   4.399   6.229  16.939  0.1603 -0.0049  0.1299
19555TIP3    H180156   4.463   6.159  16.954  2.1668  1.0694 -2.4563
19555TIP3    H280157   4.430   6.302  16.992  0.0132 -0.0507  0.2781
19556TIP3   OH280158   2.423   2.063  13.336  0.3780  0.3243 -0.1438
19556TIP3    H180159   2.329   2.069  13.358 -0.0382 -1.1815 -1.3574
19556TIP3    H280160   2.434   2.124  13.263 -0.0307 -0.6518 -1.0453
19557TIP3   OH280161   6.199   3.773   2.614 -0.2411 -0.1692 -0.6448
19557TIP3    H180162   6.290   3.800   2.605  0.5107 -2.3112 -0.0498
19557TIP3    H280163   6.186   3.708   2.545 -0.4545 -1.8860  0.9445
19558TIP3   OH280164   3.823   0.716   4.175 -0.2482  0.2624 -0.3058
19558TIP3    H180165   3.764   0.686   4.105  0.4399  0.5080 -0.9955
19558TIP3    H280166   3.876   0.784   4.134  1.1396 -0.5688  0.0323
19559TIP3   OH280167   4.284   5.345  12.954 -0.5066  0.3324  0.2091
19559TIP3    H180168   4.304   5.413  12.890  1.5511 -0.2551  0.1461
19559TIP3    H280169   4.273   5.265  12.902 -1.8006  0.3796  0.3765
19560TIP3   OH280170   3.353   6.822  16.296 -0.0035 -0.0366  0.2776
19560TIP3    H180171   3.332   6.839  16.204  0.9773  1.5917  0.3306
19560TIP3    H280172   3.313   6.895  16.343  0.1196 -0.4821  1.0864
19561TIP3   OH280173   2.191   0.122  11.464 -0.2732  0.2320  0.2107
19561TIP3    H180174   2.248   0.067  11.411 -1.1860 -1.9322  1.3465
19561TIP3    H280175   2.186   0.078  11.549 -0.3164  2.6007  1.5568
19562TIP3   OH280176   6.044   1.142   3.450  0.4651  0.0424 -0.1960
19562TIP3    H180177   5.998   1.107   3.374 -3.0629  0.6291  1.4710
19562TIP3    H280178   6.073   1.229   3.423 -2.1762  0.9201 -0.5224
19563TIP3   OH280179   6.158   6.651  16.959 -0.7553  0.2293  0.4703
19563TIP3    H180180   6.166   6.661  16.864  2.6127 -2.2180  0.2922
19563TIP3    H280181   6.081   6.595  16.971  0.0756 -1.3794 -1.1229
19564TIP3   OH280182   1.787   5.866  13.435 -0.3592  0.4011  0.9130
19564TIP3    H180183   1.830   5.901  13.513  2.1385 -0.4795  0.0255
19564TIP3    H280184   1.815   5.775  13.431 -0.5167  0.3937 -0.9420
19565TIP3   OH280185   6.221   2.047   3.001  0.1458 -0.1007  0.1198
19565TIP3    H180186   6.184   2.119   3.052 -1.1311  0.1255 -1.0650
19565TIP3    H280187   6.304   2.081   2.967 -0.1716  0.6138  0.0410
19566TIP3   OH280188   5.177   0.462  10.802 -0.1115 -0.0880  0.6124
19566TIP3    H180189   5.128   0.544  10.797 -2.0458 -1.1620  0.8528
19566TIP3    H280190   5.264   0.484  10.770 -0.8471  1.8488 -0.2216
19567TIP3   OH280191   3.973   1.413   1.858 -0.0241  0.3808 -0.1963
19567TIP3    H180192   3.995   1.485   1.917 -0.8489 -1.0999  2.0882
19567TIP3    H280193   4.053   1.362   1.850  0.5657  1.5007 -1.8322
19568TIP3   OH280194   1.933   0.666   5.964  0.8703 -0.4647 -0.3360
19568TIP3    H180195   1.906   0.665   5.873  0.2829 -0.9678 -0.1647
19568TIP3    H280196   1.984   0.586   5.975 -0.4720 -1.3047  0.1651
19569TIP3   OH280197   3.940   6.252  14.029 -0.3862 -0.2810  0.5054
19569TIP3    H180198   4.001   6.200  13.975  0.7754 -0.5918  2.0520
19569TIP3    H280199   3.882   6.294  13.965  0.0958 -1.6621 -0.9167
19570TIP3   OH280200   1.989   4.183  11.606 -0.3979 -0.6505  0.3981
19570TIP3    H180201   2.042   4.114  11.645  3.0682  1.7745  0.4537
19570TIP3    H280202   1.954   4.231  11.681  0.0307 -0.3682  0.4196
19571TIP3   OH280203   4.010   0.715  15.188 -0.2086 -0.1205 -0.6909
19571TIP3    H180204   3.934   0.659  15.206  0.0397  0.1171  1.4022
19571TIP3    H280205   4.029   0.701  15.095 -1.2401 -2.1442 -0.6562
19572TIP3   OH280206   4.670   5.270   1.650 -0.7263 -0.6159  0.4328
19572TIP3    H180207   4.709   5.321   1.579 -0.5476 -0.5236  0.5956
19572TIP3    H280208   4.728   5.195   1.661 -1.2697 -1.1358 -0.1536
19573TIP3   OH280209   0.316   6.250   0.500 -1.3090  0.9190 -0.1824
19573TIP3    H180210   0.226   6.245   0.467 -1.6480 -1.0975  0.9365
19573TIP3    H280211   0.326   6.174   0.557  1.3385  0.7109 -0.7906
19574TIP3   OH280212   0.543   1.794  16.905 -0.8181 -0.2557 -0.3545
19574TIP3    H180213   0.545   1.876  16.954 -0.7984  0.1204 -0.9692
19574TIP3    H280214   0.479   1.740  16.950 -1.2345  0.3058 -0.2584
19575TIP3   OH280215   6.221   2.208   0.854  0.3297 -0.0374 -0.0276
19575TIP3    H180216   6.188   2.232   0.941  1.9397  0.5452  0.4608
19575TIP3    H280217   6.271   2.284   0.825  1.2493 -0.8660 -0.7065
19576TIP3   OH280218   1.677   5.185   5.703 -0.0494  0.1922  0.0014
19576TIP3    H180219   1.682   5.106   5.757  0.1714 -0.2354 -0.6267
19576TIP3    H280220   1.612   5.240   5.747  1.5700  0.7509  1.8150
19577TIP3   OH280221   6.309   1.889  16.041  0.3337  0.1741 -0.0823
19577TIP3    H180222   6.245   1.821  16.018  1.2228 -1.0534  0.8944
19577TIP3    H280223   6.370   1.889  15.967  1.2696 -1.3353  0.6352
19578TIP3   OH280224   6.162   2.089   3.767 -0.4300  0.3842  0.1477
19578TIP3    H180225   6.221   2.106   3.840  0.1553 -0.1917 -0.1931
19578TIP3    H280226   6.088   2.043   3.807 -0.6877  1.1479  0.5807
19579TIP3   OH280227   3.133   5.073   2.591  0.3247 -0.2935 -0.4111
19579TIP3    H180228   3.148   5.123   2.511  0.4955  0.0354 -0.1735
19579TIP3    H280229   3.153   4.982   2.567  0.5822 -0.1644 -0.6790
19580TIP3   OH280230   2.020   0.233  11.884  0.1605 -0.1362  0.7865
19580TIP3    H180231   1.998   0.204  11.973 -0.7878  3.4538  1.9342
19580TIP3    H280232   2.078   0.308  11.898  0.4121  0.1892 -1.6568
19581TIP3   OH280233   4.372   3.924   2.571 -0.0415 -0.0039  0.2960
19581TIP3    H180234   4.363   3.883   2.485 -3.0903 -1.3657  1.1354
19581TIP3    H280235   4.433   3.867   2.618  1.3102  0.5122 -0.7494
19582TIP3   OH280236   6.400   0.842  13.072 -0.2458  0.0687  0.6936
19582TIP3    H180237   6.419   0.808  12.984 -1.7556  1.5257 -0.2446
19582TIP3    H280238   6.367   0.766  13.120  0.4804 -0.7207 -0.0270
19583TIP3   OH280239   2.300   5.428   4.842 -0.4627  0.0069  0.4682
19583TIP3    H180240   2.334   5.379   4.768  0.9913  0.2425  0.9454
19583TIP3    H280241   2.206   5.409   4.843 -0.2607 -1.1503 -0.5495
19584TIP3   OH280242   5.567   1.166  13.279 -0.5159 -0.2404 -0.5071
19584TIP3    H180243   5.489   1.221  13.270  0.0962  0.7778  0.3103
19584TIP3    H280244   5.622   1.188  13.204 -0.2680  0.2715 -0.1763
19585TIP3   OH280245   2.978   5.177  14.969  0.1075  0.0131  0.2882
19585TIP3    H180246   2.887   5.175  14.937  0.1819 -0.2558  0.0928
19585TIP3    H280247   2.978   5.119  15.045  0.2355 -0.4215 -0.0370
19586TIP3   OH280248   1.290   1.775   2.673  0.2952 -0.2687 -0.6481
19586TIP3    H180249   1.354   1.737   2.733 -1.0085 -0.0181  0.9667
19586TIP3    H280250   1.343   1.818   2.605  1.8085 -1.9281 -0.5986
19587TIP3   OH280251   3.310   1.948   4.338  0.6529 -0.5580  0.3007
19587TIP3    H180252   3.258   2.027   4.350 -1.3233 -2.1528  3.4728
19587TIP3    H280253   3.260   1.896   4.274 -0.2465 -0.8923  1.2426
19588TIP3   OH280254   5.988   1.969  13.258 -0.4693 -0.1251 -0.0341
19588TIP3    H180255   5.913   1.978  13.317 -0.7362  1.1328 -0.5419
19588TIP3    H280256   5.949   1.970  13.170  0.0865 -0.2318 -0.2869
19589TIP3   OH280257   1.225   3.350  12.937 -0.3035 -0.5195  0.3047
19589TIP3    H180258   1.193   3.439  12.942 -0.5830 -0.4269 -2.2409
19589TIP3    H280259   1.318   3.356  12.962 -0.1124  0.6296 -0.6385
19590TIP3   OH280260   0.095   6.475  16.100 -0.5973 -0.0087 -0.8298
19590TIP3    H180261   0.128   6.565  16.103  1.8484 -0.8055 -1.6853
19590TIP3    H280262   0.043   6.472  16.019 -0.2070  0.4933 -1.1099
19591TIP3   OH280263   0.222   3.091   3.717  0.0037  0.2120 -0.5331
19591TIP3    H180264   0.137   3.116   3.681 -1.1193 -1.2643  0.9454
19591TIP3    H280265   0.275   3.068   3.641 -1.5955 -0.7803 -1.3941
19592TIP3   OH280266   2.151   1.682   3.632 -0.0016 -0.1844  0.1207
19592TIP3    H180267   2.185   1.772   3.632 -0.9844  0.2097 -0.4646
19592TIP3    H280268   2.108   1.673   3.717 -0.6618  0.2110 -0.1660
19593TIP3   OH280269   2.526   5.078  11.798 -0.1550 -0.4127 -0.1692
19593TIP3    H180270   2.590   5.126  11.747 -1.3801  2.4537  0.7746
19593TIP3    H280271   2.556   4.987  11.797  1.5985  0.1005 -3.1648
19594TIP3   OH280272   1.081   1.830   0.861  0.1846  0.2619 -0.4622
19594TIP3    H180273   1.021   1.761   0.887 -0.5270  1.2358  0.5853
19594TIP3    H280274   1.059   1.848   0.770 -0.1494 -0.3574 -0.5082
19595TIP3   OH280275   2.135   2.597   3.234 -0.1160  0.4004  0.1816
19595TIP3    H180276   2.160   2.685   3.262  0.5193 -0.0694  1.1372
19595TIP3    H280277   2.084   2.610   3.154 -2.0398  1.8135  1.5507
19596TIP3   OH280278   3.655   5.767  12.047 -0.0517  0.5393 -0.0623
19596TIP3    H180279   3.672   5.856  12.077  0.4289 -0.1033  1.6466
19596TIP3    H280280   3.578   5.739  12.096  0.5022 -0.3971  0.2843
19597TIP3   OH280281   1.540   4.087  12.981  0.4786  0.0725 -0.1878
19597TIP3    H180282   1.580   4.026  12.920  0.6013 -0.4543  0.4018
19597TIP3    H280283   1.502   4.156  12.926 -0.4007 -0.9707 -0.9181
19598TIP3   OH280284   2.890   5.946  17.023  0.3576  0.3448  0.1133
19598TIP3    H180285   2.862   6.036  17.040  0.5538  0.2927  0.7252
19598TIP3    H280286   2.944   5.923  17.098  1.6607  0.2792 -0.8007
19599TIP3   OH280287   4.756   0.201  11.594  0.2251  0.1248  0.4820
19599TIP3    H180288   4.752   0.213  11.499  0.3843 -0.3434  0.4138
19599TIP3    H280289   4.666   0.214  11.623 -0.0148 -0.7280  0.1404
19600TIP3   OH280290   3.813   6.114   5.935 -0.0943  0.0599 -0.2257
19600TIP3    H180291   3.737   6.149   5.983 -0.3024  0.9676 -1.1928
19600TIP3    H280292   3.888   6.134   5.991 -0.4070  0.4944  0.0443
19601TIP3   OH280293   4.299   3.271   6.502 -0.3460  0.6002  0.0072
19601TIP3    H180294   4.324   3.363   6.510  0.5094  0.3092  0.9188
19601TIP3    H280295   4.371   3.231   6.453  0.6780 -0.1018  1.9989
19602TIP3   OH280296   4.840   1.187  15.607  0.1282 -0.3707  0.2606
19602TIP3    H180297   4.796   1.270  15.593 -0.7398 -0.2298  3.2146
19602TIP3    H280298   4.786   1.122  15.562 -0.0144  0.4596 -0.7816
19603TIP3   OH280299   2.325   6.623  14.187 -0.0644 -0.3395 -0.2257
19603TIP3    H180300   2.378   6.674  14.248  0.3153 -1.2791  0.2596
19603TIP3    H280301   2.388   6.571  14.137 -0.3706 -5.3598  3.7350
19604TIP3   OH280302   1.161   5.847  11.810 -0.4518  0.2564  1.1785
19604TIP3    H180303   1.072   5.825  11.782 -0.1280  0.0115  0.3312
19604TIP3    H280304   1.149   5.886  11.897 -1.2341 -1.1932  1.7473
19605TIP3   OH280305   5.419   1.480  15.610 -0.2443  0.2670 -0.4233
19605TIP3    H180306   5.499   1.531  15.596 -0.0176 -0.3236 -1.3287
19605TIP3    H280307   5.443   1.416  15.677 -0.2394  0.6799 -0.0200
19606TIP3   OH280308   5.514   0.631   1.092 -0.1347  0.1335 -0.1665
19606TIP3    H180309   5.514   0.541   1.122  1.5465 -0.2045 -1.0579
19606TIP3    H280310   5.470   0.680   1.162 -0.2795 -1.2364  0.7335
19607TIP3   OH280311   0.697   4.314   3.937 -0.0055  0.8033  0.2024
19607TIP3    H180312   0.718   4.309   3.843 -1.9736 -0.0592 -0.2271
19607TIP3    H280313   0.677   4.224   3.962 -1.6038  1.3319  0.9147
19608TIP3   OH280314   3.658   4.195  15.732 -0.3433  0.3815 -0.4288
19608TIP3    H180315   3.650   4.190  15.637  1.0569  1.2159 -0.6122
19608TIP3    H280316   3.726   4.260  15.748  0.9826 -1.2413  1.0726
19609TIP3   OH280317   6.260   2.106   0.387  0.6164  0.8561 -0.4389
19609TIP3    H180318   6.236   2.103   0.295 -1.3875  1.2381  0.0279
19609TIP3    H280319   6.264   2.199   0.408  0.7586  0.7696 -0.0783
19610TIP3   OH280320   1.337   6.016  14.852  0.0450 -0.1616 -0.1903
19610TIP3    H180321   1.342   6.024  14.948  1.8489 -1.4063 -0.1333
19610TIP3    H280322   1.402   6.079  14.820  4.1038 -3.8947 -0.2349
19611TIP3   OH280323   4.313   1.538   1.198 -0.0532 -0.3497  0.8942
19611TIP3    H180324   4.297   1.617   1.249  0.6354  0.5782 -0.2912
19611TIP3    H280325   4.255   1.545   1.123 -1.8136 -2.2038  1.9896
19612TIP3   OH280326   0.198   4.654   0.809 -0.3509  0.2162 -0.1893
19612TIP3    H180327   0.144   4.663   0.887 -1.0892  2.4641 -0.8902
19612TIP3    H280328   0.284   4.686   0.835 -0.2664 -0.1701  0.0133
19613TIP3   OH280329   0.658   3.621  10.889 -0.0168  0.1135 -0.1559
19613TIP3    H180330   0.678   3.676  10.813  1.2698 -0.0786  0.0159
19613TIP3    H280331   0.692   3.670  10.963 -0.6081 -0.0397  0.2253
19614TIP3   OH280332   3.002   0.248  12.838  0.2364  0.3342  0.5876
19614TIP3    H180333   2.938   0.180  12.859  0.3794 -0.2289 -0.7047
19614TIP3    H280334   3.066   0.244  12.909  1.4478 -2.4098 -0.5438
19615TIP3   OH280335   2.677   1.960  15.313 -0.0187  0.0988 -0.3799
19615TIP3    H180336   2.708   2.040  15.272  0.5822  0.2613  0.3764
19615TIP3    H280337   2.685   1.976  15.407 -2.2358  0.0888 -0.1262
19616TIP3   OH280338   3.303   5.705   4.634  0.1381 -0.2023 -0.4319
19616TIP3    H180339   3.319   5.622   4.679 -0.0607  0.3776  0.7533
19616TIP3    H280340   3.210   5.705   4.614  0.3032 -0.6434 -1.2549
19617TIP3   OH280341   4.678   2.261  15.806  0.0828 -0.2182  0.1070
19617TIP3    H180342   4.633   2.335  15.765 -0.9020 -0.5654  0.5171
19617TIP3    H280343   4.746   2.301  15.860 -0.2697  0.3796  0.1159
19618TIP3   OH280344   1.643   5.717   0.158 -0.1521 -0.2610  0.3960
19618TIP3    H180345   1.585   5.785   0.124 -0.4248 -0.4379  0.4972
19618TIP3    H280346   1.605   5.695   0.244  0.8382  0.5719  1.0724
19619TIP3   OH280347   1.167   2.337  11.623 -0.3094  0.0617 -0.2344
19619TIP3    H180348   1.114   2.258  11.611  0.2876 -0.3811 -0.0448
19619TIP3    H280349   1.253   2.303  11.650  0.5626  0.6473 -2.1071
19620TIP3   OH280350   3.587   3.275   1.842  0.5041 -0.2204 -0.3339
19620TIP3    H180351   3.592   3.325   1.761 -1.0324  0.3226 -0.1187
19620TIP3    H280352   3.495   3.279   1.867  1.0158  0.0351  1.6773
19621TIP3   OH280353   3.363   2.736   1.486  0.1912  0.5231 -0.2860
19621TIP3    H180354   3.396   2.790   1.413 -1.7320  1.7043 -0.3370
19621TIP3    H280355   3.410   2.653   1.477  2.0872  1.6125 -1.1589
19622TIP3   OH280356   2.710   4.152   1.567  0.1087  0.5263  0.0964
19622TIP3    H180357   2.740   4.240   1.591  1.5282 -0.0970  0.7341
19622TIP3    H280358   2.639   4.167   1.504 -0.1263  2.1251  0.6923
19623TIP3   OH280359   3.000   2.781  14.454 -0.4033  0.3399 -0.1134
19623TIP3    H180360   3.002   2.855  14.514  2.3865  0.4534 -0.2421
19623TIP3    H280361   2.913   2.742  14.467 -0.6258  1.5300  2.5070
19624TIP3   OH280362   6.805   4.483   4.203  0.5908  0.3198  0.3332
19624TIP3    H180363   6.736   4.485   4.137  1.2446 -0.6979 -0.4062
19624TIP3    H280364   6.883   4.513   4.156  0.8787  0.4471  0.8870
19625TIP3   OH280365   4.724   5.788  15.707  0.0494 -0.8852  0.5202
19625TIP3    H180366   4.725   5.764  15.614  1.9622  0.2985  0.1879
19625TIP3    H280367   4.654   5.852  15.715  0.4369 -0.3478 -0.3024
19626TIP3   OH280368   2.611   1.347  13.623  0.1618 -0.0510 -0.3237
19626TIP3    H180369   2.660   1.317  13.546 -0.3655 -2.7512  0.2812
19626TIP3    H280370   2.519   1.331  13.599 -0.0700  0.0101  0.5152
19627TIP3   OH280371   5.063   0.905   4.631 -0.2860 -0.9875  0.0991
19627TIP3    H180372   4.974   0.879   4.607  0.4879 -1.1795 -3.0305
19627TIP3    H280373   5.082   0.979   4.573  1.7678 -1.2935  0.3331
19628TIP3   OH280374   2.864   5.499   3.920  0.3389 -0.1602  0.3915
19628TIP3    H180375   2.858   5.569   3.854  1.5883 -1.6778 -1.4341
19628TIP3    H280376   2.852   5.545   4.004 -2.6153  1.6809 -0.8459
19629TIP3   OH280377   5.834   0.231   3.806  0.6204 -0.0758 -0.0157
19629TIP3    H180378   5.865   0.319   3.785 -0.9246  1.6742  4.0143
19629TIP3    H280379   5.898   0.197   3.869 -0.2350 -0.6736  0.5539
19630TIP3   OH280380   3.073   4.535  12.118  0.4445 -0.0740  0.0123
19630TIP3    H180381   3.138   4.592  12.076  0.8785 -0.4403  0.1729
19630TIP3    H280382   2.992   4.553  12.071  0.4739  0.9775  0.3317
19631TIP3   OH280383   3.062   2.143   4.180 -0.0207 -0.2643 -0.1052
19631TIP3    H180384   3.122   2.213   4.207  1.3924 -1.6752  0.6173
19631TIP3    H280385   2.994   2.143   4.247  1.4589 -1.3019  1.5150
19632TIP3   OH280386   5.616   2.782  10.932  0.3181  0.3572 -0.2122
19632TIP3    H180387   5.650   2.871  10.925 -1.0668  0.9610  0.3466
19632TIP3    H280388   5.569   2.768  10.849  0.4645  0.1766 -0.2653
19633TIP3   OH280389   5.960   6.300   4.632  0.1911  0.3735 -0.2887
19633TIP3    H180390   5.905   6.224   4.654 -1.5322  1.7485  0.4461
19633TIP3    H280391   6.017   6.269   4.563  0.3869 -1.9342  0.8154
19634TIP3   OH280392   6.107   5.275   1.006  0.5718  0.0322  0.0209
19634TIP3    H180393   6.074   5.190   1.033  1.1563 -0.1102  0.3047
19634TIP3    H280394   6.029   5.329   0.992  0.1864 -0.6652 -0.5444
19635TIP3   OH280395   5.426   2.453  12.825  0.0002  0.0979  0.0077
19635TIP3    H180396   5.423   2.372  12.876 -1.5610 -0.0281 -0.2169
19635TIP3    H280397   5.345   2.451  12.773 -0.1349  1.8633  0.0974
19636TIP3   OH280398   1.674   0.786   2.021 -0.0992 -0.0092 -0.2105
19636TIP3    H180399   1.677   0.691   2.021  3.2642  0.0099  0.2424
19636TIP3    H280400   1.720   0.812   1.941  1.5842  1.1932  1.0723
19637TIP3   OH280401   3.463   4.289  16.484  0.1882 -0.2419  0.1873
19637TIP3    H180402   3.418   4.223  16.538 -0.7625 -0.3763 -0.7335
19637TIP3    H280403   3.553   4.257  16.479  0.2559 -0.3217  1.5302
19638TIP3   OH280404   0.011   2.995   5.202 -0.0337  0.1720  0.2118
19638TIP3    H180405   0.097   3.020   5.170 -0.3605 -1.0462 -1.8062
19638TIP3    H280406  -0.005   3.053   5.277  2.0041  1.2348 -0.1128
19639TIP3   OH280407   4.223   1.479  16.227  0.1280 -0.1592 -0.1293
19639TIP3    H180408   4.216   1.569  16.258 -0.3666 -0.3647  0.3618
19639TIP3    H280409   4.289   1.483  16.157 -0.8988  0.8323 -1.0799
19640TIP3   OH280410   4.609   2.744  14.025 -0.3389 -0.5926  0.1651
19640TIP3    H180411   4.643   2.777  14.108 -2.0291 -2.1218  1.5685
19640TIP3    H280412   4.629   2.650  14.027 -0.7763 -0.7258 -0.9565
19641TIP3   OH280413   3.245   5.619  15.701 -0.0827  0.2371  0.0345
19641TIP3    H180414   3.213   5.534  15.670 -0.8192 -0.1585  1.7711
19641TIP3    H280415   3.311   5.644  15.637 -1.4018 -0.5902 -1.7396
19642TIP3   OH280416   2.189   0.933  11.362  0.2543 -0.2926 -0.0577
19642TIP3    H180417   2.239   0.946  11.443  0.2026  0.4814 -0.1460
19642TIP3    H280418   2.155   0.844  11.370 -1.6443  0.5050  1.8502
19643TIP3   OH280419   3.992   5.152   0.234  0.2463 -0.0802 -0.0078
19643TIP3    H180420   3.910   5.167   0.281  0.4897 -0.7934  0.6747
19643TIP3    H280421   3.965   5.117   0.149 -0.2191 -3.9563  1.4967
19644TIP3   OH280422   5.936   3.246  12.577  0.3657 -0.2367  0.1035
19644TIP3    H180423   5.888   3.297  12.643  2.8152  0.7200  1.2796
19644TIP3    H280424   5.924   3.294  12.495 -0.6340 -0.0083  0.3769
19645TIP3   OH280425   0.571   0.061  14.520 -0.1352  0.3712 -0.3931
19645TIP3    H180426   0.583  -0.022  14.475 -2.6138 -0.7025  0.7500
19645TIP3    H280427   0.583   0.041  14.612 -0.0533  1.4469 -0.1516
19646TIP3   OH280428   1.442   5.318  15.717 -0.0006 -0.7971  0.4014
19646TIP3    H180429   1.490   5.248  15.673  1.3332  0.6509 -0.5194
19646TIP3    H280430   1.483   5.325  15.803  0.6464 -0.3735  0.0632
19647TIP3   OH280431   2.079   1.265   4.463 -0.2303 -0.1082  0.7152
19647TIP3    H180432   2.147   1.204   4.491 -0.2921 -0.0296  1.0375
19647TIP3    H280433   2.054   1.234   4.376 -0.0233 -0.3422  0.7383
19648TIP3   OH280434   2.597   3.195  11.691 -0.7189  0.3217  0.1398
19648TIP3    H180435   2.556   3.119  11.651 -0.1151 -0.3705  0.7999
19648TIP3    H280436   2.546   3.211  11.770 -0.7721  0.5382  0.0640
19649TIP3   OH280437   0.953   3.291   2.595 -0.1302 -0.4099 -0.2090
19649TIP3    H180438   0.926   3.238   2.670 -0.6969  0.3220  0.1129
19649TIP3    H280439   0.917   3.378   2.612 -0.9168 -0.4131 -1.6992
19650TIP3   OH280440   5.358   3.167   2.182 -0.0856  0.5545  0.6208
19650TIP3    H180441   5.402   3.238   2.136 -0.8309  0.8376  0.3303
19650TIP3    H280442   5.423   3.135   2.245  1.6552 -1.0507 -1.8149
19651TIP3   OH280443   3.885   5.754  15.851 -0.1017 -0.6775 -0.3229
19651TIP3    H180444   3.939   5.833  15.858 -0.2167 -0.5630 -0.7222
19651TIP3    H280445   3.947   5.683  15.835  0.3175 -1.1443  2.7393
19652TIP3   OH280446   3.399   1.984  15.531  0.5315 -0.0416 -0.0097
19652TIP3    H180447   3.365   2.009  15.445  0.8485  0.3712 -0.0190
19652TIP3    H280448   3.439   1.898  15.517  0.0630 -0.2434 -0.1407
19653TIP3   OH280449   3.318   6.187   0.659 -0.4043  0.0010  0.1453
19653TIP3    H180450   3.293   6.197   0.751 -0.0781 -0.7626  0.3187
19653TIP3    H280451   3.270   6.110   0.629 -2.0957  1.3769 -0.9104
19654TIP3   OH280452   3.980   1.125   5.560 -0.0167  0.1650 -0.4193
19654TIP3    H180453   3.924   1.169   5.496  0.6517  1.1958 -0.3094
19654TIP3    H280454   3.919   1.072   5.612 -0.6932  0.0912 -1.2627
19655TIP3   OH280455   2.524   0.925  13.579  0.2980  0.5608 -0.1300
19655TIP3    H180456   2.602   0.953  13.531  0.4021 -1.7607 -1.4886
19655TIP3    H280457   2.460   0.903  13.511 -0.0368 -1.5195  0.7763
19656TIP3   OH280458   4.427   6.244   1.562  0.0143  0.1402  0.5313
19656TIP3    H180459   4.506   6.198   1.591 -0.7390 -0.7786  1.1999
19656TIP3    H280460   4.372   6.248   1.641  0.7420  3.8171  1.0538
19657TIP3   OH280461   1.751   0.285   4.283 -0.3666  0.1998  0.1816
19657TIP3    H180462   1.740   0.315   4.373 -2.4092 -0.4920  0.2065
19657TIP3    H280463   1.846   0.278   4.272 -0.0332  1.2660  1.9304
19658TIP3   OH280464   4.597   3.890  13.211 -0.3272  0.3547  0.4319
19658TIP3    H180465   4.551   3.911  13.129 -0.6532 -1.5590  0.0664
19658TIP3    H280466   4.616   3.797  13.203  1.8745  0.6748  1.4661
19659TIP3   OH280467   6.214   6.233  12.726  0.1266 -0.6514 -0.0475
19659TIP3    H180468   6.177   6.159  12.679 -2.0679  0.3083  0.0628
19659TIP3    H280469   6.140   6.290  12.745  1.5447  0.9736  0.9976
19660TIP3   OH280470   5.256   2.819   0.637  0.3177  0.5766  0.0370
19660TIP3    H180471   5.230   2.864   0.717 -2.2400  0.3800 -0.5863
19660TIP3    H280472   5.300   2.886   0.584 -1.0162  1.6490  0.2333
19661TIP3   OH280473   3.408   0.446   3.499 -0.3054 -0.4037 -0.3496
19661TIP3    H180474   3.482   0.502   3.477  1.1930 -1.9003  0.6012
19661TIP3    H280475   3.419   0.369   3.443 -1.2802 -0.5449 -0.3612
19662TIP3   OH280476   2.023   2.733  12.300  0.1395  0.0359  0.0938
19662TIP3    H180477   1.954   2.767  12.244  0.9529  1.2053 -0.2307
19662TIP3    H280478   2.043   2.804  12.360  0.0672 -0.8047  1.1348
19663TIP3   OH280479   0.646   2.838  12.484 -0.4941  0.4131 -0.0553
19663TIP3    H180480   0.641   2.930  12.461 -1.1552  0.2876 -0.4468
19663TIP3    H280481   0.646   2.792  12.400  2.8054  0.1209 -0.0312
19664TIP3   OH280482   2.281   0.758   4.129  0.0940 -0.0991 -0.2725
19664TIP3    H180483   2.186   0.766   4.136  0.2903  1.3640  1.4216
19664TIP3    H280484   2.307   0.702   4.203  0.7646  2.0245  1.2071
19665TIP3   OH280485   3.454   3.217  14.728 -0.4683 -0.1929 -0.6420
19665TIP3    H180486   3.516   3.230  14.657 -0.9391 -0.0018 -1.0235
19665TIP3    H280487   3.494   3.148  14.782  0.5756  0.6603 -0.2855
19666TIP3   OH280488   0.240   2.363   3.825 -0.4220 -0.2144  0.1967
19666TIP3    H180489   0.209   2.403   3.744 -0.7129  0.8311  0.7992
19666TIP3    H280490   0.160   2.352   3.877 -0.0397  0.6972  0.9989
19667TIP3   OH280491   1.655   4.464   5.174 -0.2909 -0.1514 -0.5424
19667TIP3    H180492   1.713   4.485   5.247  2.6278 -0.4677 -2.6177
19667TIP3    H280493   1.633   4.549   5.135 -0.7955 -0.0770 -0.1173
19668TIP3   OH280494   6.768   1.681   1.114  0.1406  0.0562 -0.0367
19668TIP3    H180495   6.804   1.651   1.031  1.2084 -1.3324  0.8732
19668TIP3    H280496   6.673   1.681   1.100  0.3201  0.4969 -1.4357
19669TIP3   OH280497   1.455   2.655   3.843 -0.7460  0.3093  0.3558
19669TIP3    H180498   1.518   2.623   3.908  1.1424  1.4063 -0.8641
19669TIP3    H280499   1.508   2.693   3.774 -2.7375  0.3444 -1.2611
19670TIP3   OH280500   5.273   3.911  16.135 -0.3726 -0.3499  0.1172
19670TIP3    H180501   5.268   4.000  16.102 -0.2264 -0.8889 -1.4618
19670TIP3    H280502   5.257   3.919  16.229 -2.3097  1.1032 -0.2765
19671TIP3   OH280503   0.291   1.375  12.785 -0.5450  0.0946 -0.7461
19671TIP3    H180504   0.329   1.457  12.817 -0.4186  0.2260 -1.2112
19671TIP3    H280505   0.367   1.318  12.770 -0.6798 -0.3428  0.2042
19672TIP3   OH280506   2.235   3.576  15.028 -0.6228 -0.1253 -0.0937
19672TIP3    H180507   2.307   3.601  15.086 -0.9902 -1.6673  1.1033
19672TIP3    H280508   2.277   3.559  14.943 -0.0721  2.1311 -0.3278
19673TIP3   OH280509   3.168   3.373   1.151  0.5653  0.0800  0.1725
19673TIP3    H180510   3.092   3.427   1.171  0.0039 -0.9549  0.9039
19673TIP3    H280511   3.141   3.318   1.078  0.2486 -0.9853  1.0670
19674TIP3   OH280512   4.774   3.661  14.392 -0.7128  0.1599 -0.6258
19674TIP3    H180513   4.839   3.592  14.379  0.0385  0.2466  2.1309
19674TIP3    H280514   4.824   3.742  14.389 -1.0622  0.3761 -0.6427
19675TIP3   OH280515   6.790   4.762   3.184 -0.1925  0.1335  0.3341
19675TIP3    H180516   6.853   4.775   3.255  3.7202  0.2208 -2.8251
19675TIP3    H280517   6.742   4.684   3.209  1.8977 -0.5846  2.5063
19676TIP3   OH280518   0.642   6.727   6.411 -0.1667 -0.0814 -0.0791
19676TIP3    H180519   0.662   6.820   6.401  1.2497 -0.4985 -1.6103
19676TIP3    H280520   0.548   6.720   6.393 -0.4668  1.1294  0.8692
19677TIP3   OH280521   5.169   6.755   3.005  0.2138 -0.0232 -0.4436
19677TIP3    H180522   5.223   6.807   2.946 -0.3994  2.0525  0.7375
19677TIP3    H280523   5.091   6.733   2.954  1.2158 -1.3075 -1.4934
19678TIP3   OH280524   4.153   2.320   3.157  0.3758  0.0949  0.6126
19678TIP3    H180525   4.119   2.381   3.091  0.1496  0.3944  0.9982
19678TIP3    H280526   4.074   2.287   3.201  0.5241 -0.1035  0.7297
19679TIP3   OH280527   2.996   2.931  11.968 -0.8899 -0.4132  0.2364
19679TIP3    H180528   3.082   2.948  12.007  1.3820 -2.1044 -3.4740
19679TIP3    H280529   2.986   2.836  11.974 -2.1021 -0.3314 -0.1804
19680TIP3   OH280530   0.348   4.223  12.405  0.5700  0.4975 -0.1448
19680TIP3    H180531   0.386   4.249  12.489  2.0391 -0.2968 -0.5209
19680TIP3    H280532   0.406   4.154  12.373 -1.5536 -1.2057 -0.5228
19681TIP3   OH280533   2.341   3.778  10.499 -0.3776 -0.3147  0.5172
19681TIP3    H180534   2.320   3.689  10.471 -0.7540 -0.0399 -0.0813
19681TIP3    H280535   2.256   3.819  10.513 -0.2416  0.4468 -0.7847
19682TIP3   OH280536   0.587   0.810  14.487 -0.7411  0.1316  0.5198
19682TIP3    H180537   0.573   0.904  14.497 -0.2034  0.2305  0.3449
19682TIP3    H280538   0.526   0.784  14.417 -1.2913  0.2429  0.9472
19683TIP3   OH280539   3.166   3.289  15.141 -0.0701 -0.0772 -0.3782
19683TIP3    H180540   3.192   3.228  15.210  1.0429 -1.3338 -1.8338
19683TIP3    H280541   3.143   3.370  15.187  0.5605 -0.8906  1.4424
19684TIP3   OH280542   5.132   4.949   0.608  0.1465 -0.2074  0.0908
19684TIP3    H180543   5.212   5.001   0.606  0.1393  0.0247  2.8879
19684TIP3    H280544   5.157   4.868   0.653 -1.1157 -0.2564  0.7410
19685TIP3   OH280545   3.226   5.667  16.436  0.0549  0.4963 -0.4656
19685TIP3    H180546   3.170   5.593  16.460 -0.3346  1.1919  0.8458
19685TIP3    H280547   3.212   5.678  16.342 -1.3792  0.1418 -0.3135
19686TIP3   OH280548   5.829   0.101  12.818  0.2283 -0.6719 -0.3304
19686TIP3    H180549   5.887   0.138  12.751  0.0709  0.0116 -0.0955
19686TIP3    H280550   5.742   0.106  12.779  0.0592  0.2885  0.1563
19687TIP3   OH280551   6.249   4.089  16.079  0.8041 -0.4903  0.3527
19687TIP3    H180552   6.264   4.001  16.111  0.1539 -0.8343 -0.2579
19687TIP3    H280553   6.300   4.094  15.998  0.3729 -0.5069  0.0785
19688TIP3   OH280554   3.028   4.303  16.602  0.7989 -0.3947  0.5591
19688TIP3    H180555   2.975   4.315  16.523  1.2221  0.2069  0.3637
19688TIP3    H280556   2.967   4.269  16.667 -0.3021  2.1337  0.9303
19689TIP3   OH280557   1.690   0.507   2.102 -0.1430 -0.0004 -0.7516
19689TIP3    H180558   1.778   0.543   2.119  0.0897 -0.0776 -1.7079
19689TIP3    H280559   1.702   0.413   2.106 -0.4842 -0.0057  0.4786
19690TIP3   OH280560   2.656   0.113  12.150  0.6992 -0.0870 -0.1006
19690TIP3    H180561   2.750   0.103  12.132  0.6338  0.3226 -0.6995
19690TIP3    H280562   2.623   0.164  12.076 -0.0007 -0.2387  0.1040
19691TIP3   OH280563   3.225   6.338   3.757 -0.3712  0.5197 -0.7718
19691TIP3    H180564   3.319   6.321   3.757 -0.3177  0.8021 -0.8239
19691TIP3    H280565   3.218   6.434   3.759 -0.6592  0.4906 -0.0114
19692TIP3   OH280566   4.352   2.731  15.253  0.6293 -0.0957  0.3383
19692TIP3    H180567   4.444   2.756  15.248  0.3289  0.8947 -0.5318
19692TIP3    H280568   4.307   2.790  15.193 -0.7154  0.0795  1.4617
19693TIP3   OH280569   5.569   0.496  11.044 -0.3928 -1.0439 -0.0407
19693TIP3    H180570   5.503   0.429  11.059 -0.9734 -1.1959 -2.7897
19693TIP3    H280571   5.597   0.483  10.954  0.2937  1.7310 -0.3271
19694TIP3   OH280572   0.153   0.248  14.018 -0.1694 -0.1344  0.9323
19694TIP3    H180573   0.193   0.165  13.994  1.6677  0.7414  0.7977
19694TIP3    H280574   0.091   0.226  14.088 -0.1158 -1.6692  0.5220
19695TIP3   OH280575   0.829   2.506   3.435  0.3314  0.2119  0.2937
19695TIP3    H180576   0.859   2.596   3.435  0.7450  0.1065 -1.5182
19695TIP3    H280577   0.738   2.511   3.464  0.6204  1.0873  1.0932
19696TIP3   OH280578   3.701   5.540   0.447  0.1131 -0.2736 -0.2629
19696TIP3    H180579   3.671   5.629   0.430 -0.4104 -0.3454  0.2781
19696TIP3    H280580   3.795   5.543   0.430  0.2308  0.5690  0.5038
19697TIP3   OH280581   1.987   5.633  13.564  0.1301 -0.2673  0.0512
19697TIP3    H180582   2.046   5.561  13.544  1.4040  0.5108  0.9190
19697TIP3    H280583   1.917   5.593  13.617 -0.2455 -1.2140 -1.1075
19698TIP3   OH280584   5.560   4.196  16.795 -0.3092  0.5049  0.1492
19698TIP3    H180585   5.646   4.224  16.762 -0.0384 -0.5621 -0.0832
19698TIP3    H280586   5.528   4.272  16.843  0.8746  0.8521  0.4429
19699TIP3   OH280587   6.826   3.110  16.848  0.5161 -0.2265 -0.1888
19699TIP3    H180588   6.807   3.150  16.763 -2.3220  0.6444  0.7333
19699TIP3    H280589   6.760   3.042  16.857 -0.3533  0.8337  1.9966
19700TIP3   OH280590   1.199   5.979   1.411  0.3778 -0.7825  0.2531
19700TIP3    H180591   1.188   6.010   1.501  0.4560 -0.5730  0.1901
19700TIP3    H280592   1.291   5.996   1.390  0.1640 -0.0879 -0.1448
19701TIP3   OH280593   3.135   0.456   3.497  0.6153  0.3149 -0.3639
19701TIP3    H180594   3.115   0.543   3.532 -1.1134 -0.3518  0.4089
19701TIP3    H280595   3.226   0.463   3.467 -0.0514  2.9394 -2.1163
19702TIP3   OH280596   3.010   6.442  16.963 -0.2299 -0.4972  0.8843
19702TIP3    H180597   3.078   6.487  16.912 -0.4415 -2.0051 -0.8336
19702TIP3    H280598   2.936   6.436  16.903 -0.5068 -2.2927  1.3626
19703TIP3   OH280599   0.850   2.854   0.282 -0.2795 -0.7094  0.0465
19703TIP3    H180600   0.934   2.899   0.284 -0.6864  0.1708 -1.0554
19703TIP3    H280601   0.785   2.924   0.292 -0.8977 -1.2177 -0.3236
19704TIP3   OH280602   0.176   1.226  16.222 -0.0368  0.2049 -0.3583
19704TIP3    H180603   0.104   1.247  16.164 -0.0785  0.9815 -0.0464
19704TIP3    H280604   0.239   1.297  16.209  0.3179 -0.0468 -0.0583
19705TIP3   OH280605   6.622   4.228   3.414  0.8273 -0.0828  0.4193
19705TIP3    H180606   6.654   4.168   3.481  0.1094  0.4781  1.2911
19705TIP3    H280607   6.540   4.263   3.450 -0.4281 -0.9602 -1.4223
19706TIP3   OH280608   2.100   6.812   6.119  0.2886  0.1423  0.0683
19706TIP3    H180609   2.064   6.832   6.205  0.8362 -1.2255  0.6491
19706TIP3    H280610   2.162   6.882   6.101  0.8593 -0.0462  1.2123
19707TIP3   OH280611   1.658   3.827  13.277 -0.5009  0.1532  0.7476
19707TIP3    H180612   1.625   3.750  13.323  0.4122 -0.8319 -0.1756
19707TIP3    H280613   1.672   3.797  13.187 -0.9505  1.6511  0.1437
19708TIP3   OH280614   4.909   6.640   5.080  0.4708  0.4890  0.1215
19708TIP3    H180615   4.831   6.629   5.135 -0.3578  1.6761 -0.7460
19708TIP3    H280616   4.875   6.640   4.991  1.8926 -2.3093 -0.5212
19709TIP3   OH280617   2.486   1.043  13.298 -0.3289 -0.0516  0.4294
19709TIP3    H180618   2.565   1.008  13.255  0.4151 -0.1751  1.8405
19709TIP3    H280619   2.428   0.968  13.306  0.0499 -0.3149  0.7614
19710TIP3   OH280620   0.259   5.632   4.758  0.0237  0.1094  0.1710
19710TIP3    H180621   0.196   5.703   4.770 -0.2787 -0.3658  1.4861
19710TIP3    H280622   0.208   5.552   4.767  1.0686 -0.3299  3.2054
19711TIP3   OH280623   2.303   5.474  10.934  0.2871 -0.0311 -0.1185
19711TIP3    H180624   2.218   5.494  10.895  0.0904 -0.8890 -0.1464
19711TIP3    H280625   2.360   5.544  10.903 -0.3435  0.4064 -0.3164
19712TIP3   OH280626   0.886   6.610   2.887  0.0594 -0.3471 -0.1039
19712TIP3    H180627   0.812   6.557   2.860 -1.0229  0.6679  0.7936
19712TIP3    H280628   0.849   6.677   2.944  1.4870  0.9166 -0.5833
19713TIP3   OH280629   0.439   3.252   2.764 -0.1254 -0.0549  0.6267
19713TIP3    H180630   0.463   3.273   2.674 -0.6303 -1.5840  0.0960
19713TIP3    H280631   0.349   3.283   2.772 -0.3499 -0.5960  0.3265
19714TIP3   OH280632   3.750   3.854   2.215 -0.3062 -0.0930 -0.4551
19714TIP3    H180633   3.804   3.859   2.294  2.7688 -2.3348 -2.1720
19714TIP3    H280634   3.672   3.806   2.242 -0.2825  0.9163  1.5894
19715TIP3   OH280635   4.982   5.462  11.651 -0.4509  0.3852  0.3291
19715TIP3    H180636   5.073   5.470  11.623 -0.0514 -1.6399  0.9367
19715TIP3    H280637   4.971   5.531  11.716  0.6699  0.6027  0.3058
19716TIP3   OH280638   0.414   1.081   2.116 -0.1575 -0.4936  0.4232
19716TIP3    H180639   0.353   1.008   2.103  1.7301 -2.3373  1.1776
19716TIP3    H280640   0.423   1.087   2.211 -1.9693  2.3375  0.5357
19717TIP3   OH280641   2.885   3.303   5.316  0.3650  0.1013 -0.0397
19717TIP3    H180642   2.923   3.355   5.387  0.8643  0.0724 -0.2866
19717TIP3    H280643   2.903   3.212   5.340 -0.0716  0.0618  0.1423
19718TIP3   OH280644   2.747   6.793   0.767  0.5311 -0.1004 -0.6832
19718TIP3    H180645   2.776   6.702   0.770 -0.3579 -0.3738  0.2401
19718TIP3    H280646   2.674   6.797   0.829  0.2703  1.1415 -1.0385
19719TIP3   OH280647   0.377   2.858  12.108  0.3255 -0.0244 -0.3962
19719TIP3    H180648   0.314   2.857  12.181  0.5958  0.0996 -0.1563
19719TIP3    H280649   0.368   2.772  12.067 -0.4062  0.2055 -0.7178
19720TIP3   OH280650   6.299   4.697   2.459  0.2846  0.1284  0.2224
19720TIP3    H180651   6.349   4.769   2.420 -0.3963 -0.0773 -1.0976
19720TIP3    H280652   6.274   4.729   2.546 -0.4480  1.7180 -0.5226
19721TIP3   OH280653   4.887   2.232  11.432 -0.1392 -0.4175 -0.0689
19721TIP3    H180654   4.829   2.258  11.503 -0.4356  3.0641 -1.3852
19721TIP3    H280655   4.843   2.263  11.353  1.9771 -0.6557 -1.4202
19722TIP3   OH280656   3.239   6.575   3.098 -0.1982 -0.5891  0.4711
19722TIP3    H180657   3.159   6.615   3.065  0.1055  1.1670  1.7574
19722TIP3    H280658   3.211   6.489   3.131 -1.3931 -0.3106  0.2156
19723TIP3   OH280659   6.645   3.872  14.207  0.1624 -0.5094 -0.4691
19723TIP3    H180660   6.652   3.805  14.275 -0.0380  0.1199  0.1870
19723TIP3    H280661   6.621   3.952  14.255  2.2473  0.4879 -0.9783
19724TIP3   OH280662   6.085   4.929   0.069 -0.3240  0.0116  0.6235
19724TIP3    H180663   6.142   4.950  -0.005 -3.8303  4.2382 -1.3234
19724TIP3    H280664   6.130   4.967   0.145  0.6407  0.9590 -0.3779
19725TIP3   OH280665   5.799   3.511   0.135  0.1033  0.3071  0.1083
19725TIP3    H180666   5.727   3.448   0.143  0.1655  0.0748 -0.9334
19725TIP3    H280667   5.835   3.495   0.047  0.3247  1.5802 -0.0552
19726TIP3   OH280668   0.138   4.879   0.254 -0.0241 -0.5307  0.1063
19726TIP3    H180669   0.103   4.940   0.189 -0.1100 -1.0674 -0.3621
19726TIP3    H280670   0.077   4.806   0.253 -0.8223  0.0594  1.8325
19727TIP3   OH280671   0.127   3.817   5.571 -0.0098 -0.4839 -0.0878
19727TIP3    H180672   0.106   3.910   5.579 -2.2972 -0.7882 -1.5809
19727TIP3    H280673   0.132   3.802   5.477 -1.7308 -2.2439  0.0452
19728TIP3   OH280674   1.344   0.168   1.556  0.1431  0.3008 -0.0917
19728TIP3    H180675   1.400   0.141   1.629  1.8212  0.7569 -1.1516
19728TIP3    H280676   1.277   0.100   1.550  0.0142  0.2030  1.7927
19729TIP3   OH280677   5.719   2.894   4.185 -0.2029  0.2216  0.2434
19729TIP3    H180678   5.762   2.811   4.165  0.4719  1.0756 -2.1718
19729TIP3    H280679   5.627   2.870   4.199 -0.3806 -0.7738 -2.2228
19730TIP3   OH280680   4.802   1.536   5.433 -0.4581 -0.1336 -0.3017
19730TIP3    H180681   4.812   1.630   5.443  0.0098 -0.3240  1.5213
19730TIP3    H280682   4.750   1.510   5.510 -0.1945 -1.4122 -0.5360
19731TIP3   OH280683   3.827   2.583   5.186  0.4943 -0.3552 -0.2409
19731TIP3    H180684   3.913   2.544   5.201  0.9265  0.7091  0.1499
19731TIP3    H280685   3.767   2.509   5.184  1.3304 -1.0600  0.1614
19732TIP3   OH280686   4.681   1.444  10.779  0.2758 -0.5753 -0.5411
19732TIP3    H180687   4.710   1.533  10.763 -3.0393  0.5862 -0.9456
19732TIP3    H280688   4.722   1.392  10.710  1.2991  0.8620 -1.0528
19733TIP3   OH280689   2.700   3.139  15.240 -0.1319 -0.8405  0.4619
19733TIP3    H180690   2.631   3.073  15.238 -0.3863 -0.5603 -0.9725
19733TIP3    H280691   2.660   3.215  15.280 -1.2948 -0.0515 -1.9959
19734TIP3   OH280692   1.193   5.499  12.841  0.1461  0.1585 -0.1119
19734TIP3    H180693   1.123   5.448  12.882  1.7810 -0.1204  2.5276
19734TIP3    H280694   1.186   5.585  12.882  0.9613  0.3224 -0.3102
19735TIP3   OH280695   2.895   3.508  12.815  0.5775  0.0062 -0.5651
19735TIP3    H180696   2.825   3.477  12.757 -0.0412  0.5838 -0.1469
19735TIP3    H280697   2.958   3.550  12.757 -1.0862  2.5465 -0.6544
19736TIP3   OH280698   2.763   0.504   3.566  0.2962  0.4430 -0.1449
19736TIP3    H180699   2.742   0.570   3.633  0.5461  0.4754 -0.0960
19736TIP3    H280700   2.682   0.493   3.518 -0.0980 -0.1332  0.6344
19737TIP3   OH280701   2.652   6.689  12.697 -0.7869  0.3581 -0.4054
19737TIP3    H180702   2.669   6.645  12.614  0.5214  1.1522 -0.5875
19737TIP3    H280703   2.734   6.681  12.745 -1.3385  0.4377  0.5682
19738TIP3   OH280704   0.500   6.817   5.995  0.4625  0.7990 -0.3782
19738TIP3    H180705   0.571   6.824   5.930  0.0792  0.2318 -0.8690
19738TIP3    H280706   0.498   6.903   6.037  0.9790  1.0512 -0.8448
19739TIP3   OH280707   4.314   6.483  16.317  0.1578 -0.6739 -0.4023
19739TIP3    H180708   4.285   6.530  16.238  2.0351 -2.0264 -1.9936
19739TIP3    H280709   4.331   6.553  16.381  0.7274  0.6777 -1.9474
19740TIP3   OH280710   5.897   1.028   0.488  0.7029 -0.5650 -0.0098
19740TIP3    H180711   5.923   0.955   0.432 -1.3962 -1.1499 -0.2969
19740TIP3    H280712   5.915   0.998   0.577  0.1767 -1.2944 -0.1458
19741TIP3   OH280713   6.200   4.622  15.487  0.0065  0.5129 -0.6556
19741TIP3    H180714   6.143   4.692  15.457 -0.6872 -0.3106 -1.3257
19741TIP3    H280715   6.259   4.605  15.413  1.5253  1.7222  0.2196
19742TIP3   OH280716   3.830   2.288  11.445  0.0781 -0.4972 -0.0911
19742TIP3    H180717   3.764   2.342  11.404  0.2915 -1.0167 -1.1541
19742TIP3    H280718   3.891   2.267  11.375  0.4060 -1.4833  0.4654
19743TIP3   OH280719   4.643   3.697   5.311 -0.0866 -0.1267 -1.1833
19743TIP3    H180720   4.738   3.700   5.298  0.1409  1.4198  0.4053
19743TIP3    H280721   4.620   3.787   5.336 -1.8898 -0.5932 -1.0479
19744TIP3   OH280722   5.418   3.124  14.253  0.4270  0.4040 -0.1269
19744TIP3    H180723   5.513   3.122  14.264  0.6983  0.7755 -2.1197
19744TIP3    H280724   5.393   3.213  14.277  0.5862  0.3595  0.2184
19745TIP3   OH280725   6.312   2.722  14.890 -0.2647  0.2726  0.2421
19745TIP3    H180726   6.267   2.718  14.806 -0.2849  0.3763  0.2484
19745TIP3    H280727   6.303   2.813  14.918  1.2293  0.6738 -0.4559
19746TIP3   OH280728   5.135   2.326   3.786  0.4019  0.1457  0.9725
19746TIP3    H180729   5.168   2.356   3.870 -1.0067  0.7744  1.3275
19746TIP3    H280730   5.082   2.399   3.754 -0.8433 -0.9163  0.5470
19747TIP3   OH280731   3.973   3.896   1.616  0.5809 -0.8262  0.1225
19747TIP3    H180732   3.914   3.854   1.679  1.2076 -0.9487  0.6445
19747TIP3    H280733   4.002   3.976   1.661 -2.1433  1.3378 -1.5986
19748TIP3   OH280734   4.957   2.359   5.886 -0.3030  0.2482  0.0357
19748TIP3    H180735   4.900   2.406   5.946 -0.4935  0.2066 -0.1102
19748TIP3    H280736   4.994   2.427   5.830 -1.2654  0.1477 -0.7522
19749TIP3   OH280737   5.011   0.269  11.265 -0.3644  0.3161  0.2544
19749TIP3    H180738   4.919   0.256  11.287 -0.3232  1.1187  0.9399
19749TIP3    H280739   5.012   0.277  11.170 -0.8026 -1.1853  0.0860
19750TIP3   OH280740   1.617   4.879   3.068  0.2520 -0.1198  0.0586
19750TIP3    H180741   1.639   4.860   2.977 -0.7860  2.8021 -0.9164
19750TIP3    H280742   1.697   4.916   3.105  0.1678  0.3419 -0.2133
19751TIP3   OH280743   4.274   3.815  14.894 -0.4202 -0.1079 -0.0496
19751TIP3    H180744   4.337   3.770  14.837 -1.0171  0.4253 -1.1508
19751TIP3    H280745   4.318   3.819  14.979  0.6258 -0.6184 -0.5468
19752TIP3   OH280746   0.690   5.326   4.186 -0.3488  0.0518 -0.0357
19752TIP3    H180747   0.782   5.300   4.199 -0.1277  1.4709  1.5582
19752TIP3    H280748   0.640   5.246   4.203  0.4921 -0.2735  1.0371
19753TIP3   OH280749   0.270   1.749   3.904 -0.0125  0.1818 -0.9077
19753TIP3    H180750   0.361   1.726   3.885 -0.1768 -2.6256  1.0709
19753TIP3    H280751   0.263   1.741   4.000 -1.7555  2.8462 -0.7246
19754TIP3   OH280752   5.132   3.041   4.100  0.6642 -0.3999  0.1474
19754TIP3    H180753   5.224   3.057   4.077  0.6878  0.4378  0.7926
19754TIP3    H280754   5.082   3.098   4.041  0.5964 -0.1880  0.4134
19755TIP3   OH280755   5.955   6.188  11.076 -0.5400  0.0201 -0.2690
19755TIP3    H180756   5.944   6.094  11.090 -1.5108  0.1154 -0.3156
19755TIP3    H280757   6.046   6.198  11.049 -0.2244 -0.8209  0.4408
19756TIP3   OH280758   0.101   6.431   1.707 -0.2051 -0.2644  0.3847
19756TIP3    H180759   0.100   6.367   1.635 -0.4723  3.4566 -3.2890
19756TIP3    H280760   0.009   6.453   1.719  0.0506  2.0406 -1.2051
19757TIP3   OH280761   3.383   0.202   2.105  0.0832 -1.2758  0.0346
19757TIP3    H180762   3.426   0.209   2.020  1.5213 -0.9121  0.7526
19757TIP3    H280763   3.381   0.292   2.138 -2.1458 -1.1308 -0.3687
19758TIP3   OH280764   4.278   5.037   0.013 -0.1686  0.0181  0.1260
19758TIP3    H180765   4.354   5.002   0.060  1.2431  0.8549 -1.4041
19758TIP3    H280766   4.259   5.120   0.056 -1.2823 -0.9197  1.5253
19759TIP3   OH280767   0.651   2.747   5.529  0.0545  0.5116 -0.4018
19759TIP3    H180768   0.741   2.760   5.500 -0.0224  1.2110 -0.3553
19759TIP3    H280769   0.647   2.655   5.555  1.0140  0.7079  0.5208
19760TIP3   OH280770   0.465   5.078  16.400 -0.4134 -0.1015  0.2416
19760TIP3    H180771   0.390   5.134  16.381 -1.4195 -1.2204  0.7987
19760TIP3    H280772   0.450   4.998  16.349  0.3694 -0.3654  0.4031
19761TIP3   OH280773   2.106   3.682  11.198 -0.0210  0.1914 -0.3048
19761TIP3    H180774   2.091   3.765  11.152  0.3838  0.5789  0.2566
19761TIP3    H280775   2.171   3.637  11.144 -0.9550 -0.2090 -1.1470
19762TIP3   OH280776   2.158   2.903  16.475 -0.4657 -0.2726 -0.1834
19762TIP3    H180777   2.086   2.893  16.536 -1.0070 -1.2913 -0.9555
19762TIP3    H280778   2.120   2.945  16.398  0.1783  0.8700  0.0977
19763TIP3   OH280779   4.670   0.354  12.858 -0.4333 -0.3632 -0.3111
19763TIP3    H180780   4.724   0.304  12.918  1.0627  1.7025  0.1790
19763TIP3    H280781   4.702   0.331  12.771 -0.5480 -1.0847 -0.1654
19764TIP3   OH280782   2.947   1.349   1.320  0.1793 -0.0709  0.1190
19764TIP3    H180783   2.983   1.262   1.303 -0.3645 -0.4547  0.8458
19764TIP3    H280784   2.937   1.389   1.234 -1.0174 -1.3274 -0.3706
19765TIP3   OH280785   0.160   2.097   4.751 -0.4199  0.2270 -0.1324
19765TIP3    H180786   0.241   2.065   4.792 -1.6059 -1.1179  1.2744
19765TIP3    H280787   0.113   2.141   4.821 -2.2051 -1.5471 -0.1363
19766TIP3   OH280788   3.874   1.421  16.291 -0.3615  0.4961  0.3937
19766TIP3    H180789   3.911   1.502  16.326 -0.9912  0.3532  1.3988
19766TIP3    H280790   3.906   1.419  16.200  1.4029  0.7933  0.9591
19767TIP3   OH280791   1.712   2.741  13.529 -0.4565 -0.3897  0.1721
19767TIP3    H180792   1.790   2.796  13.526 -1.1400  0.6518  0.5910
19767TIP3    H280793   1.674   2.758  13.616 -2.0121  0.3933 -0.6133
19768TIP3   OH280794   2.158   1.942  14.546 -0.0190 -0.5606  0.6414
19768TIP3    H180795   2.161   1.938  14.451 -1.6559 -1.7277  0.5941
19768TIP3    H280796   2.160   2.035  14.567 -0.7140 -0.2488 -0.5940
19769TIP3   OH280797   5.880   6.735   6.286  0.4290 -0.4585 -0.1540
19769TIP3    H180798   5.884   6.639   6.285 -0.4305 -0.5150  0.8018
19769TIP3    H280799   5.972   6.763   6.285  0.6919 -1.2510 -1.9274
19770TIP3   OH280800   0.386   1.221  11.508  0.3459 -0.6448  0.6048
19770TIP3    H180801   0.296   1.204  11.535 -0.6598  1.9591 -0.6743
19770TIP3    H280802   0.420   1.280  11.575  0.3416  0.0162  0.0420
19771TIP3   OH280803   5.900   6.170   1.123  0.2145 -0.2137 -0.3260
19771TIP3    H180804   5.905   6.223   1.043  0.4781  0.2980  0.0315
19771TIP3    H280805   5.809   6.139   1.125 -0.0773  0.6426 -0.2593
19772TIP3   OH280806   4.859   5.524  14.553 -0.5673  0.2649  0.2257
19772TIP3    H180807   4.921   5.553  14.619 -2.0646 -0.4293  2.0383
19772TIP3    H280808   4.883   5.432  14.537 -0.5087  0.2921  0.1540
19773TIP3   OH280809   5.848   5.548  15.471  0.1635 -0.2828 -0.3974
19773TIP3    H180810   5.908   5.477  15.496  0.4430 -0.2747 -1.0414
19773TIP3    H280811   5.776   5.541  15.534  0.9868 -0.0926  0.5847
19774TIP3   OH280812   3.899   4.002  14.750 -0.3107 -0.5006  0.7405
19774TIP3    H180813   3.836   4.064  14.712 -2.0647 -1.8506  1.3008
19774TIP3    H280814   3.852   3.963  14.824  1.0043 -1.9683  0.8436
19775TIP3   OH280815   4.195   0.340   3.398  0.1331 -0.0025  0.4380
19775TIP3    H180816   4.171   0.390   3.476 -1.0212  0.3526 -0.1213
19775TIP3    H280817   4.209   0.406   3.330 -1.9510 -0.3970 -0.4570
19776TIP3   OH280818   6.437   6.707  13.426  0.0046  0.1269  0.1275
19776TIP3    H180819   6.418   6.725  13.334  0.3089 -1.3475 -0.2372
19776TIP3    H280820   6.522   6.747  13.441  1.1041 -1.7139 -0.9274
19777TIP3   OH280821   4.477   4.858  16.285 -0.3454 -0.5295  0.0000
19777TIP3    H180822   4.535   4.786  16.309 -0.5683 -0.3839  1.0401
19777TIP3    H280823   4.396   4.841  16.332 -0.7806 -0.1733 -0.6111
19778TIP3   OH280824   0.659   1.068   0.225 -0.3355 -0.1103  0.3661
19778TIP3    H180825   0.624   1.005   0.163 -0.9208  1.7357 -1.2841
19778TIP3    H280826   0.707   1.131   0.172  1.1025  0.3169  2.0499
19779TIP3   OH280827   4.390   1.293   1.765  0.4508  0.1753  0.5191
19779TIP3    H180828   4.305   1.258   1.737 -0.0928  1.5252  0.3977
19779TIP3    H280829   4.452   1.222   1.749 -0.8167 -1.2650  1.6394
19780TIP3   OH280830   2.157   0.056   3.255  0.4688 -0.5267  0.4383
19780TIP3    H180831   2.242   0.099   3.253 -1.0290  2.7747 -2.3073
19780TIP3    H280832   2.155   0.003   3.175 -1.0103  1.9200 -1.2978
19781TIP3   OH280833   2.533   1.251   0.427 -0.8309  0.0020  0.1465
19781TIP3    H180834   2.519   1.177   0.367 -0.2951 -0.7899  0.9864
19781TIP3    H280835   2.602   1.302   0.386 -1.5183  0.3091 -0.6719
19782TIP3   OH280836   0.318   1.242   6.367  0.1309  0.2409  0.3366
19782TIP3    H180837   0.236   1.289   6.378 -0.1895 -0.5011  1.2289
19782TIP3    H280838   0.386   1.307   6.380 -0.3068  0.6826  0.4252
19783TIP3   OH280839   0.866   5.463   3.642 -0.2277 -0.2112  0.5230
19783TIP3    H180840   0.826   5.420   3.718  1.2093 -1.1764  0.7761
19783TIP3    H280841   0.949   5.417   3.630  1.7759  2.9558  1.2278
19784TIP3   OH280842   1.295   6.320  15.655  0.3568 -0.3677 -0.5192
19784TIP3    H180843   1.204   6.296  15.672 -0.1127  0.2662 -1.9267
19784TIP3    H280844   1.309   6.399  15.707  0.7571 -1.5567  1.2529
19785TIP3   OH280845   1.504   1.147  10.758 -0.0274 -0.1989 -0.5070
19785TIP3    H180846   1.431   1.208  10.748 -0.9895 -1.2783 -0.2833
19785TIP3    H280847   1.557   1.184  10.828  0.5834  1.4624 -1.7625
19786TIP3   OH280848   0.579   1.260  10.455 -0.0367 -0.3727 -0.2837
19786TIP3    H180849   0.494   1.236  10.492 -0.8957 -1.4091 -2.6638
19786TIP3    H280850   0.573   1.354  10.441 -1.6246 -0.6625 -2.0874
19787TIP3   OH280851   0.939   4.958  11.213  0.1221  0.8898 -0.3512
19787TIP3    H180852   0.947   5.025  11.146  1.0939  0.1933 -0.9621
19787TIP3    H280853   0.848   4.929  11.208  0.0028  1.3503 -0.8851
19788TIP3   OH280854   1.923   0.492   2.431 -0.0454 -0.1120  0.2338
19788TIP3    H180855   1.976   0.524   2.504  1.2586  0.3498 -0.8775
19788TIP3    H280856   1.948   0.401   2.422 -0.2548 -0.1869  0.3838
19789TIP3   OH280857   5.823   6.446  12.346  0.2546  0.1037  0.2247
19789TIP3    H180858   5.897   6.387  12.333 -2.1241 -3.0800  0.0896
19789TIP3    H280859   5.796   6.472  12.258  1.1678  1.3361  0.2767
19790TIP3   OH280860   5.751   2.643   1.867  0.2222  0.1165 -0.0213
19790TIP3    H180861   5.783   2.733   1.857  2.0797 -0.2627  1.6430
19790TIP3    H280862   5.662   2.652   1.900  0.2166  1.3427 -0.3292
19791TIP3   OH280863   6.081   3.843   2.059 -0.1183  0.1992  0.2329
19791TIP3    H180864   6.057   3.920   2.007  0.0019  0.2755  0.2890
19791TIP3    H280865   6.144   3.796   2.005  1.3853  1.2123  1.0327
19792TIP3   OH280866   2.712   1.250  14.174  0.0167  0.2447  0.5068
19792TIP3    H180867   2.729   1.318  14.109  0.6518 -1.0974 -0.7883
19792TIP3    H280868   2.624   1.269  14.207 -0.8704  0.2093 -1.7118
19793TIP3   OH280869   3.651   2.361   3.419 -0.0827  0.0375 -0.1312
19793TIP3    H180870   3.669   2.336   3.509  0.9457  1.9835  0.2375
19793TIP3    H280871   3.721   2.422   3.396 -0.8309  0.2739 -1.9587
19794TIP3   OH280872   1.574   0.192   5.372 -0.1585 -0.3948 -0.1920
19794TIP3    H180873   1.508   0.250   5.333 -1.8131 -2.3239 -0.4492
19794TIP3    H280874   1.566   0.111   5.322  2.0409 -0.8892  0.1869
19795TIP3   OH280875   1.743   3.575  15.296  0.2188 -0.5751 -0.2521
19795TIP3    H180876   1.714   3.663  15.272  1.3180  0.0497  0.6026
19795TIP3    H280877   1.835   3.572  15.269  0.2724 -1.3547 -0.0039
19796TIP3   OH280878   6.492   0.995  14.679  0.3277 -0.0203 -0.3026
19796TIP3    H180879   6.471   0.971  14.769  1.4790 -0.0210 -0.0126
19796TIP3    H280880   6.436   1.070  14.660 -0.0505 -0.1291  0.3478
19797TIP3   OH280881   6.827   2.718   1.577  0.0547  0.2731 -0.3103
19797TIP3    H180882   6.862   2.672   1.500 -0.3087 -0.8328  0.1645
19797TIP3    H280883   6.735   2.733   1.557  0.6430  2.9554 -1.4490
19798TIP3   OH280884   3.911   1.795   0.801 -0.1644  0.8965 -0.3605
19798TIP3    H180885   3.922   1.748   0.718 -0.2815 -0.7578  0.5245
19798TIP3    H280886   3.888   1.727   0.864  1.3531  1.8959  1.3469
19799TIP3   OH280887   6.089   0.806   4.402 -0.3832 -0.1842  0.3486
19799TIP3    H180888   6.075   0.889   4.358 -0.7824 -1.3463 -1.8658
19799TIP3    H280889   6.019   0.749   4.371 -2.1377 -0.5122  4.3505
19800TIP3   OH280890   4.913   0.067  10.984 -0.2186  0.1638 -0.3062
19800TIP3    H180891   4.825   0.069  10.948  0.0665  0.4413 -1.0098
19800TIP3    H280892   4.942   0.159  10.982 -1.4716  0.8484  3.9234
19801TIP3   OH280893   1.450   0.140   1.062 -0.1018 -0.3003  0.2420
19801TIP3    H180894   1.391   0.210   1.034 -1.0767 -1.1180  0.2086
19801TIP3    H280895   1.523   0.186   1.104 -0.2735  0.7709 -0.5839
19802TIP3   OH280896   5.721   1.335   3.570  0.5665 -0.7175 -0.7258
19802TIP3    H180897   5.653   1.332   3.503 -1.1711  0.3004  0.8949
19802TIP3    H280898   5.785   1.398   3.536 -0.2488 -0.2603 -1.4659
19803TIP3   OH280899   3.435   2.503   3.481 -0.2227 -0.5450 -0.7973
19803TIP3    H180900   3.519   2.464   3.455 -0.5216 -0.6262 -1.6893
19803TIP3    H280901   3.382   2.500   3.401 -0.4442  1.1741 -0.7437
19804TIP3   OH280902   4.451   4.990   5.920 -0.5528  0.0765  0.3574
19804TIP3    H180903   4.419   4.902   5.900 -0.6778  0.3504 -0.7278
19804TIP3    H280904   4.538   4.976   5.956 -0.5300 -0.4947  0.0886
19805TIP3   OH280905   3.301   0.888  13.664  0.3197 -0.8291 -1.1257
19805TIP3    H180906   3.240   0.945  13.711  1.1757  0.0933 -1.1036
19805TIP3    H280907   3.249   0.811  13.642 -1.2427  0.4805 -2.2742
19806TIP3   OH280908   2.159   5.860   1.200 -0.0556 -0.3554  0.0769
19806TIP3    H180909   2.199   5.850   1.286 -0.3386  0.7675  0.3532
19806TIP3    H280910   2.193   5.786   1.149  1.0453 -0.3729  0.7980
19807TIP3   OH280911   2.516   1.939   2.804  0.6323  0.4081 -0.5819
19807TIP3    H180912   2.586   1.991   2.764  1.8643 -1.1254 -0.5029
19807TIP3    H280913   2.532   1.944   2.898  0.2602  0.5402 -0.5208
19808TIP3   OH280914   2.384   2.714   0.667  0.4036 -0.2292  0.1826
19808TIP3    H180915   2.378   2.798   0.620 -1.4145 -0.1898  0.3951
19808TIP3    H280916   2.375   2.738   0.759  1.1146 -0.5636  0.3425
19809TIP3   OH280917   6.251   3.973   3.604  0.8141 -0.2930 -0.2207
19809TIP3    H180918   6.267   3.906   3.670 -0.6343  0.8500  1.3887
19809TIP3    H280919   6.169   3.947   3.562 -0.2869  0.9008  1.0902
19810TIP3   OH280920   0.753   3.292  16.022  0.0747  0.1749 -0.6477
19810TIP3    H180921   0.668   3.275  15.980  0.7762 -1.4156 -1.5292
19810TIP3    H280922   0.778   3.207  16.058  1.7362  0.3725 -1.2658
19811TIP3   OH280923   6.092   2.327  16.630 -0.1966 -0.5080 -0.5149
19811TIP3    H180924   6.078   2.420  16.616  1.3512 -0.3932 -1.6378
19811TIP3    H280925   6.171   2.322  16.685  0.4841 -1.1324 -1.5024
19812TIP3   OH280926   5.122   0.771   4.886  0.1670 -0.2977  0.0232
19812TIP3    H180927   5.104   0.829   4.813 -2.3613 -1.3201 -0.2599
19812TIP3    H280928   5.065   0.695   4.872 -0.5011 -0.4991  3.0742
19813TIP3   OH280929   4.704   6.154   5.455 -0.3629  0.0324  0.8704
19813TIP3    H180930   4.737   6.242   5.471 -0.0602 -0.0985  0.9695
19813TIP3    H280931   4.613   6.167   5.428 -0.3990  0.3559  1.1432
19814TIP3   OH280932   2.588   4.450  14.896 -0.6923 -0.3090  0.2426
19814TIP3    H180933   2.543   4.498  14.965  1.6022  1.7741  0.4566
19814TIP3    H280934   2.547   4.479  14.814 -0.9559  0.1132  0.5238
19815TIP3   OH280935   0.584   6.511  14.368 -0.0053 -0.0568  0.5193
19815TIP3    H180936   0.495   6.544  14.382  0.2865  0.3818  1.4254
19815TIP3    H280937   0.631   6.586  14.332 -0.2402 -0.5871 -0.9517
19816TIP3   OH280938   2.950   6.283   3.954 -0.1552 -0.1891  0.1525
19816TIP3    H180939   2.977   6.205   4.001 -0.9316  0.1340  1.1709
19816TIP3    H280940   2.966   6.263   3.862 -1.5317 -2.0459  0.2630
19817TIP3   OH280941   1.571   6.097  16.856  0.4735  0.0800 -0.1143
19817TIP3    H180942   1.658   6.119  16.824  0.1894 -0.5162 -1.3604
19817TIP3    H280943   1.567   6.001  16.852 -0.5304  0.1387 -0.9313
19818TIP3   OH280944   6.302   4.419   2.940  0.3862  0.3874  0.3073
19818TIP3    H180945   6.223   4.457   2.980 -0.6521  0.6010 -1.7771
19818TIP3    H280946   6.306   4.460   2.854  2.9814  0.5850  0.4595
19819TIP3   OH280947   3.981   3.100  11.869 -0.2043  0.1579  0.2369
19819TIP3    H180948   4.056   3.150  11.901 -0.9252  0.3400  1.7382
19819TIP3    H280949   4.016   3.013  11.852  0.5256  0.4704  0.0979
19820TIP3   OH280950   2.873   0.213   6.399 -0.0265 -0.3025 -0.0471
19820TIP3    H180951   2.825   0.205   6.317  0.6029  0.4073 -0.4918
19820TIP3    H280952   2.929   0.289   6.387 -0.3255  0.1498  1.2456
19821TIP3   OH280953   5.917   5.211  16.298  0.3823 -0.4152  0.1354
19821TIP3    H180954   6.005   5.236  16.327  0.3648 -0.0141 -0.1601
19821TIP3    H280955   5.859   5.277  16.336  0.2882 -0.2657 -0.2613
19822TIP3   OH280956   2.634   4.102  14.642 -0.6034 -0.2728 -0.4339
19822TIP3    H180957   2.689   4.109  14.720 -0.8771 -1.2051 -0.1496
19822TIP3    H280958   2.608   4.192  14.623 -0.9627 -0.0901  0.8526
19823TIP3   OH280959   3.912   4.317   2.861  0.2052  0.5396 -0.5086
19823TIP3    H180960   3.836   4.261   2.876 -0.0596  0.7681 -0.9710
19823TIP3    H280961   3.987   4.257   2.860  0.0877  0.3714  0.4183
19824TIP3   OH280962   2.980   1.032  14.584 -0.4066  0.5637  0.2164
19824TIP3    H180963   2.952   1.072  14.502 -0.4434 -1.0038 -0.5891
19824TIP3    H280964   2.916   0.962  14.599  1.5240 -1.4279 -0.3027
19825TIP3   OH280965   2.737   0.142  12.869  0.4654 -0.4262  0.0525
19825TIP3    H180966   2.652   0.147  12.826  0.8539 -1.2566 -0.8666
19825TIP3    H280967   2.757   0.048  12.870  0.4908 -0.4423  2.0535
19826TIP3   OH280968   4.577   5.046   5.667 -0.0968  1.0353  0.5554
19826TIP3    H180969   4.513   5.076   5.603 -0.4980  1.2722  1.0607
19826TIP3    H280970   4.531   5.049   5.751 -0.3430 -1.5062  0.5989
19827TIP3   OH280971   5.450   6.455  16.364  0.4488  0.6750  0.4184
19827TIP3    H180972   5.384   6.458  16.295  0.2521 -0.5151  0.5333
19827TIP3    H280973   5.534   6.457  16.317  0.3377  1.9080  0.2583
19828TIP3   OH280974   0.339   2.590  16.206  0.6368  0.0001  0.4742
19828TIP3    H180975   0.246   2.610  16.191  1.4182  2.4563 -2.0806
19828TIP3    H280976   0.371   2.565  16.119  2.2317 -1.5567  1.4743
19829TIP3   OH280977   2.057   5.012   4.190  0.0479  0.3699  0.7677
19829TIP3    H180978   2.002   5.071   4.242  1.8857  1.3733  1.6812
19829TIP3    H280979   2.111   4.968   4.255  1.1875  0.3425 -0.1815
19830TIP3   OH280980   0.862   3.357  13.410 -0.2520  0.4185 -0.8057
19830TIP3    H180981   0.881   3.304  13.487 -0.1486  1.0705 -0.3721
19830TIP3    H280982   0.873   3.448  13.440 -3.1179  0.8304 -0.7580
19831TIP3   OH280983   1.393   2.018   4.889 -0.6174  0.0035 -0.1469
19831TIP3    H180984   1.312   1.988   4.849 -1.2256  1.1640  0.2054
19831TIP3    H280985   1.385   1.993   4.981 -0.9802  0.9478  0.0786
19832TIP3   OH280986   2.668   5.034  12.120  0.4009  0.2390 -0.8750
19832TIP3    H180987   2.613   5.099  12.077 -2.8798  0.2343  2.7742
19832TIP3    H280988   2.719   5.085  12.183 -0.2965 -0.4047  0.2347
19833TIP3   OH280989   6.215   4.884  16.565  0.1240 -0.0990 -0.2677
19833TIP3    H180990   6.181   4.859  16.651  1.5163 -2.0688 -0.2010
19833TIP3    H280991   6.137   4.904  16.513 -0.7587  0.7899  1.3404
19834TIP3   OH280992   0.110   5.755  14.523 -1.3593 -0.1532  0.2558
19834TIP3    H180993   0.039   5.778  14.463 -1.8819 -0.6963  0.6442
19834TIP3    H280994   0.184   5.809  14.496 -1.5606 -0.4518 -0.9189
19835TIP3   OH280995   6.723   0.991   3.329  1.0652  0.0344 -0.1081
19835TIP3    H180996   6.799   0.948   3.291  1.5075  0.7793 -0.0965
19835TIP3    H280997   6.746   1.084   3.330  0.8656  0.1089  1.4990
19836TIP3   OH280998   6.021   3.090  12.247  0.1536 -0.1728 -0.6483
19836TIP3    H180999   5.988   3.180  12.246  0.6587  0.0079 -1.4541
19836TIP3    H281000   6.109   3.097  12.285  0.4412 -0.2304 -1.2887
19837TIP3   OH281001   6.170   5.337  16.807  0.8337  0.2694 -0.9297
19837TIP3    H181002   6.087   5.294  16.787  0.8906  1.2106 -3.4886
19837TIP3    H281003   6.145   5.413  16.859  0.4846 -1.2340  1.2395
19838TIP3   OH281004   3.171   3.294  13.486 -0.3085  0.0025 -0.0355
19838TIP3    H181005   3.145   3.249  13.405  0.5469  0.5799 -0.6379
19838TIP3    H281006   3.088   3.323  13.525 -0.6554  1.0367 -1.4734
19839TIP3   OH281007   4.121   6.471  15.862 -0.1314 -0.1804 -0.3170
19839TIP3    H181008   4.134   6.441  15.772 -0.3975 -0.0990 -0.3821
19839TIP3    H281009   4.069   6.402  15.903  0.6529 -0.5945 -0.0022
19840TIP3   OH281010   5.070   0.472   4.133 -0.3201  0.3480  0.4199
19840TIP3    H181011   5.034   0.396   4.180  0.9450  0.1262  1.0555
19840TIP3    H281012   5.015   0.479   4.055  1.9800 -3.8699 -1.9563
19841TIP3   OH281013   0.288   1.770  13.470  0.3153  0.5942 -0.5860
19841TIP3    H181014   0.329   1.756  13.555  1.0437  1.2451 -0.8167
19841TIP3    H281015   0.286   1.684  13.429 -0.8237  0.1222  0.4235
19842TIP3   OH281016   3.498   5.232  11.708 -0.2442  0.5898 -0.0108
19842TIP3    H181017   3.575   5.193  11.666  0.0872 -0.2214  1.2992
19842TIP3    H281018   3.473   5.304  11.650  1.3166  0.6764 -0.6144
19843TIP3   OH281019   3.492   4.991   4.516  0.1940 -0.0609  0.3522
19843TIP3    H181020   3.494   4.940   4.436 -1.0957 -0.2665  0.4422
19843TIP3    H281021   3.484   4.927   4.586  2.2883  0.0408  0.7666
19844TIP3   OH281022   4.273   1.280   4.876 -0.3720  0.2230  0.4094
19844TIP3    H181023   4.289   1.374   4.889  3.1306 -0.2581  0.5840
19844TIP3    H281024   4.360   1.242   4.867 -1.6719 -3.0420  0.2026
19845TIP3   OH281025   5.587   0.567   6.331 -0.5595 -0.2494  0.1223
19845TIP3    H181026   5.596   0.473   6.346 -0.5010 -0.0258  1.6772
19845TIP3    H281027   5.571   0.603   6.418 -0.5590  1.1854 -0.4543
19846TIP3   OH281028   2.696   1.364   3.020  0.5944  0.2731 -0.0081
19846TIP3    H181029   2.695   1.291   2.958 -0.7214  0.1358  0.1456
19846TIP3    H281030   2.683   1.323   3.105 -0.8002  0.6990  0.0190
19847TIP3   OH281031   0.103   2.939  10.527  0.0828 -0.1882 -0.4425
19847TIP3    H181032   0.096   2.986  10.444 -1.4410  1.0442  0.3577
19847TIP3    H281033   0.022   2.889  10.534  0.7055 -1.1978 -0.2187
19848TIP3   OH281034   0.325   5.260   0.920 -0.1042  0.1793  0.2265
19848TIP3    H181035   0.397   5.223   0.970 -0.1242  0.6786  0.6345
19848TIP3    H281036   0.297   5.189   0.862  0.0480 -0.3396  0.7811
19849TIP3   OH281037   3.896   1.264   1.576 -0.1313 -0.1566 -0.7133
19849TIP3    H181038   3.947   1.340   1.605 -0.1876  0.8817 -3.1208
19849TIP3    H281039   3.882   1.213   1.656  2.5864  0.7451  0.4590
19850TIP3   OH281040   2.060   3.174   4.622  0.1392  0.1736 -0.2022
19850TIP3    H181041   2.061   3.258   4.667 -0.0430 -0.0957  0.3082
19850TIP3    H281042   2.081   3.110   4.689 -0.7008 -0.2906 -0.3694
19851TIP3   OH281043   1.430   0.098  12.688  0.4992 -0.1738  0.3342
19851TIP3    H181044   1.476   0.037  12.631  1.2942 -1.0419  1.8376
19851TIP3    H281045   1.428   0.180  12.638  1.0884 -0.9035 -0.9543
19852TIP3   OH281046   6.625   6.245   3.061 -0.2853 -0.2380  0.1300
19852TIP3    H181047   6.668   6.172   3.106 -0.8645 -0.3262  0.5565
19852TIP3    H281048   6.605   6.307   3.131 -0.5545 -0.0503 -0.1105
19853TIP3   OH281049   6.369   4.353  11.905  0.1251 -0.2275  0.3989
19853TIP3    H181050   6.305   4.293  11.869  0.5080 -0.3929 -0.0133
19853TIP3    H281051   6.454   4.319  11.877  0.2967  1.3099 -1.1263
19854TIP3   OH281052   1.719   2.065  12.509  0.0475  0.1393  0.7128
19854TIP3    H181053   1.717   2.031  12.598 -0.5457  0.1634  0.7101
19854TIP3    H281054   1.795   2.022  12.469 -0.8474 -1.4295  0.6100
19855TIP3   OH281055   6.299   3.912   2.297  0.1984 -0.0662  0.5611
19855TIP3    H181056   6.270   3.862   2.221 -0.5719  0.1705  0.6935
19855TIP3    H281057   6.359   3.978   2.261  1.8218 -1.5158  0.4755
19856TIP3   OH281058   2.733   2.288  12.713 -0.6406  0.1747 -0.9335
19856TIP3    H181059   2.825   2.266  12.701 -0.5024 -0.0260  0.3616
19856TIP3    H281060   2.687   2.205  12.699 -0.6732  0.3288 -1.8473
19857TIP3   OH281061   1.641   1.421  11.892 -0.1108 -0.1099  0.2746
19857TIP3    H181062   1.622   1.510  11.863 -0.6140  0.1758  1.4406
19857TIP3    H281063   1.622   1.366  11.816 -2.2689  0.5136  0.3138
19858TIP3   OH281064   2.727   6.475  11.636  0.5633 -0.0770  0.2098
19858TIP3    H181065   2.667   6.479  11.711  2.2093  1.2494  1.5485
19858TIP3    H281066   2.685   6.528  11.568  0.4066  1.2590  1.2991
19859TIP3   OH281067   0.522   5.115  11.881  0.1221 -0.0478 -0.1261
19859TIP3    H181068   0.593   5.061  11.914  1.7933  1.0051 -1.8301
19859TIP3    H281069   0.503   5.080  11.794 -1.2371 -0.0838  0.1610
19860TIP3   OH281070   2.898   3.506  14.500  0.3978 -0.0173  0.1772
19860TIP3    H181071   2.966   3.439  14.507 -0.7051 -1.2767 -0.7098
19860TIP3    H281072   2.934   3.571  14.440  0.7726 -0.7558 -0.4190
19861TIP3   OH281073   5.598   5.542   2.625  0.0199  0.2869  0.1779
19861TIP3    H181074   5.651   5.542   2.704 -0.4279  0.2383  0.4799
19861TIP3    H281075   5.532   5.473   2.640  0.6052 -0.4934 -0.6866
19862TIP3   OH281076   6.836   0.881  13.609  0.1879  0.6076 -0.4458
19862TIP3    H181077   6.918   0.890  13.562  0.8977  0.7737  0.7747
19862TIP3    H281078   6.797   0.801  13.576  1.3974 -0.0762 -0.2455
19863TIP3   OH281079   0.290   3.817   3.668  0.2355  0.0793 -0.4724
19863TIP3    H181080   0.209   3.783   3.705  0.1464  0.4881 -0.2832
19863TIP3    H281081   0.265   3.901   3.628  0.8284  0.9122  0.8372
19864TIP3   OH281082   6.142   6.576   6.209 -0.6395 -0.2198 -0.5473
19864TIP3    H181083   6.169   6.657   6.253  2.3058 -1.5231  0.3519
19864TIP3    H281084   6.207   6.565   6.140 -0.4042 -2.2377 -0.0521
19865TIP3   OH281085   1.295   6.737   4.195 -0.6362 -0.2543 -0.4547
19865TIP3    H181086   1.244   6.815   4.172  1.4250  0.5917 -2.6659
19865TIP3    H281087   1.234   6.664   4.182 -1.5029  0.7364 -2.5344
19866TIP3   OH281088   5.247   6.450  11.515  0.1335 -0.1651  0.4148
19866TIP3    H181089   5.289   6.483  11.436  2.1894 -2.8089  0.2806
19866TIP3    H281090   5.265   6.516  11.582 -0.3826  1.4033 -0.9400
19867TIP3   OH281091   0.673   3.928  12.906 -0.0149  0.0888 -0.0527
19867TIP3    H181092   0.595   3.983  12.896  0.1409  0.0860 -1.6284
19867TIP3    H281093   0.694   3.932  12.999 -0.1420  2.5193 -0.0471
19868TIP3   OH281094   3.037   4.909  10.585  0.3467  0.2040  0.1449
19868TIP3    H181095   3.058   4.844  10.519  0.0886 -1.1098  1.3254
19868TIP3    H281096   2.952   4.883  10.619  0.6413  0.6420  1.2639
19869TIP3   OH281097   5.621   1.020  11.344  0.1234  0.0268  0.4956
19869TIP3    H181098   5.587   1.088  11.286 -2.0990 -1.7661 -0.4582
19869TIP3    H281099   5.601   1.051  11.432 -0.8214  0.6395  0.0764
19870TIP3   OH281100   2.976   6.332   2.075  0.0831  0.1960 -0.1002
19870TIP3    H181101   3.001   6.380   1.996 -0.2638  1.0887  0.3120
19870TIP3    H281102   2.888   6.363   2.095  0.5572  0.7749  1.2128
19871TIP3   OH281103   4.469   4.403  17.018 -0.4270 -0.2143  0.2353
19871TIP3    H181104   4.421   4.485  17.005 -0.4249 -0.2666 -0.1147
19871TIP3    H281105   4.552   4.430  17.058 -0.4714 -0.0559  0.2203
19872TIP3   OH281106   0.000   3.483   4.619 -0.6396  0.3212 -0.1878
19872TIP3    H181107   0.027   3.536   4.544 -0.3685 -0.3384 -0.5666
19872TIP3    H281108   0.048   3.520   4.693  0.0160  0.2335 -0.5564
19873TIP3   OH281109   5.739   4.942  16.245 -0.0447  0.0219 -0.1330
19873TIP3    H181110   5.735   5.032  16.279  1.9884 -0.2524  1.0329
19873TIP3    H281111   5.665   4.898  16.287 -1.1201  1.1271 -0.7823
19874TIP3   OH281112   1.224   1.697  15.399  0.1386  0.1231  0.1186
19874TIP3    H181113   1.260   1.609  15.393 -2.1652 -0.8174 -1.6852
19874TIP3    H281114   1.129   1.684  15.398 -0.2994  2.6611 -2.2117
19875TIP3   OH281115   5.490   1.338   0.520 -1.0147  0.7844 -0.4778
19875TIP3    H181116   5.582   1.349   0.546 -1.2103  0.1375  0.5344
19875TIP3    H281117   5.490   1.258   0.468 -1.3168 -0.4095  1.2904
19876TIP3   OH281118   3.185   6.849   0.045 -0.1443 -0.0675  0.3929
19876TIP3    H181119   3.258   6.911   0.049  0.4831 -0.8436  1.9100
19876TIP3    H281120   3.199   6.799  -0.035 -0.4525  1.4586 -0.6650
19877TIP3   OH281121   1.186   2.470   6.422 -0.3669  0.0937 -0.2662
19877TIP3    H181122   1.147   2.489   6.507 -2.1380  0.0407 -1.0162
19877TIP3    H281123   1.227   2.552   6.396  3.5478 -0.8282  2.1987
19878TIP3   OH281124   4.732   3.589   3.887 -0.2997  0.3591 -0.2750
19878TIP3    H181125   4.777   3.531   3.949 -0.3948  1.2330  0.6390
19878TIP3    H281126   4.670   3.638   3.941 -0.9399  0.5964 -1.1967
19879TIP3   OH281127   2.598   5.343   5.468 -0.2780 -0.1489  0.6099
19879TIP3    H181128   2.614   5.250   5.455  0.3102  0.0850 -0.4324
19879TIP3    H281129   2.562   5.373   5.385  2.2900  1.1202 -0.1493
19880TIP3   OH281130   1.210   2.210  12.786 -0.0530 -0.2195  0.1987
19880TIP3    H181131   1.211   2.116  12.803 -3.6616 -0.4906 -0.2939
19880TIP3    H281132   1.255   2.249  12.861  0.3443 -2.2609  1.0656
19881TIP3   OH281133   2.706   5.410  14.671 -0.1222 -0.0959  0.1489
19881TIP3    H181134   2.625   5.370  14.640 -1.9793  3.1515  0.3812
19881TIP3    H281135   2.758   5.424  14.592 -0.8561  0.0136 -0.3180
19882TIP3   OH281136   0.453   6.067   5.367  0.1768 -0.4870  0.5186
19882TIP3    H181137   0.503   6.006   5.312  1.0645  1.4421 -0.9067
19882TIP3    H281138   0.412   6.127   5.306 -0.0227  0.8530  1.9073
19883TIP3   OH281139   1.939   2.827   1.281  0.5316  0.6970  0.5548
19883TIP3    H181140   1.950   2.838   1.375  1.4949  0.6425  0.4610
19883TIP3    H281141   1.892   2.745   1.271 -1.0118  1.4925  1.0351
19884TIP3   OH281142   6.036   6.119   2.959 -0.1500 -0.4361 -0.1137
19884TIP3    H181143   6.086   6.200   2.956 -0.3642 -0.3295 -0.9819
19884TIP3    H281144   5.964   6.137   3.020 -1.3876  0.7270 -1.8432
19885TIP3   OH281145   0.797   6.845   6.017  0.0530  0.0200 -0.4143
19885TIP3    H181146   0.874   6.825   5.963  1.7836  0.3759  1.7561
19885TIP3    H281147   0.800   6.780   6.088 -0.2051  1.5303  1.0501
19886TIP3   OH281148   6.011   4.804  13.478  0.4920 -0.0765  0.3080
19886TIP3    H181149   6.100   4.830  13.453 -0.0891 -0.1837 -2.1747
19886TIP3    H281150   5.964   4.796  13.394 -1.7829 -0.3110  1.5161
19887TIP3   OH281151   3.663   4.879  15.364 -0.1704  0.2097 -0.3119
19887TIP3    H181152   3.718   4.929  15.304 -0.6976  1.6545  0.3435
19887TIP3    H281153   3.646   4.940  15.437 -0.8836 -0.9231  0.5088
19888TIP3   OH281154   4.314   1.192  14.915  0.4044  0.0748 -0.1094
19888TIP3    H181155   4.395   1.156  14.950  2.0773  1.0442 -2.7142
19888TIP3    H281156   4.308   1.280  14.952 -0.2046 -0.4469  1.0942
19889TIP3   OH281157   5.108   6.073   0.501  0.3973  0.0327 -0.3312
19889TIP3    H181158   5.120   6.117   0.585  1.4082  1.6717 -1.2640
19889TIP3    H281159   5.082   5.984   0.523  0.2278  0.5448  1.6960
19890TIP3   OH281160   3.498   0.071   2.312  0.2940 -0.0491  0.1885
19890TIP3    H181161   3.451   0.116   2.241  1.6882 -2.0194 -2.0941
19890TIP3    H281162   3.577   0.123   2.325  0.2291  0.0843  0.0553
19891TIP3   OH281163   5.348   2.888   5.530  0.2370  0.5134  0.3605
19891TIP3    H181164   5.259   2.852   5.521  0.1583  0.8145 -0.0830
19891TIP3    H281165   5.335   2.982   5.544  0.5048  0.6472 -0.2731
19892TIP3   OH281166   5.487   3.478  14.802 -0.5527 -0.0333  0.2016
19892TIP3    H181167   5.539   3.454  14.725 -0.9917  1.8753 -0.7741
19892TIP3    H281168   5.548   3.525  14.859 -0.5438 -0.2567  0.3751
19893TIP3   OH281169   0.156   1.491  14.725  0.4845 -0.3000 -0.0099
19893TIP3    H181170   0.247   1.500  14.695  0.2047 -0.1859 -0.8500
19893TIP3    H281171   0.108   1.465  14.647 -0.3746  0.5722  0.2202
19894TIP3   OH281172   3.046   0.530   5.885  0.0376 -0.7591 -0.2446
19894TIP3    H181173   3.118   0.535   5.948  0.0739  1.7896 -0.3871
19894TIP3    H281174   2.968   0.523   5.939  0.0197  1.9701  0.2592
19895TIP3   OH281175   6.485   0.319  13.534 -0.5655 -0.3139  0.3991
19895TIP3    H181176   6.451   0.233  13.558 -1.6124 -0.3695 -1.1938
19895TIP3    H281177   6.529   0.305  13.450 -0.5619  0.6598  0.2295
19896TIP3   OH281178   2.080   3.562  15.277 -0.5637  0.0517  0.4437
19896TIP3    H181179   2.136   3.634  15.245 -0.1306 -0.4024  0.1662
19896TIP3    H281180   2.079   3.499  15.205 -0.3651 -0.5427  0.9556
19897TIP3   OH281181   6.689   3.444   2.829 -0.2522 -0.7855  0.4787
19897TIP3    H181182   6.689   3.391   2.749 -0.7515 -1.7179  1.0763
19897TIP3    H281183   6.772   3.492   2.826  1.1638 -3.0417  0.8037
19898TIP3   OH281184   5.599   0.875   4.665  0.5374  0.1318 -0.3056
19898TIP3    H181185   5.633   0.959   4.635 -0.2759 -0.0273 -1.8199
19898TIP3    H281186   5.514   0.867   4.621 -0.8595 -0.0969  2.2149
19899TIP3   OH281187   6.189   4.036   4.614  0.1351  0.4573  0.5682
19899TIP3    H181188   6.278   4.018   4.646  0.2951  0.6567  0.2396
19899TIP3    H281189   6.133   4.027   4.691  0.1072 -2.0878  0.3440
19900TIP3   OH281190   4.402   0.315  14.937 -0.3311  0.2981 -0.4580
19900TIP3    H181191   4.452   0.353  15.009 -0.1298  0.3793 -0.6410
19900TIP3    H281192   4.452   0.337  14.858 -0.3008 -0.2084 -0.5818
19901TIP3   OH281193   3.731   1.738   2.719  0.0058 -0.1062 -0.4380
19901TIP3    H181194   3.808   1.758   2.773  0.9325 -1.1878 -1.2850
19901TIP3    H281195   3.757   1.660   2.670 -1.5010 -0.2442 -1.0551
19902TIP3   OH281196   1.254   2.248  15.024 -0.2263 -0.6124 -0.1506
19902TIP3    H181197   1.252   2.340  14.999  1.1004 -0.0859  1.5415
19902TIP3    H281198   1.341   2.234  15.059 -0.4186 -2.5257 -0.3247
19903TIP3   OH281199   2.110   5.182  16.379  0.3022 -0.8172 -0.1712
19903TIP3    H181200   2.135   5.132  16.301  0.8799 -0.2602 -0.3504
19903TIP3    H281201   2.015   5.190  16.372  0.5508  1.4323 -2.2041
19904TIP3   OH281202   5.443   4.492  16.644 -0.2279  0.8428 -0.0009
19904TIP3    H181203   5.379   4.489  16.572 -0.6372 -0.1942  0.3776
19904TIP3    H281204   5.505   4.423  16.623 -0.5270  0.3208  0.7854
19905TIP3   OH281205   2.886   3.843  12.750  0.1236 -0.2390  0.4501
19905TIP3    H181206   2.835   3.808  12.677 -0.6697  1.1419  0.3045
19905TIP3    H281207   2.826   3.840  12.824  0.0829  0.6295  0.4674
19906TIP3   OH281208   1.505   5.797  15.116 -0.0090  0.2775  0.3924
19906TIP3    H181209   1.450   5.800  15.194 -0.5036  0.6444  0.0288
19906TIP3    H281210   1.474   5.721  15.067 -0.6374  0.8615 -0.1341
19907TIP3   OH281211   0.200   4.819  12.786 -0.1163 -0.1350 -0.1694
19907TIP3    H181212   0.200   4.914  12.778  1.3440  0.0824  1.7754
19907TIP3    H281213   0.292   4.794  12.778 -0.4869 -1.4053 -0.7072
19908TIP3   OH281214   1.389   3.545  13.690  0.5737  0.7184 -0.4627
19908TIP3    H181215   1.353   3.574  13.774  1.8767  3.5520 -0.7488
19908TIP3    H281216   1.319   3.494  13.649 -0.9798  1.3161  1.3156
19909TIP3   OH281217   2.893   5.858  16.079  0.0329 -0.1255 -0.2234
19909TIP3    H181218   2.850   5.882  16.162  0.6167  1.3125 -0.3061
19909TIP3    H281219   2.849   5.777  16.052 -2.3562  1.0283 -0.0852
19910TIP3   OH281220   0.871   6.774  12.654 -0.5475 -0.1394 -0.3399
19910TIP3    H181221   0.926   6.851  12.646  0.7240 -1.0569 -0.6875
19910TIP3    H281222   0.795   6.804  12.705 -0.1992  1.3753 -0.6687
19911TIP3   OH281223   2.597   1.502   2.307 -0.4606  0.0107  0.1867
19911TIP3    H181224   2.546   1.430   2.345  0.0723 -0.4783 -0.0134
19911TIP3    H281225   2.688   1.473   2.315 -0.2689  0.4819 -0.2806
19912TIP3   OH281226   0.316   0.821  15.797  0.3036 -0.2089 -0.4956
19912TIP3    H181227   0.350   0.909  15.816 -0.2458 -0.4868  2.2388
19912TIP3    H281228   0.223   0.835  15.777  0.7282  0.0159 -2.4750
19913TIP3   OH281229   3.909   4.842   3.941 -0.1134 -0.0581  0.1629
19913TIP3    H181230   3.968   4.856   4.016 -1.7667 -0.9970  1.7303
19913TIP3    H281231   3.911   4.925   3.894  0.8652  0.6349  1.3437
19914TIP3   OH281232   0.233   6.485  11.775  0.6424  0.0810 -0.2015
19914TIP3    H181233   0.266   6.405  11.815  1.7991 -0.4686 -2.0999
19914TIP3    H281234   0.166   6.517  11.835  0.4133 -2.1127  0.7927
19915TIP3   OH281235   5.126   5.255  13.770 -0.4811  0.4276 -0.1373
19915TIP3    H181236   5.103   5.336  13.724 -1.1383  0.2461 -0.1422
19915TIP3    H281237   5.190   5.213  13.713 -0.4969  0.7140 -0.3731
19916TIP3   OH281238   6.407   5.497  11.477 -0.2882 -0.1856 -0.5676
19916TIP3    H181239   6.367   5.413  11.453 -0.9426 -0.6730  1.9177
19916TIP3    H281240   6.433   5.536  11.394 -1.3105 -2.1820 -1.9051
19917TIP3   OH281241   1.587   3.456  15.485 -0.3630  0.4716 -0.0114
19917TIP3    H181242   1.666   3.499  15.453 -0.5899  0.2486 -0.9049
19917TIP3    H281243   1.515   3.502  15.443 -0.6815  0.2817  0.3163
19918TIP3   OH281244   1.854   1.479   0.098  0.0751  0.3440  0.4467
19918TIP3    H181245   1.925   1.478   0.163 -0.2473 -2.8157  0.8969
19918TIP3    H281246   1.775   1.497   0.149  0.2456  1.7424  0.2642
19919TIP3   OH281247   0.557   1.801   4.643  0.4403  0.8107  0.9405
19919TIP3    H181248   0.538   1.785   4.550  1.4673  3.3276  0.2242
19919TIP3    H281249   0.471   1.801   4.685 -0.1838  1.1760 -0.2940
19920TIP3   OH281250   3.537   5.267   5.409 -0.0908 -0.6511 -0.3692
19920TIP3    H181251   3.575   5.259   5.496  0.0974 -2.5015 -0.5929
19920TIP3    H281252   3.487   5.187   5.396  1.0711 -1.0980 -2.5050
19921TIP3   OH281253   5.152   3.846  10.733 -0.7207  0.0917  0.2846
19921TIP3    H181254   5.103   3.915  10.687 -0.2473  0.3990  0.2388
19921TIP3    H281255   5.095   3.770  10.728 -0.6031  0.0641 -0.9952
19922TIP3   OH281256   0.313   3.181   0.507  0.3761  0.2004  0.0542
19922TIP3    H181257   0.310   3.219   0.419  0.9839 -0.6057 -0.3249
19922TIP3    H281258   0.250   3.233   0.558  1.1584  1.6868 -0.4489
19923TIP3   OH281259   3.941   0.888   0.286 -0.1901 -0.7703 -0.2273
19923TIP3    H181260   3.966   0.796   0.296 -2.3395 -1.3978 -0.1422
19923TIP3    H281261   3.851   0.885   0.254 -0.8552  1.3148  1.2612
19924TIP3   OH281262   1.136   0.865   1.470  0.0397  0.0502  0.0027
19924TIP3    H181263   1.069   0.801   1.493  0.3753  0.1057  1.1809
19924TIP3    H281264   1.199   0.861   1.542  0.4625  1.1528 -0.2807
19925TIP3   OH281265   3.969   2.149   1.888  0.3521 -0.1023 -0.2148
19925TIP3    H181266   3.919   2.223   1.922 -0.2892  0.8294 -2.9119
19925TIP3    H281267   4.045   2.190   1.846  1.4969 -1.2396  0.6734
19926TIP3   OH281268   4.489   4.802   2.129 -0.1622 -0.1683 -0.5095
19926TIP3    H181269   4.433   4.804   2.051 -1.1683  1.7715  0.1896
19926TIP3    H281270   4.576   4.826   2.096 -0.1778 -1.0753 -1.2717
19927TIP3   OH281271   2.288   2.865   4.318 -0.1293  0.2711  0.2230
19927TIP3    H181272   2.382   2.868   4.298  0.0111  1.9675  0.9624
19927TIP3    H281273   2.248   2.829   4.239  1.2071 -1.2792  0.2164
19928TIP3   OH281274   5.045   3.576  12.522  0.1368  0.1939 -0.2142
19928TIP3    H181275   4.999   3.608  12.600 -0.9093  1.3117 -1.2450
19928TIP3    H281276   5.089   3.496  12.551 -1.6520 -0.3853  1.1060
19929TIP3   OH281277   6.540   2.932   1.844 -0.0753 -0.6531  0.4521
19929TIP3    H181278   6.508   2.997   1.907 -1.2625 -1.5519  0.8005
19929TIP3    H281279   6.494   2.852   1.866  1.4251 -1.6636  0.0688
19930TIP3   OH281280   2.123   4.367   0.811 -0.4059  0.4668  0.0898
19930TIP3    H181281   2.203   4.380   0.759  0.1638  1.1618  1.1100
19930TIP3    H281282   2.052   4.371   0.747  0.4040 -0.8766 -0.9532
19931TIP3   OH281283   6.291   0.148  13.666  0.3074  0.1052  1.3251
19931TIP3    H181284   6.208   0.161  13.621  0.0794 -2.1764  0.9671
19931TIP3    H281285   6.275   0.178  13.756 -0.9602 -0.4698  1.3049
19932TIP3   OH281286   6.555   1.275  11.694  0.4422 -0.3171 -0.2242
19932TIP3    H181287   6.597   1.277  11.780  1.2619  2.3250 -0.5954
19932TIP3    H281288   6.600   1.205  11.647  4.0315  1.7683 -0.3017
19933TIP3   OH281289   6.512   4.505  16.589  0.2467  0.0687 -0.2631
19933TIP3    H181290   6.418   4.505  16.572  0.1990  1.4038 -0.1007
19933TIP3    H281291   6.522   4.556  16.670  0.9361 -1.7544  0.8766
19934TIP3   OH281292   5.707   5.231  14.943  0.2386 -0.5532  0.4017
19934TIP3    H181293   5.642   5.165  14.967 -1.0116  0.4792 -0.0833
19934TIP3    H281294   5.674   5.271  14.863  1.1486  0.4379  0.4860
19935TIP3   OH281295   6.690   1.394  15.590 -0.3596 -0.6530  1.0211
19935TIP3    H181296   6.607   1.393  15.637 -1.6420  0.4082 -1.0684
19935TIP3    H281297   6.677   1.335  15.516  0.4107  0.1922  0.1819
19936TIP3   OH281298   0.602   1.957   1.787  0.0460  0.0837  0.2330
19936TIP3    H181299   0.556   1.879   1.819 -1.0973  0.7330  0.2066
19936TIP3    H281300   0.535   2.007   1.740  0.2593  2.0028  1.8359
19937TIP3   OH281301   4.400   4.800   3.648  0.2009  0.1295 -0.3463
19937TIP3    H181302   4.411   4.713   3.609 -0.5306  0.0308 -0.3488
19937TIP3    H281303   4.464   4.803   3.719  0.7807 -0.1065 -0.8553
19938TIP3   OH281304   5.655   3.258  13.674 -0.0056 -0.4967 -0.4196
19938TIP3    H181305   5.649   3.333  13.614  2.0977 -0.1185 -0.2608
19938TIP3    H281306   5.747   3.232  13.669 -0.4185 -2.2686  0.5182
19939TIP3   OH281307   4.879   5.818   2.054  0.6096 -0.0022  0.5558
19939TIP3    H181308   4.801   5.799   2.001  0.3542  2.1127  0.0542
19939TIP3    H281309   4.844   5.858   2.134  1.1540  0.5464  0.5289
19940TIP3   OH281310   0.134   5.562  15.251  0.3925 -0.2856  0.3024
19940TIP3    H181311   0.102   5.639  15.297 -1.3313 -0.7197 -0.0773
19940TIP3    H281312   0.212   5.536  15.299  1.1536  1.8067  0.2915
19941TIP3   OH281313   4.103   0.517   6.541 -0.1650 -0.5925 -0.4590
19941TIP3    H181314   4.180   0.461   6.548  0.1290 -0.3208 -1.3563
19941TIP3    H281315   4.067   0.521   6.630  0.7083 -0.9223 -0.0871
19942TIP3   OH281316   2.235   2.741  13.947 -0.0092  0.2175 -0.2682
19942TIP3    H181317   2.263   2.733  14.038  0.7105  0.8472 -0.4309
19942TIP3    H281318   2.162   2.679  13.940 -2.0289  2.1779  1.5231
19943TIP3   OH281319   4.478   0.702  12.095  0.1293  0.0453  0.0782
19943TIP3    H181320   4.574   0.707  12.094  0.1876 -1.0064 -0.2668
19943TIP3    H281321   4.456   0.693  12.188  0.5054 -1.8678  0.0108
19944TIP3   OH281322   5.407   4.802   3.392  0.0598  0.5389  0.5394
19944TIP3    H181323   5.448   4.868   3.448  0.0536  0.9544  0.0553
19944TIP3    H281324   5.478   4.770   3.336 -0.1351  0.7866  0.1507
19945TIP3   OH281325   6.736   2.527   5.433  0.2954  0.0794  0.0945
19945TIP3    H181326   6.755   2.438   5.462  0.7425  0.4500  0.9582
19945TIP3    H281327   6.702   2.571   5.510  2.0469  1.2459  0.2573
19946TIP3   OH281328   0.868   2.226   2.185 -0.5111 -0.4358 -0.0524
19946TIP3    H181329   0.823   2.281   2.249 -1.2379 -3.3079  2.1234
19946TIP3    H281330   0.810   2.226   2.108 -2.4325 -1.0561  1.3100
19947TIP3   OH281331   3.894   0.094   6.065  0.2671  0.2582  0.4777
19947TIP3    H181332   3.845   0.170   6.035 -0.4102  0.4512  1.9981
19947TIP3    H281333   3.962   0.129   6.122 -0.0164 -0.2624  1.1462
19948TIP3   OH281334   2.731   4.540  13.776 -0.3921 -0.3186 -0.0254
19948TIP3    H181335   2.740   4.556  13.870  2.1130  1.0387 -0.4061
19948TIP3    H281336   2.760   4.450  13.764  1.4126  0.1777  0.3108
19949TIP3   OH281337   2.892   4.683   5.395 -0.5457 -0.6734  0.0363
19949TIP3    H181338   2.896   4.610   5.458 -0.8083  0.5517  1.5433
19949TIP3    H281339   2.897   4.761   5.450 -0.4639  0.4504 -1.5299
19950TIP3   OH281340   5.480   1.534   4.613  0.0150  0.0557 -0.1538
19950TIP3    H181341   5.425   1.604   4.648 -0.4053 -0.4495  0.2121
19950TIP3    H281342   5.448   1.454   4.656 -0.7178 -0.6373 -1.9189
19951TIP3   OH281343   1.566   4.732  14.589 -0.3735  0.4172 -0.6877
19951TIP3    H181344   1.582   4.637  14.596 -0.0117  0.5022 -0.3326
19951TIP3    H281345   1.647   4.772  14.619 -1.1609  0.8626  0.9166
19952TIP3   OH281346   1.003   6.345   0.799 -0.0091  0.5048  0.3960
19952TIP3    H181347   0.955   6.355   0.717  2.6378  3.5428 -0.9883
19952TIP3    H281348   0.950   6.392   0.864 -1.2254 -0.3624  0.0592
19953TIP3   OH281349   3.789   3.877  10.589  0.6989 -0.0855  0.0126
19953TIP3    H181350   3.810   3.784  10.594  2.2489  0.2746  0.6026
19953TIP3    H281351   3.873   3.922  10.598 -0.0316  1.3851 -0.1332
19954TIP3   OH281352   4.826   3.783  12.197 -0.2054  0.1429  0.2431
19954TIP3    H181353   4.861   3.790  12.286  1.1014 -1.2779 -0.1146
19954TIP3    H281354   4.777   3.700  12.199  1.6475 -1.0593 -0.8829
19955TIP3   OH281355   2.384   5.853  12.498  0.2689  0.4775 -0.2856
19955TIP3    H181356   2.395   5.948  12.492  0.6530  0.3457 -2.0155
19955TIP3    H281357   2.470   5.821  12.526  0.4866  0.5538 -0.8529
19956TIP3   OH281358   4.620   0.067  12.759  0.7917  0.5854  0.0864
19956TIP3    H181359   4.663   0.088  12.841  0.7756  1.2486 -0.0619
19956TIP3    H281360   4.653  -0.019  12.734 -0.9848 -0.7471  1.9772
19957TIP3   OH281361   5.200   0.924  14.782 -0.1474 -0.0262  0.0451
19957TIP3    H181362   5.185   0.953  14.691  0.6424  1.5768  0.3772
19957TIP3    H281363   5.295   0.925  14.791 -0.2049 -0.6946  0.7487
19958TIP3   OH281364   5.437   4.989  10.788 -0.0827  0.1193  0.6479
19958TIP3    H181365   5.422   4.896  10.769 -0.2130  0.4983 -1.2572
19958TIP3    H281366   5.530   5.003  10.771 -0.1400  0.4161  0.5697
19959TIP3   OH281367   5.960   5.355   0.440 -0.8219  0.5439  0.0667
19959TIP3    H181368   6.011   5.312   0.508 -2.9663  3.3286  3.8621
19959TIP3    H281369   6.023   5.410   0.394  0.9394 -2.4041 -1.3187
19960TIP3   OH281370   3.800   3.458  12.617  0.2956  0.1220 -0.3719
19960TIP3    H181371   3.835   3.544  12.641  1.3344 -0.1806 -0.7684
19960TIP3    H281372   3.705   3.469  12.622  0.4089  1.3279 -0.5216
19961TIP3   OH281373   2.220   1.964   0.432 -0.2664  0.3813  0.8576
19961TIP3    H181374   2.142   2.019   0.446 -1.7703 -0.6809 -2.3246
19961TIP3    H281375   2.259   1.997   0.351  2.2265  0.3690  1.9640
19962TIP3   OH281376   4.563   2.119  14.697  0.1008 -0.1752 -0.3377
19962TIP3    H181377   4.528   2.031  14.708  0.7812 -0.2716  1.3493
19962TIP3    H281378   4.494   2.167  14.653 -1.4775 -0.8245  1.3076
19963TIP3   OH281379   4.087   6.712  14.192 -0.4791 -0.4307 -0.2533
19963TIP3    H181380   4.054   6.782  14.136 -0.6461  0.4871  0.9486
19963TIP3    H281381   4.126   6.757  14.267 -0.8928 -1.6201  0.7210
19964TIP3   OH281382   1.710   3.460   4.249  0.0476  0.4978  0.6925
19964TIP3    H181383   1.803   3.462   4.268  0.3432  0.9221 -0.7356
19964TIP3    H281384   1.679   3.548   4.271  0.1594  0.6348  0.2965
19965TIP3   OH281385   1.383   2.968  16.868  0.5918 -0.1298 -0.5174
19965TIP3    H181386   1.361   3.061  16.872 -1.4071 -0.5954  1.1113
19965TIP3    H281387   1.391   2.949  16.774 -1.1201  1.2313 -0.9830
19966TIP3   OH281388   2.155   6.127   1.087  0.2954 -0.4823 -0.0070
19966TIP3    H181389   2.082   6.099   1.142 -1.2113 -0.4859 -1.9012
19966TIP3    H281390   2.215   6.053   1.087 -0.6282 -1.2518  0.0646
19967TIP3   OH281391   5.211   3.168  15.635  0.4881 -0.0684  0.0158
19967TIP3    H181392   5.272   3.097  15.658  2.0903  1.0216 -0.6980
19967TIP3    H281393   5.267   3.237  15.598 -1.4184  0.1217 -2.8087
19968TIP3   OH281394   0.344   2.201  16.464 -0.5835  0.2045  0.0513
19968TIP3    H181395   0.306   2.192  16.377  0.0899 -0.2519 -0.2095
19968TIP3    H281396   0.425   2.251  16.449  0.8087 -1.9512  0.0268
19969TIP3   OH281397   5.049   5.231   5.497  0.5472 -0.3577  0.0198
19969TIP3    H181398   5.112   5.274   5.556  0.1182  1.0757 -0.5230
19969TIP3    H281399   4.981   5.197   5.555  1.5458 -1.4767  0.5713
19970TIP3   OH281400   1.185   5.160  14.915 -0.3912  0.3169  0.2635
19970TIP3    H181401   1.159   5.068  14.910 -0.1478  0.1688  1.4223
19970TIP3    H281402   1.275   5.157  14.946 -0.8131  0.9684  1.6235
19971TIP3   OH281403   4.176   0.718   1.164  0.4238  0.6642  0.4436
19971TIP3    H181404   4.125   0.751   1.090  0.8032  2.2053  0.8263
19971TIP3    H281405   4.114   0.715   1.236 -0.5174 -2.9065 -0.3296
19972TIP3   OH281406   4.218   0.197  14.253 -0.0149  0.1377  0.0158
19972TIP3    H181407   4.233   0.103  14.252 -1.2650 -0.0976  0.5733
19972TIP3    H281408   4.192   0.218  14.163 -0.6897 -0.2435  0.1105
19973TIP3   OH281409   5.865   6.543  16.072 -0.5356 -0.2587  0.0036
19973TIP3    H181410   5.827   6.588  15.996 -0.2596  0.3775  0.2302
19973TIP3    H281411   5.931   6.485  16.035 -1.4957 -1.1343 -0.3679
19974TIP3   OH281412   4.392   5.992   5.987 -0.5002  0.1921 -0.0611
19974TIP3    H181413   4.472   6.031   5.951  0.6412 -0.3701  1.7672
19974TIP3    H281414   4.341   6.067   6.019  0.7892  0.4010  1.6551
19975TIP3   OH281415   2.933   5.378  11.973  0.3039  0.0986  0.7515
19975TIP3    H181416   2.887   5.451  12.014  1.5827  0.5342  1.4535
19975TIP3    H281417   2.994   5.348  12.039 -0.1306 -1.5718  0.4268
19976TIP3   OH281418   1.709   1.023  14.750  0.1025  0.3183  0.5679
19976TIP3    H181419   1.776   0.982  14.806  0.4169 -0.6453 -0.4851
19976TIP3    H281420   1.666   1.087  14.808  0.8458 -0.1867  1.7257
19977TIP3   OH281421   2.588   5.076   2.272 -0.0060 -0.4611  0.7238
19977TIP3    H181422   2.651   5.029   2.217 -0.2765 -1.2320  1.0683
19977TIP3    H281423   2.578   5.022   2.350 -1.1677 -0.4013  0.6343
19978TIP3   OH281424   4.712   2.460   3.464  0.3061 -0.1244  0.3826
19978TIP3    H181425   4.693   2.453   3.371  2.1918 -1.7870  0.0379
19978TIP3    H281426   4.633   2.429   3.508  0.0809 -1.2322 -0.7506
19979TIP3   OH281427   1.182   4.553   5.662  0.0616  0.5387 -0.3138
19979TIP3    H181428   1.142   4.633   5.629 -0.9134 -0.0597 -0.6138
19979TIP3    H281429   1.186   4.566   5.757 -1.7852  0.2336 -0.1457
19980TIP3   OH281430   2.214   2.599   5.229 -0.6894 -0.4429 -0.0738
19980TIP3    H181431   2.196   2.520   5.178  0.8485 -1.0504  0.2706
19980TIP3    H281432   2.301   2.584   5.266 -1.1564  0.5953  1.5465
19981TIP3   OH281433   6.574   2.661  13.414 -0.4912 -0.1894  0.5463
19981TIP3    H181434   6.655   2.695  13.376 -1.0895 -1.1218 -1.7480
19981TIP3    H281435   6.579   2.566  13.400 -2.9835 -0.0735 -1.9327
19982TIP3   OH281436   0.011   2.007  15.113 -0.6374 -0.4556 -0.6996
19982TIP3    H181437   0.070   1.959  15.172 -0.8095 -1.0868 -1.0291
19982TIP3    H281438  -0.011   1.943  15.045 -1.2342 -0.0423 -0.8983
19983TIP3   OH281439   1.235   5.075  16.470 -1.1852  0.3073 -0.3831
19983TIP3    H181440   1.237   4.988  16.509 -1.9494  0.1834 -0.6002
19983TIP3    H281441   1.172   5.068  16.398 -0.5942  0.8124 -0.9610
19984TIP3   OH281442   6.508   3.700  15.973  0.9209  0.2604  0.2336
19984TIP3    H181443   6.420   3.677  16.005  1.0238 -0.5539 -0.0339
19984TIP3    H281444   6.511   3.662  15.885  2.0779 -1.0461  0.8081
19985TIP3   OH281445   1.989   1.008   4.756 -0.3865 -0.3623  0.3745
19985TIP3    H181446   1.952   1.025   4.843  0.5040 -1.3590  0.9655
19985TIP3    H281447   2.080   1.035   4.763 -0.1307 -1.0913 -0.0258
19986TIP3   OH281448   2.082   6.148  14.378 -0.3278  0.1766 -0.1927
19986TIP3    H181449   2.130   6.197  14.444 -0.3536 -0.9466  0.6926
19986TIP3    H281450   1.994   6.136  14.415 -1.7065  2.9579 -2.1488
19987TIP3   OH281451   5.726   2.638  14.689 -0.1745  0.4369 -0.5995
19987TIP3    H181452   5.681   2.556  14.708  0.4688  0.3954  0.8537
19987TIP3    H281453   5.802   2.611  14.637  1.5624 -0.3131  2.1127
19988TIP3   OH281454   1.557   0.027   3.977 -0.2974 -0.2507 -0.3066
19988TIP3    H181455   1.490  -0.040   3.994 -1.4523  1.0023  0.3115
19988TIP3    H281456   1.507   0.102   3.943  0.5231  1.3327  1.7664
19989TIP3   OH281457   0.183   3.940   2.221  0.1535  0.2954 -0.2410
19989TIP3    H181458   0.273   3.907   2.216  0.0760  0.0322  0.0370
19989TIP3    H281459   0.142   3.913   2.139  0.2301  0.1166 -0.2207
19990TIP3   OH281460   0.531   5.522  12.317 -0.2410  0.0536  0.2456
19990TIP3    H181461   0.624   5.512  12.337  0.5806  2.8688 -1.5447
19990TIP3    H281462   0.505   5.438  12.278  0.6116 -1.9395  3.6163
19991TIP3   OH281463   1.782   3.991  10.907 -0.2146  0.0788  0.0375
19991TIP3    H181464   1.802   4.063  10.847 -0.2551  0.6974  0.7503
19991TIP3    H281465   1.755   3.919  10.850  0.6598  0.3433 -0.7464
19992TIP3   OH281466   4.412   1.699  14.175  0.4817 -0.5152 -0.2521
19992TIP3    H181467   4.454   1.705  14.089 -0.0715 -0.1276 -0.4991
19992TIP3    H281468   4.320   1.681  14.156 -0.0491  1.5338  0.1764
19993TIP3   OH281469   5.352   1.071   6.291  0.2068  0.0742 -0.3576
19993TIP3    H181470   5.278   1.105   6.341  0.8427  0.6600  0.2269
19993TIP3    H281471   5.382   0.995   6.341 -1.1859 -1.4018 -1.6421
19994TIP3   OH281472   1.554   2.126   5.362  0.2626  0.5655  0.4887
19994TIP3    H181473   1.499   2.196   5.326 -0.4851 -0.4326 -0.3778
19994TIP3    H281474   1.635   2.170   5.388  0.0711  1.6552 -0.6540
19995TIP3   OH281475   2.469   3.248   0.302  0.1271 -0.5198 -0.1558
19995TIP3    H181476   2.387   3.287   0.332 -0.4662 -1.2794 -0.7470
19995TIP3    H281477   2.538   3.306   0.337 -0.6359 -0.0648  0.6289
19996TIP3   OH281478   4.423   0.797   1.025  0.1857  0.0560 -0.1744
19996TIP3    H181479   4.375   0.790   1.108 -0.1577  0.7927 -0.3057
19996TIP3    H281480   4.371   0.857   0.972  1.4239  1.1353 -0.1975
19997TIP3   OH281481   6.346   4.918  16.910  0.2103 -0.0648 -0.8383
19997TIP3    H181482   6.305   5.000  16.936 -2.1712 -1.6355  0.6905
19997TIP3    H281483   6.409   4.899  16.979 -0.7091 -0.4861 -0.0901
19998TIP3   OH281484   2.501   1.953   2.381 -0.5069  0.2004 -0.5551
19998TIP3    H181485   2.482   1.865   2.413  0.4136  0.3436  0.4199
19998TIP3    H281486   2.596   1.958   2.378 -0.5527  0.9396 -1.2617
19999TIP3   OH281487   0.555   3.012   5.428 -0.3531 -0.5104  0.5171
19999TIP3    H181488   0.630   3.054   5.385  0.2374 -0.1013  1.8937
19999TIP3    H281489   0.583   2.921   5.441 -1.2054 -1.1233 -1.4562
20000TIP3   OH281490   6.197   6.806   4.135  0.6880  0.0868 -0.1236
20000TIP3    H181491   6.214   6.768   4.049  2.3718 -0.0693  0.2532
20000TIP3    H281492   6.262   6.875   4.145 -0.2999  0.9629  0.5322
20001TIP3   OH281493   6.635   1.306  11.981  0.2739  0.0979  0.3266
20001TIP3    H181494   6.579   1.343  12.049 -1.7568 -1.2341 -0.5307
20001TIP3    H281495   6.698   1.375  11.961 -1.2516  1.7998  1.1354
20002TIP3   OH281496   1.210   1.041  12.180 -0.0299 -0.5995 -0.3536
20002TIP3    H181497   1.295   1.077  12.205 -0.1831 -0.5746  0.1379
20002TIP3    H281498   1.223   1.009  12.091  0.0385  0.9395 -0.9376
20003TIP3   OH281499   6.361   3.361   2.025  0.3074 -0.7958  0.3499
20003TIP3    H181500   6.378   3.378   2.117  0.1656  1.4031  0.0212
20003TIP3    H281501   6.277   3.404   2.008  2.0033  2.1144 -1.5668
20004TIP3   OH281502   2.336   6.346   6.567  0.2233  0.4029  0.1239
20004TIP3    H181503   2.383   6.428   6.582  1.8925 -0.3735 -0.5596
20004TIP3    H281504   2.389   6.280   6.612 -1.0598 -0.3324  0.6174
20005TIP3   OH281505   4.555   6.720   4.729  1.0256 -0.1155 -0.2363
20005TIP3    H181506   4.610   6.798   4.724 -1.0483  1.3673 -1.8114
20005TIP3    H281507   4.486   6.743   4.791  1.3071 -1.3827  0.5936
20006TIP3   OH281508   6.359   5.686   2.388 -0.3516 -0.6797 -0.2074
20006TIP3    H181509   6.343   5.680   2.482 -1.5018 -0.8188 -0.4015
20006TIP3    H281510   6.318   5.768   2.362  1.3399  0.1776 -0.3459
20007TIP3   OH281511   3.146   0.391  11.115  0.3331  0.0998 -0.1888
20007TIP3    H181512   3.203   0.330  11.161  0.2036  0.5922  0.6438
20007TIP3    H281513   3.064   0.344  11.102  0.6304 -0.3091 -0.6214
20008TIP3   OH281514   0.402   2.738   6.328 -0.0594 -0.1877  0.2627
20008TIP3    H181515   0.497   2.729   6.338 -0.1681 -1.5623  0.2265
20008TIP3    H281516   0.386   2.832   6.338  1.3208  0.0924  0.0795
20009TIP3   OH281517   0.745   1.483  14.892  0.0830  0.0763  0.0522
20009TIP3    H181518   0.693   1.407  14.918 -1.9737  1.5196  0.4109
20009TIP3    H281519   0.702   1.514  14.812 -0.1903  1.8132  0.8322
20010TIP3   OH281520   1.050   5.524  13.626 -0.3996 -0.2929 -0.0224
20010TIP3    H181521   1.021   5.597  13.572 -0.8519 -0.9086 -0.6328
20010TIP3    H281522   1.110   5.563  13.690 -1.0029  0.6797 -0.0294
20011TIP3   OH281523   6.136   3.566   2.453  0.1206 -0.4311 -0.6579
20011TIP3    H181524   6.185   3.491   2.486 -2.5744 -1.6376  0.9437
20011TIP3    H281525   6.045   3.547   2.475 -0.5902  4.0967  1.5030
20012TIP3   OH281526   4.552   4.737   5.093 -0.2954 -0.5058 -0.3802
20012TIP3    H181527   4.593   4.754   5.008  1.9426  0.6239  0.8493
20012TIP3    H281528   4.496   4.813   5.108  0.8316  0.2739 -0.0043
20013TIP3   OH281529   0.813   5.973   5.468 -0.0326  0.3339 -0.5273
20013TIP3    H181530   0.823   6.021   5.550 -2.6701 -0.8627  0.5983
20013TIP3    H281531   0.846   5.885   5.488  1.0480  0.5330 -1.3575
20014TIP3   OH281532   6.257   1.517  13.992  0.3835  0.5237  0.0978
20014TIP3    H181533   6.173   1.515  13.945  0.7106 -0.0213 -0.4734
20014TIP3    H281534   6.232   1.517  14.084 -0.3069  2.8342 -0.0251
20015TIP3   OH281535   0.541   6.409   4.832 -0.2987 -0.0676 -0.4349
20015TIP3    H181536   0.462   6.439   4.877  0.1127 -0.3664  0.5161
20015TIP3    H281537   0.613   6.457   4.873 -0.0264  0.6980 -1.7399
20016TIP3   OH281538   4.466   6.720   2.013 -0.7755 -0.6870 -0.3342
20016TIP3    H181539   4.528   6.787   1.984 -1.2114 -0.0825  0.0912
20016TIP3    H281540   4.380   6.759   1.998 -1.0419 -1.2214 -0.2332
20017TIP3   OH281541   3.276   3.844   2.491  0.2252  0.0664 -0.4381
20017TIP3    H181542   3.201   3.784   2.489 -0.4316  0.9022 -1.6104
20017TIP3    H281543   3.266   3.898   2.413 -0.2857  3.0231  1.5057
20018TIP3   OH281544   3.816   2.975  11.557 -0.2217  0.1369  0.8211
20018TIP3    H181545   3.877   3.040  11.522 -1.1551  0.9270  0.6107
20018TIP3    H281546   3.744   3.027  11.593  0.8888 -0.5631  4.4580
20019TIP3   OH281547   1.095   1.899   3.586  0.1834 -0.0673 -0.0675
20019TIP3    H181548   1.088   1.976   3.529  0.2053 -0.3474 -0.4526
20019TIP3    H281549   1.132   1.933   3.667  0.4780  0.2808 -0.3411
20020TIP3   OH281550   2.151   5.996   6.321  0.1843  0.3094  0.0715
20020TIP3    H181551   2.125   5.954   6.403  1.6647 -1.2320 -0.1999
20020TIP3    H281552   2.212   5.934   6.280  1.1154  1.9635 -1.1904
20021TIP3   OH281553   5.857   3.447  13.052  0.8277 -0.1708  0.6385
20021TIP3    H181554   5.895   3.506  12.987 -0.3286 -0.6938 -0.5553
20021TIP3    H281555   5.893   3.361  13.030 -2.1266 -1.0056 -1.5883
20022TIP3   OH281556   2.901   3.303   1.317  0.2658 -0.5003  0.0002
20022TIP3    H181557   2.931   3.233   1.259 -0.5603 -0.1972 -0.8128
20022TIP3    H281558   2.818   3.271   1.352 -0.8631  0.6547 -1.5174
20023TIP3   OH281559   0.853   3.624   3.718 -0.2036 -0.1587  0.3037
20023TIP3    H181560   0.830   3.570   3.794  0.7764 -0.7656  0.1933
20023TIP3    H281561   0.865   3.560   3.647  0.5802  0.2416  0.0692
20024TIP3   OH281562   5.619   0.637  16.744 -0.1963  0.0286 -0.1604
20024TIP3    H181563   5.634   0.644  16.649  0.3127  1.2811  0.0048
20024TIP3    H281564   5.543   0.578  16.751 -0.1229 -0.2401 -1.3347
20025TIP3   OH281565   5.491   0.948  10.868 -0.3462  0.7889  0.4894
20025TIP3    H181566   5.495   0.921  10.960 -1.3365 -3.9366 -0.5753
20025TIP3    H281567   5.568   0.907  10.828 -2.0616 -0.8452 -1.3757
20026TIP3   OH281568   4.078   4.644  16.373  0.0455  0.3076  0.3367
20026TIP3    H181569   3.985   4.639  16.396  0.3020  1.4934  1.7706
20026TIP3    H281570   4.123   4.654  16.456  1.3720  0.8067 -0.4054
20027TIP3   OH281571   5.325   6.824   0.279  0.7072  0.1973 -0.3450
20027TIP3    H181572   5.321   6.798   0.187 -2.1665  1.3047 -0.6176
20027TIP3    H281573   5.351   6.916   0.276  1.2221  0.0699  0.0249
20028TIP3   OH281574   3.523   5.380  12.572 -0.3295  0.2186  0.2986
20028TIP3    H181575   3.565   5.376  12.658  1.5103  2.0167 -0.4343
20028TIP3    H281576   3.555   5.303  12.526 -0.6065 -0.2687  0.9087
20029TIP3   OH281577   5.210   5.108   4.646 -0.2147 -0.2595  0.0966
20029TIP3    H181578   5.252   5.023   4.631  1.8631  0.9399 -1.3320
20029TIP3    H281579   5.121   5.096   4.614  0.4060 -1.5579 -1.2777
20030TIP3   OH281580   2.488   2.624  15.419 -0.2718 -0.0297 -0.2124
20030TIP3    H181581   2.493   2.609  15.325 -1.3698  0.0156 -0.2938
20030TIP3    H281582   2.579   2.628  15.448  0.0884 -1.6350 -1.0061
20031TIP3   OH281583   3.072   4.839   5.587  0.2239 -0.2939 -0.0873
20031TIP3    H181584   3.161   4.848   5.554  0.6651 -0.4958  1.0232
20031TIP3    H281585   3.081   4.801   5.674 -0.8423  1.1413  0.7010
20032TIP3   OH281586   2.597   4.373   0.411 -0.8505  0.0964  0.5737
20032TIP3    H181587   2.531   4.424   0.364 -0.3889  0.1415 -0.0359
20032TIP3    H281588   2.626   4.308   0.348 -1.0566 -0.5978  1.1795
20033TIP3   OH281589   2.725   2.703   3.387  0.2292 -0.1907  0.3990
20033TIP3    H181590   2.706   2.759   3.312  1.8290  1.4157  1.1180
20033TIP3    H281591   2.662   2.729   3.454  0.7299  0.5307  0.6040
20034TIP3   OH281592   1.913   0.237  11.040  0.1303 -0.0223 -0.2163
20034TIP3    H181593   1.928   0.265  11.130 -1.6535  2.3799 -0.5631
20034TIP3    H281594   2.001   0.227  11.003  0.9129  1.6927  1.0468
20035TIP3   OH281595   4.290   5.234   1.364 -0.7017  0.5102  0.2108
20035TIP3    H181596   4.299   5.166   1.431 -0.3912 -0.6757 -0.9828
20035TIP3    H281597   4.231   5.195   1.299  0.4099  0.9068 -1.0808
20036TIP3   OH281598   6.167   2.047   2.361  0.2468 -0.1361  0.2281
20036TIP3    H181599   6.130   2.128   2.395 -1.4284 -1.1256  0.8855
20036TIP3    H281600   6.148   2.049   2.267  2.3078  1.2642 -0.2259
20037TIP3   OH281601   1.050   3.282  13.144 -0.0316 -0.7777  0.2269
20037TIP3    H181602   1.123   3.303  13.084  0.8447 -1.3818  1.0496
20037TIP3    H281603   1.010   3.367  13.163 -1.0350 -0.6684 -2.0502
20038TIP3   OH281604   6.758   2.769  15.902  0.3146  0.2139  0.1695
20038TIP3    H181605   6.795   2.684  15.924 -0.2673 -0.1052 -0.0568
20038TIP3    H281606   6.664   2.753  15.893  0.2838  0.7396 -0.5683
20039TIP3   OH281607   6.455   5.205  14.322 -0.1481  0.0452 -0.3855
20039TIP3    H181608   6.494   5.120  14.344  0.2523  0.2104 -0.4393
20039TIP3    H281609   6.507   5.236  14.248 -0.9310 -0.1084 -1.0066
20040TIP3   OH281610   2.828   3.436   3.512 -0.0544  0.4573 -0.0782
20040TIP3    H181611   2.758   3.475   3.564 -1.3667 -1.3119 -0.4576
20040TIP3    H281612   2.784   3.394   3.438  1.4695 -0.0891 -0.7254
20041TIP3   OH281613   4.926   0.343   5.730 -0.1097 -0.0900  0.1208
20041TIP3    H181614   4.853   0.368   5.673  0.5258  1.5998 -0.0146
20041TIP3    H281615   4.926   0.409   5.799  1.3144 -0.0330  0.0921
20042TIP3   OH281616   1.526   6.470   5.490 -0.0104 -0.3111  0.9202
20042TIP3    H181617   1.478   6.387   5.499  2.3384 -1.7102  1.6333
20042TIP3    H281618   1.459   6.535   5.470 -2.0452 -2.2615  0.9910
20043TIP3   OH281619   6.601   6.364  12.074 -0.1432  0.3055  0.0361
20043TIP3    H181620   6.693   6.389  12.086 -0.1113 -0.3670  1.4959
20043TIP3    H281621   6.554   6.413  12.142 -0.7092 -0.1721 -0.0026
20044TIP3   OH281622   1.926   1.896  16.107  0.4248 -0.3234  0.3259
20044TIP3    H181623   1.992   1.951  16.064  0.1307  1.8127  2.3743
20044TIP3    H281624   1.955   1.807  16.090  1.5913  0.4288 -2.2144
20045TIP3   OH281625   6.564   1.963   3.453 -0.6176 -0.2194  0.2786
20045TIP3    H181626   6.618   1.934   3.527  0.9930  1.0830 -0.3404
20045TIP3    H281627   6.475   1.937   3.478  0.3004 -2.9908  1.0575
20046TIP3   OH281628   5.380   5.474   5.526  0.0300 -0.7263 -0.1101
20046TIP3    H181629   5.357   5.538   5.459  1.0658  0.5197  0.6621
20046TIP3    H281630   5.394   5.393   5.478  0.9809  0.1773 -1.4670
20047TIP3   OH281631   4.594   1.314  13.478 -0.3305  0.0122 -0.0920
20047TIP3    H181632   4.672   1.272  13.514  1.1807 -0.6244 -3.6791
20047TIP3    H281633   4.624   1.401  13.451 -0.0309 -1.0218 -3.5924
20048TIP3   OH281634   0.205   3.388   3.701  0.1147  0.3255  0.4014
20048TIP3    H181635   0.125   3.377   3.649  0.5689  0.3163 -0.2984
20048TIP3    H281636   0.230   3.299   3.725  0.1683  0.2994  0.2454
20049TIP3   OH281637   6.515   4.112   1.521 -0.2926  0.0711  0.1755
20049TIP3    H181638   6.551   4.107   1.610 -0.4169  0.4173  0.2479
20049TIP3    H281639   6.575   4.060   1.467  0.6985  1.1831  0.1649
20050TIP3   OH281640   3.475   5.196  13.401 -0.0030 -0.3721  0.5221
20050TIP3    H181641   3.531   5.227  13.472 -0.0941  0.1332  0.3793
20050TIP3    H281642   3.405   5.261  13.395  0.8325  0.4591 -1.0437
20051TIP3   OH281643   6.621   1.298  16.949 -0.5773  0.1107 -0.5576
20051TIP3    H181644   6.684   1.252  17.005  0.9878  0.9863 -1.5241
20051TIP3    H281645   6.557   1.333  17.010 -0.0082 -0.6033  0.5010
20052TIP3   OH281646   4.519   2.901  12.899 -0.9748 -0.3282 -0.4019
20052TIP3    H181647   4.445   2.932  12.847 -0.0769  0.9581 -0.9656
20052TIP3    H281648   4.596   2.942  12.858  0.0209 -1.4003  0.3408
20053TIP3   OH281649   3.741   6.801  16.217  0.0474 -0.3560 -0.2283
20053TIP3    H181650   3.702   6.814  16.130 -0.6693  0.3852  0.1941
20053TIP3    H281651   3.799   6.725  16.206 -1.0121 -1.0789 -1.0403
20054TIP3   OH281652   0.520   3.888   4.313 -0.0934  0.3204 -0.2003
20054TIP3    H181653   0.504   3.949   4.241  2.4843 -0.0316 -1.1739
20054TIP3    H281654   0.570   3.817   4.273 -0.3666 -0.9305  1.5561
20055TIP3   OH281655   2.841   2.116  14.551  0.3204 -0.0020 -0.2322
20055TIP3    H181656   2.835   2.043  14.489  0.0460  1.1041 -1.5553
20055TIP3    H281657   2.934   2.121  14.574  0.1674 -1.5185  0.8430
20056TIP3   OH281658   4.657   3.934  16.795 -0.3747  0.1521 -0.0136
20056TIP3    H181659   4.697   4.018  16.772 -0.1075 -0.3892 -1.6973
20056TIP3    H281660   4.599   3.914  16.722 -2.2485 -0.0529  1.4535
20057TIP3   OH281661   6.381   4.447   0.105 -0.8401  0.2294  0.3284
20057TIP3    H181662   6.342   4.360   0.111  1.6992 -0.9715  0.5028
20057TIP3    H281663   6.418   4.452   0.017 -0.7518  1.0470  0.3999
20058TIP3   OH281664   3.052   2.417   2.731  0.2120 -0.2273  0.2831
20058TIP3    H181665   3.029   2.482   2.798  2.0248  0.6908  0.0830
20058TIP3    H281666   3.081   2.469   2.656  1.6494 -1.2465  0.0900
20059TIP3   OH281667   0.397   1.643  12.642  0.5599  0.2173 -0.1484
20059TIP3    H181668   0.375   1.681  12.727  1.1203 -1.3161  0.7028
20059TIP3    H281669   0.490   1.620  12.648  1.4724  2.8480 -2.2737
20060TIP3   OH281670   4.954   4.683   5.050 -0.3536 -0.3237  0.0804
20060TIP3    H181671   4.931   4.664   5.141 -0.0049  0.8724  0.4339
20060TIP3    H281672   5.005   4.763   5.055  0.2250 -0.5988 -1.1146
20061TIP3   OH281673   6.493   1.519  11.620  0.0376 -0.3728 -0.3064
20061TIP3    H181674   6.398   1.502  11.619  0.2433 -1.6118  0.0734
20061TIP3    H281675   6.530   1.443  11.664  1.0284  1.1476  1.6163
20062TIP3   OH281676   1.054   1.537  13.271 -0.1460 -0.2175  0.4023
20062TIP3    H181677   1.005   1.597  13.327 -2.2467 -0.0436 -1.4777
20062TIP3    H281678   1.115   1.493  13.331 -1.7074  0.4910  2.6645
20063TIP3   OH281679   0.286   5.167   4.005  0.3630  0.1609  0.5416
20063TIP3    H181680   0.301   5.073   4.007  0.4518  0.1824  0.8975
20063TIP3    H281681   0.282   5.189   3.912  0.3294 -0.1952  0.4605
20064TIP3   OH281682   6.443   1.876  16.586 -0.5937  0.1623  0.3365
20064TIP3    H181683   6.462   1.963  16.550  0.3448 -0.0231  0.3475
20064TIP3    H281684   6.401   1.829  16.515  1.0970 -0.1467 -0.5132
20065TIP3   OH281685   0.033   1.734  15.883 -0.1034 -0.0535 -0.4348
20065TIP3    H181686   0.085   1.793  15.828  0.9404 -1.2379 -0.7539
20065TIP3    H281687  -0.045   1.716  15.830 -0.4830  1.0892 -0.2938
20066TIP3   OH281688   3.383   2.313   1.486  0.3074 -0.1011  0.2112
20066TIP3    H181689   3.415   2.223   1.492 -1.9442 -0.9156  1.2100
20066TIP3    H281690   3.403   2.352   1.572 -1.0850 -0.5711  0.7901
20067TIP3   OH281691   2.882   4.809   1.303 -0.1242 -0.6097 -0.1872
20067TIP3    H181692   2.977   4.809   1.317 -0.3983 -3.1666  2.5707
20067TIP3    H281693   2.871   4.773   1.215  1.4549 -0.9783 -0.2622
20068TIP3   OH281694   5.315   2.560  11.084 -0.1098  0.1210  0.2941
20068TIP3    H181695   5.351   2.638  11.040  0.9305  0.2295  1.2879
20068TIP3    H281696   5.263   2.596  11.155  2.0275 -0.0320  2.0483
20069TIP3   OH281697   3.951   3.546  12.993 -0.2273  0.4466  0.0752
20069TIP3    H181698   3.904   3.624  13.023 -0.7061  2.1707 -4.3378
20069TIP3    H281699   3.885   3.494  12.948  0.6610 -1.0870  0.4949
20070TIP3   OH281700   2.379   2.353   2.267  0.6034  0.1935  0.5220
20070TIP3    H181701   2.338   2.280   2.312 -1.3678  0.0505 -1.3160
20070TIP3    H281702   2.427   2.313   2.194 -0.8797  0.6620 -0.7816
20071TIP3   OH281703   2.075   2.535   1.500 -0.2112 -0.0629 -0.8874
20071TIP3    H181704   2.013   2.486   1.446  0.5120 -0.3265 -1.4952
20071TIP3    H281705   2.022   2.605   1.540 -0.8434 -0.1239 -1.5948
20072TIP3   OH281706   5.772   3.718  16.710 -0.7495 -0.8369 -0.4709
20072TIP3    H181707   5.847   3.662  16.729  0.4774  0.3003 -1.7691
20072TIP3    H281708   5.727   3.727  16.794  0.6571 -1.3870  0.3783
20073TIP3   OH281709   3.480   5.940   3.062  0.0624  0.3795 -0.0818
20073TIP3    H181710   3.575   5.930   3.059 -0.0905 -1.6455  0.5827
20073TIP3    H281711   3.454   5.949   2.970  0.8016 -0.0666 -0.3410
20074TIP3   OH281712   3.757   5.928   4.240  0.3831  0.2457  0.0125
20074TIP3    H181713   3.829   5.874   4.209  1.7503  1.3330  1.1334
20074TIP3    H281714   3.759   5.918   4.336 -0.8405  0.4388  0.0685
20075TIP3   OH281715   4.018   6.259  15.990 -0.5684  0.3594  0.7811
20075TIP3    H181716   3.948   6.193  15.987  0.7003 -1.0233 -1.1917
20075TIP3    H281717   4.082   6.222  16.050  0.3702 -0.5523 -0.7002
20076TIP3   OH281718   6.006   6.034   1.765 -0.2131 -0.6157 -0.6606
20076TIP3    H181719   6.019   6.111   1.710 -0.1081 -0.6185 -0.6391
20076TIP3    H281720   5.926   5.993   1.731 -1.3004  0.4913  0.4615
20077TIP3   OH281721   5.820   6.586   5.304  0.1027 -0.6349 -0.2715
20077TIP3    H181722   5.878   6.649   5.346  0.3633 -1.7062  1.0415
20077TIP3    H281723   5.750   6.640   5.266  0.9002  0.5163 -0.1497
20078TIP3   OH281724   0.560   2.088  16.154 -0.5782  0.0792  0.1900
20078TIP3    H181725   0.491   2.090  16.087  0.0549  1.2650 -0.4606
20078TIP3    H281726   0.519   2.043  16.229 -1.6840 -0.2212 -0.5642
20079TIP3   OH281727   4.018   2.843  12.420 -0.2876  0.2953  0.1832
20079TIP3    H181728   3.951   2.777  12.430 -0.0178  0.0741  0.5537
20079TIP3    H281729   3.990   2.895  12.344  0.5542 -1.5156 -1.4328
20080TIP3   OH281730   0.212   1.847   5.107  0.0187 -0.4941  0.5093
20080TIP3    H181731   0.286   1.795   5.076  0.3066  0.9380 -1.4554
20080TIP3    H281732   0.143   1.783   5.123  0.7544 -1.6157 -0.5378
20081TIP3   OH281733   6.649   0.437   4.508 -0.7560  0.4641  0.1052
20081TIP3    H181734   6.659   0.432   4.413 -1.8434  1.6141 -0.0880
20081TIP3    H281735   6.735   0.464   4.540 -0.6105  0.8807 -0.6309
20082TIP3   OH281736   4.933   4.610  11.219  0.1991  0.4315 -0.1426
20082TIP3    H181737   4.873   4.544  11.254 -1.8145 -0.1526 -4.1846
20082TIP3    H281738   5.009   4.559  11.190  0.2230  0.4152 -0.0540
20083TIP3   OH281739   0.261   2.854   4.766 -0.0566 -0.5969  0.0634
20083TIP3    H181740   0.168   2.838   4.751 -0.3326  0.4295  0.5720
20083TIP3    H281741   0.284   2.792   4.835 -0.1972 -1.2974 -0.5051
20084TIP3   OH281742   0.938   0.867  13.366  0.5250 -0.2876  0.5180
20084TIP3    H181743   0.904   0.880  13.455 -1.5327  0.7728 -0.3660
20084TIP3    H281744   0.999   0.940  13.353  2.0099 -1.2651  1.5111
20085TIP3   OH281745   5.734   2.372  13.380 -0.3535 -0.2214  0.1593
20085TIP3    H181746   5.774   2.347  13.463  2.1602  0.0038 -0.9036
20085TIP3    H281747   5.662   2.431  13.405  2.3352  2.5176  2.1455
20086TIP3   OH281748   0.468   1.256  13.996 -0.0120  0.3428 -0.1769
20086TIP3    H181749   0.448   1.188  13.932  0.1113  0.1872 -0.0514
20086TIP3    H281750   0.534   1.311  13.953 -0.9419  1.0612 -0.7294
20087TIP3   OH281751   3.042   5.935   5.638 -0.8402 -0.5589  0.4758
20087TIP3    H181752   2.951   5.939   5.669 -0.4805  1.2882  1.4387
20087TIP3    H281753   3.060   5.842   5.627 -2.0087 -1.1406  2.8680
20088TIP3   OH281754   0.506   4.808   0.007  0.5202  0.2717 -0.6068
20088TIP3    H181755   0.545   4.894   0.021 -1.8789  1.3503 -0.2030
20088TIP3    H281756   0.447   4.820  -0.067 -1.9086 -0.2563  1.1409
20089TIP3   OH281757   0.265   5.189   3.728 -0.0586  0.3441 -0.0912
20089TIP3    H181758   0.294   5.257   3.668 -0.7320  0.1119 -0.6973
20089TIP3    H281759   0.316   5.112   3.703  0.4270  0.5237  0.3413
20090TIP3   OH281760   0.452   1.289  15.966  0.1854  0.4541 -0.5338
20090TIP3    H181761   0.418   1.376  15.988  1.0373  0.9137 -0.9738
20090TIP3    H281762   0.543   1.291  15.996  0.1547 -0.3586 -0.3744
20091TIP3   OH281763   4.860   2.061   2.522  0.0130  0.4013  0.0308
20091TIP3    H181764   4.822   2.142   2.557 -0.8386  0.2795 -0.5862
20091TIP3    H281765   4.805   1.991   2.558 -1.3073  0.3149 -2.0426
20092TIP3   OH281766   4.071   4.277   4.548  0.3268 -0.2119  0.4035
20092TIP3    H181767   4.146   4.235   4.506 -0.8597 -1.6821 -0.3779
20092TIP3    H281768   4.071   4.366   4.514  0.8083 -0.6595 -0.8284
20093TIP3   OH281769   2.570   0.930  14.796 -0.0310  0.5620 -0.5517
20093TIP3    H181770   2.541   1.010  14.752 -1.1984  0.7203  0.4704
20093TIP3    H281771   2.500   0.866  14.780  0.3456  0.0952 -0.3747
20094TIP3   OH281772   1.978   1.003   1.509  0.1932 -0.0584  0.2940
20094TIP3    H181773   2.042   1.017   1.579  0.7216  0.0971 -0.2179
20094TIP3    H281774   1.907   1.064   1.529  0.6435  0.4627  0.3313
20095TIP3   OH281775   1.996   2.316  14.888  0.0271 -0.4487 -0.0954
20095TIP3    H181776   1.962   2.301  14.800  2.7242 -0.3309 -1.2600
20095TIP3    H281777   1.972   2.406  14.909 -1.1349 -0.6631 -0.4358
20096TIP3   OH281778   4.450   0.543  16.077  0.0648 -0.1139 -0.1504
20096TIP3    H181779   4.368   0.503  16.048 -0.0343 -1.5048  1.8652
20096TIP3    H281780   4.516   0.508  16.017 -0.4655 -0.9023 -0.2908
20097TIP3   OH281781   3.190   1.750  16.586 -0.1311  0.0908  0.1692
20097TIP3    H181782   3.205   1.664  16.624  0.8725  0.2256  0.1085
20097TIP3    H281783   3.271   1.770  16.538 -0.5858  0.8007 -0.3281
20098TIP3   OH281784   2.614   3.982  16.738 -0.4832  0.3206  0.3960
20098TIP3    H181785   2.705   3.954  16.734  0.1805  2.4488 -1.5639
20098TIP3    H281786   2.617   4.078  16.733 -2.7955  0.5107  1.1599
20099TIP3   OH281787   3.039   3.118  13.857  0.0562  0.1470  0.2395
20099TIP3    H181788   3.041   3.130  13.952  0.1875  2.1508  0.0400
20099TIP3    H281789   3.009   3.028  13.844  0.8178 -0.4307  2.1728
20100TIP3   OH281790   2.446   4.885  16.108 -0.0907  0.0124 -0.0652
20100TIP3    H181791   2.513   4.819  16.090  2.2120  2.0679  0.5030
20100TIP3    H281792   2.403   4.854  16.188 -1.0884 -2.2017 -1.3493
20101TIP3   OH281793   5.037   0.798  12.215  0.0947 -0.5369 -0.3911
20101TIP3    H181794   5.098   0.807  12.288  0.0395  0.7492 -0.4686
20101TIP3    H281795   5.078   0.736  12.155  0.5055 -1.0018  0.3609
20102TIP3   OH281796   0.225   4.035   5.267  0.4201  0.0233  0.4541
20102TIP3    H181797   0.151   3.974   5.275  0.1978  0.4251  1.5776
20102TIP3    H281798   0.254   4.050   5.357  0.5550  1.4879  0.1832
20103TIP3   OH281799   1.841   5.944   1.445  0.5942 -0.4925 -0.1027
20103TIP3    H181800   1.829   6.038   1.433  1.4073 -0.6879 -3.6088
20103TIP3    H281801   1.922   5.935   1.495 -0.6125  0.5756  2.2071
20104TIP3   OH281802   5.780   1.614  11.585  0.6810  0.5449 -0.9705
20104TIP3    H181803   5.743   1.555  11.520 -0.0603  0.3096 -0.3419
20104TIP3    H281804   5.746   1.583  11.669  0.4423  1.7301 -0.6055
20105TIP3   OH281805   5.631   6.060   2.964  0.2486 -0.1482  0.2168
20105TIP3    H181806   5.682   6.136   2.993  2.0643 -1.4623  0.6832
20105TIP3    H281807   5.542   6.079   2.992  0.2854  2.5390 -1.1740
20106TIP3   OH281808   0.828   6.320  15.158 -0.2349  0.6205  0.0910
20106TIP3    H181809   0.888   6.283  15.224 -0.6061 -0.0866  0.0429
20106TIP3    H281810   0.819   6.250  15.094 -1.5579  0.5022  0.3843
20107TIP3   OH281811   6.076   6.585   2.240  0.4595 -0.5963  0.0592
20107TIP3    H181812   5.982   6.573   2.252  0.1656  1.2322 -0.1965
20107TIP3    H281813   6.093   6.553   2.151 -0.0697 -0.1706 -0.1976
20108TIP3   OH281814   0.483   5.244  12.144  0.7598 -0.4558 -0.0637
20108TIP3    H181815   0.567   5.290  12.149  0.7420 -0.4543  0.2058
20108TIP3    H281816   0.498   5.174  12.081  0.5410  0.4487 -1.1738
20109TIP3   OH281817   2.018   0.463  12.048  0.4289 -0.4962  0.0124
20109TIP3    H181818   2.042   0.529  12.113  2.1607 -0.8506 -0.2266
20109TIP3    H281819   2.002   0.384  12.099  3.2665 -1.1919  0.0065
20110TIP3   OH281820   5.603   5.067  12.040 -0.4035 -0.7007  0.0752
20110TIP3    H181821   5.560   4.983  12.061 -1.6565  0.0424  0.5993
20110TIP3    H281822   5.566   5.129  12.103  1.9131 -0.1063  0.9353
20111TIP3   OH281823   0.704   4.858  15.214  0.1355 -0.3036 -0.0758
20111TIP3    H181824   0.760   4.934  15.200  0.7660 -1.2033 -3.2598
20111TIP3    H281825   0.758   4.798  15.265  0.1751  0.7368  1.1691
20112TIP3   OH281826   4.441   0.991   5.055  0.1620 -0.3664 -0.2387
20112TIP3    H181827   4.477   1.021   4.971  0.0988  0.2274 -0.0575
20112TIP3    H281828   4.351   0.964   5.034 -0.6003  1.7757 -0.0031
20113TIP3   OH281829   2.593   2.719   5.124  0.0741  0.3609  0.1527
20113TIP3    H181830   2.583   2.642   5.067 -2.4227  0.6717  0.0782
20113TIP3    H281831   2.649   2.688   5.196  1.5878 -0.6251 -1.3598
20114TIP3   OH281832   0.712   0.145  17.050 -0.0493  0.2740 -0.4183
20114TIP3    H181833   0.716   0.055  17.083  1.2787  0.9593  1.4204
20114TIP3    H281834   0.732   0.136  16.957  1.4450 -1.2111 -0.0032
20115TIP3   OH281835   4.206   3.418  12.355  0.4811  0.2138  0.2616
20115TIP3    H181836   4.112   3.425  12.340  0.1118  1.0461  2.4803
20115TIP3    H281837   4.235   3.509  12.365  1.3937 -0.0696  0.2643
20116TIP3   OH281838   4.319   6.332   5.891 -0.2180 -0.2122 -0.3197
20116TIP3    H181839   4.279   6.419   5.895  1.9495  0.7976  0.8125
20116TIP3    H281840   4.312   6.298   5.980  0.1243 -0.6356 -0.4500
20117TIP3   OH281841   4.785   1.900  11.982  0.0491 -0.0105 -0.7170
20117TIP3    H181842   4.729   1.978  11.983 -0.4730 -0.3450 -2.0945
20117TIP3    H281843   4.726   1.829  11.958  0.5768 -0.8159  0.2726
20118TIP3   OH281844   1.586   3.890   3.772 -0.2488  0.0107 -0.9647
20118TIP3    H181845   1.616   3.819   3.715  0.2709 -1.1835  0.7174
20118TIP3    H281846   1.666   3.937   3.795  0.3753 -2.2041  2.2215
20119TIP3   OH281847   6.768   1.751   2.506  0.1511 -0.2879  0.3615
20119TIP3    H181848   6.687   1.743   2.557 -0.0482 -1.3588 -0.0951
20119TIP3    H281849   6.772   1.844   2.483 -0.7343 -0.1454  0.7340
20120TIP3   OH281850   6.674   5.338  12.868  0.2686  0.5295  0.1986
20120TIP3    H181851   6.590   5.384  12.872  0.5017  1.1744 -1.3647
20120TIP3    H281852   6.738   5.408  12.850  1.2199  0.1084  1.7452
20121TIP3   OH281853   6.501   5.724   6.103 -0.0067 -0.6049 -0.6539
20121TIP3    H181854   6.451   5.804   6.114  1.9544  0.5447  0.5401
20121TIP3    H281855   6.458   5.661   6.161  0.0334  0.4155  0.5292
20122TIP3   OH281856   6.602   3.081   6.313  0.1305 -0.0521  0.0825
20122TIP3    H181857   6.687   3.125   6.319  0.6340 -0.5274 -2.5637
20122TIP3    H281858   6.539   3.150   6.295  0.0062  0.2207  1.4414
20123TIP3   OH281859   0.479   6.253  11.697 -0.1035  0.2542  0.4973
20123TIP3    H181860   0.507   6.180  11.642 -0.7771 -1.0342  1.8144
20123TIP3    H281861   0.484   6.329  11.639 -1.2696 -1.1071 -1.5208
20124TIP3   OH281862   5.725   1.697   5.016 -0.5194  0.0941 -0.5102
20124TIP3    H181863   5.733   1.691   5.111  1.4684  1.3336 -0.5484
20124TIP3    H281864   5.811   1.673   4.983 -1.1765 -0.3248 -2.0223
20125TIP3   OH281865   5.697   5.439  11.854  0.3688 -0.0462  0.2516
20125TIP3    H181866   5.717   5.517  11.803  2.6875 -0.7858 -0.0835
20125TIP3    H281867   5.714   5.464  11.945 -1.8220  0.6700  0.5267
20126TIP3   OH281868   5.500   1.313  12.152 -0.1547 -0.6025 -0.6698
20126TIP3    H181869   5.574   1.279  12.203 -0.2829 -2.3080 -1.5660
20126TIP3    H281870   5.529   1.309  12.061 -0.7469  0.3160 -0.9125
20127TIP3   OH281871   1.363   5.767  12.003 -0.1081 -0.4074 -0.3119
20127TIP3    H181872   1.321   5.834  11.949 -1.5193 -1.1583 -0.1914
20127TIP3    H281873   1.414   5.715  11.941 -1.5109 -1.1073 -0.9192
20128TIP3   OH281874   0.252   5.027   2.599 -0.1655 -0.2684 -0.0665
20128TIP3    H181875   0.241   4.947   2.547 -1.9407  0.4058 -0.7978
20128TIP3    H281876   0.292   5.089   2.538  1.3155 -0.5910  0.5335
20129TIP3   OH281877   3.560   5.962   1.613 -0.2745 -0.4185 -0.1500
20129TIP3    H181878   3.561   5.977   1.518 -1.2866 -0.4532 -0.1735
20129TIP3    H281879   3.501   5.887   1.625  1.0423 -1.4085  0.3811
20130TIP3   OH281880   1.402   0.864   0.906  0.3337  0.1465 -0.9776
20130TIP3    H181881   1.314   0.878   0.941  0.4569  2.0759 -1.2972
20130TIP3    H281882   1.392   0.871   0.811  0.5845 -1.3333 -1.1285
20131TIP3   OH281883   2.225   6.803   0.082  0.0740 -0.1228  0.2381
20131TIP3    H181884   2.303   6.760   0.117 -0.6436 -1.2980  0.4509
20131TIP3    H281885   2.169   6.818   0.158  0.3841  1.3971  0.1955
20132TIP3   OH281886   5.999   5.032  16.018 -0.8070 -0.6436  0.1809
20132TIP3    H181887   6.091   5.034  16.044 -0.4733 -0.7626 -0.9340
20132TIP3    H281888   5.951   5.064  16.094  0.2291  0.3222  0.4432
20133TIP3   OH281889   6.025   5.700  12.057 -0.3493 -0.8711  0.6633
20133TIP3    H181890   6.119   5.720  12.049 -0.5965 -0.3353 -1.7482
20133TIP3    H281891   6.014   5.619  12.008 -1.4999  0.4857 -1.5172
20134TIP3   OH281892   3.314   3.388   0.221 -0.0829  0.6390 -0.7483
20134TIP3    H181893   3.219   3.377   0.214 -0.1088 -0.0966  0.4357
20134TIP3    H281894   3.335   3.362   0.311  1.5982 -2.0204 -1.7693
20135TIP3   OH281895   4.364   3.278   3.524 -0.4858  0.4927  0.0172
20135TIP3    H181896   4.362   3.371   3.502  3.0904  0.9329  0.9225
20135TIP3    H281897   4.418   3.238   3.456 -0.5353 -0.5808  0.5883
20136TIP3   OH281898   4.744   0.778   5.212 -0.1363 -0.4604  0.2484
20136TIP3    H181899   4.658   0.737   5.217 -0.1833 -0.4177 -0.2224
20136TIP3    H281900   4.804   0.706   5.194 -0.1230 -0.4282  0.1658
20137TIP3   OH281901   2.056   4.254   4.320 -0.2741  0.5929  0.5285
20137TIP3    H181902   2.114   4.322   4.285 -0.9214  1.2151  0.6452
20137TIP3    H281903   1.968   4.287   4.304 -0.7521 -1.6100 -2.2807
20138TIP3   OH281904   4.365   1.384   0.840  0.3428 -0.2388  0.3991
20138TIP3    H181905   4.417   1.452   0.885  0.1648 -0.9303  1.7088
20138TIP3    H281906   4.430   1.318   0.816  0.2811 -0.4031  0.6817
20139TIP3   OH281907   6.054   1.386  15.813 -0.1593  0.0151 -0.2521
20139TIP3    H181908   5.963   1.358  15.821  0.2404 -1.1795  0.3422
20139TIP3    H281909   6.082   1.403  15.903  0.9381 -2.1465 -0.1235
20140TIP3   OH281910   5.512   2.455  12.130  0.0201 -0.2177 -0.2178
20140TIP3    H181911   5.606   2.470  12.121  0.0028 -0.4055 -0.7714
20140TIP3    H281912   5.505   2.376  12.183  0.1468  0.4718  0.8607
20141TIP3   OH281913   3.839   4.801  13.037 -0.4385 -0.0612 -0.2659
20141TIP3    H181914   3.828   4.781  12.944  1.9728 -1.2676 -0.3827
20141TIP3    H281915   3.794   4.729  13.082  0.0840 -0.5760 -0.5532
20142TIP3   OH281916   4.217   1.639   3.424 -0.2659  0.2216  0.5569
20142TIP3    H181917   4.206   1.719   3.475  0.5434  0.2021  0.7795
20142TIP3    H281918   4.304   1.649   3.384  0.7137 -1.3822  2.1378
20143TIP3   OH281919   1.784   2.246   2.291  0.3551  0.0146 -0.6009
20143TIP3    H181920   1.873   2.237   2.325  0.3597 -3.3096 -1.1569
20143TIP3    H281921   1.729   2.252   2.370  0.9419  0.6305 -0.2300
20144TIP3   OH281922   4.970   5.713  14.780  0.1297 -0.0044  0.1934
20144TIP3    H181923   4.953   5.799  14.818  0.0653 -0.6770  1.7929
20144TIP3    H281924   4.992   5.658  14.856 -0.2689 -1.5028 -0.7381
20145TIP3   OH281925   3.861   2.458  11.924 -0.2476  0.5250 -0.1245
20145TIP3    H181926   3.835   2.443  11.834  1.7504  1.1556 -0.8470
20145TIP3    H281927   3.950   2.425  11.930  0.1119  1.6471  1.2752
20146TIP3   OH281928   2.414   6.049  15.526 -0.1996 -0.1762  0.5387
20146TIP3    H181929   2.322   6.074  15.524 -0.0395  0.4332  0.5085
20146TIP3    H281930   2.417   5.966  15.478 -0.6486  0.0923  0.0256
20147TIP3   OH281931   2.214   6.676  12.276  0.2889  0.2135  0.5476
20147TIP3    H181932   2.295   6.720  12.301  0.4966 -0.4877  1.1688
20147TIP3    H281933   2.152   6.746  12.258  1.0217  0.7559  0.1117
20148TIP3   OH281934   5.547   3.255  16.505  0.5688  0.6045 -0.2623
20148TIP3    H181935   5.468   3.308  16.501  0.6293  0.6345 -1.4100
20148TIP3    H281936   5.516   3.165  16.512  0.4465  0.6929  0.3131
20149TIP3   OH281937   4.625   1.137  15.478 -0.2487 -0.2705  0.1183
20149TIP3    H181938   4.558   1.128  15.410 -2.6237 -2.2766  2.4967
20149TIP3    H281939   4.607   1.222  15.518  0.2104  0.2557 -0.7592
20150TIP3   OH281940   2.135   6.474  15.030  0.4220 -0.1348 -0.2202
20150TIP3    H181941   2.059   6.523  14.997  0.9998  2.2168  1.6150
20150TIP3    H281942   2.101   6.426  15.105  0.7249  1.1801  0.8077
20151TIP3   OH281943   2.556   6.233   4.196  0.3304 -0.2381  0.1765
20151TIP3    H181944   2.622   6.290   4.156 -0.6973  0.4253 -0.6391
20151TIP3    H281945   2.597   6.201   4.276  1.7614 -0.1207 -0.4800
20152TIP3   OH281946   1.404   1.259   3.380  0.0299 -0.6182  0.8375
20152TIP3    H181947   1.392   1.354   3.373  0.7647 -0.6271 -1.0524
20152TIP3    H281948   1.320   1.227   3.413 -0.4845  0.6108  0.7735
20153TIP3   OH281949   4.804   0.617   2.820  0.0962  0.0192 -0.2280
20153TIP3    H181950   4.789   0.642   2.911 -1.0296 -3.7432  0.8220
20153TIP3    H281951   4.719   0.630   2.777 -0.0108 -0.3490 -0.1303
20154TIP3   OH281952   2.080   4.650   4.284 -0.2705 -0.1931  0.5386
20154TIP3    H181953   1.995   4.629   4.324 -0.3222  0.7562  0.9568
20154TIP3    H281954   2.057   4.707   4.210 -0.0965 -1.0855 -0.2140
20155TIP3   OH281955   2.053   0.608  11.785  0.2488 -0.6735  0.1589
20155TIP3    H181956   1.989   0.547  11.822 -0.5355 -0.2475 -0.4591
20155TIP3    H281957   2.019   0.628  11.697  0.4975  0.6134  0.3289
20156TIP3   OH281958   6.042   3.666  12.786  0.1344 -0.9559  0.1154
20156TIP3    H181959   6.039   3.748  12.736 -2.3249 -0.4470  0.9207
20156TIP3    H281960   6.027   3.693  12.877 -0.5039 -2.2664  0.4261
20157TIP3   OH281961   0.466   3.479   1.419 -0.1475  0.0127  0.6836
20157TIP3    H181962   0.464   3.447   1.509  1.4982 -1.1636  0.3363
20157TIP3    H281963   0.377   3.467   1.388 -0.8895  0.9472  2.3041
20158TIP3   OH281964   3.761   6.286   4.271  0.2953 -0.7867 -0.0199
20158TIP3    H181965   3.855   6.291   4.286  0.1473  0.6316  0.5295
20158TIP3    H281966   3.746   6.194   4.248  1.4082 -1.7480  2.6897
20159TIP3   OH281967   1.590   1.022   1.050 -0.1960 -0.1897 -0.2755
20159TIP3    H181968   1.639   0.951   1.090  1.7145  1.1266 -0.1634
20159TIP3    H281969   1.536   0.979   0.983  0.3580 -1.8052  0.2728
20160TIP3   OH281970   3.403   5.622  13.265  0.1962  0.2784  0.0462
20160TIP3    H181971   3.375   5.547  13.212  0.5699 -1.0276  1.6090
20160TIP3    H281972   3.410   5.694  13.203 -1.6292 -0.5973 -1.2803
20161TIP3   OH281973   0.781   4.451  16.727 -0.1078 -0.0264  0.8402
20161TIP3    H181974   0.868   4.445  16.767 -1.2252 -0.0255  3.4313
20161TIP3    H281975   0.721   4.464  16.800 -2.2901  0.3680 -0.8984
20162TIP3   OH281976   4.381   5.096   4.299 -0.6012  0.0268  0.6169
20162TIP3    H181977   4.333   5.179   4.303 -0.4969  0.1338 -0.2392
20162TIP3    H281978   4.381   5.072   4.206  0.6185 -0.2059  0.6631
20163TIP3   OH281979   0.653   3.718  13.948  0.3215  0.4510 -0.1074
20163TIP3    H181980   0.702   3.800  13.959 -0.2748  0.8451 -0.3197
20163TIP3    H281981   0.641   3.710  13.853 -1.2830  1.1278  0.0082
20164TIP3   OH281982   3.807   0.555  16.097 -0.0618 -0.4239 -0.1369
20164TIP3    H181983   3.811   0.467  16.134 -0.8242  0.0479  1.1224
20164TIP3    H281984   3.814   0.541  16.002 -0.0748 -1.8260  0.0443
20165TIP3   OH281985   5.793   5.281  13.659 -0.6116  0.0154  0.5312
20165TIP3    H181986   5.844   5.342  13.606 -2.3406  0.5338 -0.6388
20165TIP3    H281987   5.787   5.322  13.745 -1.3230  1.2816 -0.0942
20166TIP3   OH281988   6.649   5.140   5.154 -0.0806  0.6944 -0.5389
20166TIP3    H181989   6.740   5.164   5.171  0.1795 -1.4520  1.6557
20166TIP3    H281990   6.606   5.142   5.240 -1.7182  0.1665 -1.2922
20167TIP3   OH281991   6.199   2.267  15.095  0.3631 -0.6822 -0.4128
20167TIP3    H181992   6.263   2.199  15.072 -1.6195 -2.3700 -1.3220
20167TIP3    H281993   6.189   2.318  15.015  0.3941 -0.5831 -0.3523
20168TIP3   OH281994   0.293   3.511   0.515  0.0676  0.3019 -0.5353
20168TIP3    H181995   0.304   3.606   0.512 -1.8038  0.5744 -3.9428
20168TIP3    H281996   0.369   3.479   0.564  1.2513  3.4539 -0.1085
20169TIP3   OH281997   2.743   5.491  13.273 -0.3517  0.0849 -0.4641
20169TIP3    H181998   2.759   5.451  13.188 -1.0902  0.3594 -0.7427
20169TIP3    H281999   2.771   5.424  13.336  0.7493  0.1138 -0.9103
20170TIP3   OH282000   6.655   4.112   4.031  0.0700  0.0267  0.2570
20170TIP3    H182001   6.663   4.029   3.984 -0.3510 -0.0706  0.3536
20170TIP3    H282002   6.561   4.119   4.052  0.2323  0.1231  0.9838
20171TIP3   OH282003   0.197   4.279   1.024  0.3476  0.0341 -0.0312
20171TIP3    H182004   0.145   4.254   1.101 -1.3792  0.1648 -1.1120
20171TIP3    H282005   0.275   4.320   1.061 -0.2437 -0.2571  1.6565
20172TIP3   OH282006   5.624   1.814   5.533  0.3513 -0.1939 -0.1587
20172TIP3    H182007   5.631   1.816   5.628  1.8109 -0.4875 -0.2333
20172TIP3    H282008   5.613   1.905   5.507 -0.2297 -0.1335  0.2938
20173TIP3   OH282009   2.061   4.959  13.985  0.0096 -0.1858  0.4108
20173TIP3    H182010   1.980   4.920  13.950 -0.6618  1.1722  0.3652
20173TIP3    H282011   2.114   4.977  13.908  2.1788 -4.6202  0.5833
20174TIP3   OH282012   5.900   2.113   3.130 -0.1519 -0.7758 -0.6916
20174TIP3    H182013   5.898   2.208   3.140  0.4899 -0.8788  0.7366
20174TIP3    H282014   5.939   2.098   3.044 -0.3353  0.2507 -0.9568
20175TIP3   OH282015   5.388   3.550  14.166 -0.6905  0.0067 -0.1296
20175TIP3    H182016   5.325   3.512  14.105 -0.6650 -0.1731 -0.0452
20175TIP3    H282017   5.390   3.489  14.240  1.4016 -1.3287 -1.1936
20176TIP3   OH282018   0.226   3.878   1.726  0.2784  0.2435  0.4363
20176TIP3    H182019   0.302   3.834   1.764 -0.0236 -0.4132  0.2993
20176TIP3    H282020   0.262   3.956   1.684  0.7986  0.2403  0.8593
20177TIP3   OH282021   3.527   4.512  15.319 -0.0951  0.3633 -0.8222
20177TIP3    H182022   3.469   4.573  15.274  1.8573  1.2368 -2.2714
20177TIP3    H282023   3.615   4.545  15.303  0.9976 -2.2879 -0.8594
20178TIP3   OH282024   6.790   2.912  15.646  0.1471 -0.1346  0.1360
20178TIP3    H182025   6.800   2.836  15.704 -2.3403  0.5451  1.5924
20178TIP3    H282026   6.708   2.896  15.599  0.6709  0.6832 -1.1005
20179TIP3   OH282027   2.344   5.147  15.567  0.6556 -0.1858 -0.2852
20179TIP3    H182028   2.372   5.178  15.653  2.2477 -1.5062 -0.2858
20179TIP3    H282029   2.278   5.080  15.587 -0.9972  1.3883 -0.2210
20180TIP3   OH282030   3.374   0.818   2.731 -0.6878 -0.0749  0.4549
20180TIP3    H182031   3.413   0.817   2.819  0.8586  1.5158 -0.1476
20180TIP3    H282032   3.379   0.728   2.701  0.7690 -0.2585  1.1759
20181TIP3   OH282033   1.453   4.257   2.884  0.5412 -1.0726 -0.2103
20181TIP3    H182034   1.486   4.308   2.958 -0.1865  0.6661 -1.0087
20181TIP3    H282035   1.358   4.270   2.887  0.1345 -3.6325  0.3834
20182TIP3   OH282036   0.048   3.590  11.231 -0.1432  0.2373  0.2414
20182TIP3    H182037   0.084   3.582  11.320 -1.3419 -0.2029  0.7135
20182TIP3    H282038   0.067   3.680  11.205  0.6636  0.2172  0.7482
20183TIP3   OH282039   4.556   6.597   3.986  0.4416 -0.1416 -0.0028
20183TIP3    H182040   4.611   6.523   3.960  1.7319  0.4813  0.8878
20183TIP3    H282041   4.568   6.661   3.916  0.1591 -0.3320 -0.2327
20184TIP3   OH282042   5.135   1.238  11.188 -0.4242  0.2763 -0.4745
20184TIP3    H182043   5.083   1.317  11.172 -0.6740  0.0412 -0.8452
20184TIP3    H282044   5.127   1.188  11.107  1.2827  0.7256 -0.9498
20185TIP3   OH282045   4.730   3.371  15.483 -0.4311  0.5085 -0.1441
20185TIP3    H182046   4.823   3.364  15.506 -0.6104  0.5263  0.6264
20185TIP3    H282047   4.728   3.435  15.411  0.1841  0.2383 -0.4122
20186TIP3   OH282048   0.679   5.853   6.587  0.2950 -0.2621 -0.5873
20186TIP3    H182049   0.694   5.907   6.509 -2.6767  2.5172  0.5576
20186TIP3    H282050   0.617   5.786   6.558  0.1769 -0.0273 -0.8754
20187TIP3   OH282051   3.438   4.372   5.505 -0.2366  0.0503  0.6094
20187TIP3    H182052   3.452   4.287   5.547  0.1992 -0.0835  0.2107
20187TIP3    H282053   3.346   4.371   5.480 -0.7094  0.4381  2.2055
20188TIP3   OH282054   3.033   6.335   0.747  0.0079 -0.4927 -0.3240
20188TIP3    H182055   3.109   6.300   0.793 -0.2207  0.4936  0.8455
20188TIP3    H282056   2.986   6.258   0.716  0.7971 -1.1462  0.0685
20189TIP3   OH282057   5.791   0.823  13.507 -0.0279 -0.7237  0.4047
20189TIP3    H182058   5.762   0.914  13.505  2.0390 -0.0285 -1.6551
20189TIP3    H282059   5.827   0.811  13.595  2.6589  1.5170 -0.2763
20190TIP3   OH282060   6.476   0.192   1.654  0.0197  0.3878  0.3381
20190TIP3    H182061   6.427   0.246   1.715  0.2545 -0.1040  0.9770
20190TIP3    H282062   6.567   0.222   1.662 -0.2057  1.6314 -1.1996
20191TIP3   OH282063   4.423   5.938   6.273  0.0543  0.3750 -0.1927
20191TIP3    H182064   4.513   5.967   6.286  1.0206 -1.7017 -1.6740
20191TIP3    H282065   4.402   5.962   6.183 -0.1279 -0.8786 -0.5048
20192TIP3   OH282066   2.510   3.504   2.013 -0.3829 -0.1144  0.6820
20192TIP3    H182067   2.533   3.593   1.986 -0.8408 -0.6115 -1.4773
20192TIP3    H282068   2.507   3.509   2.109  1.4686  1.7101  0.7175
20193TIP3   OH282069   0.869   4.454   3.286  0.4892  0.6288 -0.4295
20193TIP3    H182070   0.918   4.372   3.284  0.5759  0.7023 -1.6395
20193TIP3    H282071   0.777   4.427   3.289  0.5170  0.4833 -0.8512
20194TIP3   OH282072   3.403   1.155  14.817  0.5379  0.2379  0.4866
20194TIP3    H182073   3.402   1.216  14.743 -1.4420  3.6924  3.0221
20194TIP3    H282074   3.313   1.123  14.822 -0.0598  1.9292  2.5598
20195TIP3   OH282075   3.398   6.328   0.449 -0.2351  0.6367  0.3798
20195TIP3    H182076   3.371   6.303   0.537  2.3512  1.9834  1.6615
20195TIP3    H282077   3.456   6.257   0.420 -0.5772  0.5066 -0.0079
20196TIP3   OH282078   0.331   1.330   5.353  0.7421  0.1508  0.4013
20196TIP3    H182079   0.254   1.385   5.368  1.3555  1.3483 -0.6013
20196TIP3    H282080   0.397   1.391   5.320  0.9949 -1.3808 -2.2239
20197TIP3   OH282081   0.130   1.197   3.506 -0.3372  0.1056 -0.2918
20197TIP3    H182082   0.225   1.206   3.511 -0.5159  1.9237  0.5066
20197TIP3    H282083   0.109   1.206   3.413  0.3593 -1.7935 -0.6772
20198TIP3   OH282084   5.691   4.679  14.839  0.4002 -0.1601 -0.5790
20198TIP3    H182085   5.686   4.635  14.924 -1.2439  0.4113 -0.3507
20198TIP3    H282086   5.758   4.747  14.852  3.2552 -2.6444 -1.0489
20199TIP3   OH282087   2.709   1.682   1.031  0.1417 -0.5317 -0.3142
20199TIP3    H182088   2.728   1.754   0.971 -0.4486  0.6899  0.9293
20199TIP3    H282089   2.660   1.722   1.103 -1.8354 -2.4871 -0.4578
20200TIP3   OH282090   1.729   2.152   3.306 -0.3799 -0.0377  0.0277
20200TIP3    H182091   1.778   2.116   3.233 -0.0728 -0.6765  0.5381
20200TIP3    H282092   1.677   2.078   3.339 -0.0258  0.0676  0.8536
20201TIP3   OH282093   4.420   3.001   2.560  0.4141  0.5451 -0.2651
20201TIP3    H182094   4.381   3.055   2.492  0.2369 -1.9023 -2.2318
20201TIP3    H282095   4.490   2.953   2.516  0.6602 -0.7266  1.4060
20202TIP3   OH282096   4.427   1.457   3.194  0.1552 -0.0084 -1.0968
20202TIP3    H182097   4.465   1.526   3.248 -1.2077  0.8472 -1.1843
20202TIP3    H282098   4.335   1.482   3.184 -0.4907 -2.0893 -0.7400
20203TIP3   OH282099   1.009   5.045   2.623 -0.0227 -0.2219  0.2577
20203TIP3    H182100   0.937   4.997   2.582 -0.1205 -0.1923  0.3948
20203TIP3    H282101   1.086   5.020   2.572 -0.4080  1.2423 -1.1157
20204TIP3   OH282102   0.492   5.621   0.726 -0.3823 -0.3137 -0.3635
20204TIP3    H182103   0.404   5.598   0.756  0.3166  0.2464  2.4477
20204TIP3    H282104   0.550   5.569   0.782  1.0821  2.3600  0.8145
20205TIP3   OH282105   6.641   4.772  11.714  0.1221  0.7173 -0.2265
20205TIP3    H182106   6.593   4.807  11.789 -1.6216  0.0518 -0.9726
20205TIP3    H282107   6.611   4.681  11.708  0.0856  0.8093 -1.8192
20206TIP3   OH282108   4.506   1.381  14.072 -0.3135 -0.1458 -0.0366
20206TIP3    H182109   4.417   1.345  14.068 -0.3601 -0.0790  0.3675
20206TIP3    H282110   4.494   1.470  14.105 -0.3518  0.7878 -2.3955
20207TIP3   OH282111   3.502   3.484  12.584 -0.4503 -0.2803  0.0800
20207TIP3    H182112   3.410   3.456  12.579 -0.9542  1.4210 -1.0488
20207TIP3    H282113   3.517   3.533  12.503  1.5658 -0.7760  0.1004
20208TIP3   OH282114   2.936   0.135   3.811  0.1625 -0.5394 -0.2302
20208TIP3    H182115   3.005   0.190   3.776  0.7507  1.4894  3.5742
20208TIP3    H282116   2.855   0.177   3.782  0.5810 -0.0187 -0.6719
20209TIP3   OH282117   6.441   2.930  12.923 -0.1874 -0.3292 -0.5255
20209TIP3    H182118   6.531   2.902  12.942 -0.2294 -0.9023 -1.1336
20209TIP3    H282119   6.407   2.862  12.864 -1.3971 -0.7239  0.5809
20210TIP3   OH282120   1.234   5.531   4.341 -0.2123  0.4611  0.5026
20210TIP3    H182121   1.249   5.595   4.271  1.3688  0.4024  0.7387
20210TIP3    H282122   1.223   5.584   4.420 -0.2714  0.4811  0.4807
20211TIP3   OH282123   3.416   3.464  15.492  0.0612 -0.0913 -0.1110
20211TIP3    H182124   3.349   3.448  15.425 -0.8281 -0.1065  0.7695
20211TIP3    H282125   3.372   3.516  15.558  0.4134 -1.5249  1.3122
20212TIP3   OH282126   5.362   3.568  15.289 -0.2005 -0.0113 -0.6490
20212TIP3    H182127   5.296   3.620  15.243 -0.4832  0.4352  0.2275
20212TIP3    H282128   5.329   3.478  15.285  0.1975 -0.1111 -2.0161
20213TIP3   OH282129   6.318   1.178   0.069  0.3216  0.0879 -0.4026
20213TIP3    H182130   6.335   1.270   0.090  0.2414 -0.2635  1.4004
20213TIP3    H282131   6.392   1.131   0.108  0.5409 -0.5922 -1.6127
20214TIP3   OH282132   4.109   5.559  12.247 -0.1180 -0.3635 -0.0971
20214TIP3    H182133   4.185   5.502  12.232  0.2771  0.4552 -1.3642
20214TIP3    H282134   4.062   5.558  12.163 -2.0061 -1.5417  0.9187
20215TIP3   OH282135   3.960   5.934  12.801 -0.4129 -0.1145  0.2224
20215TIP3    H182136   4.044   5.894  12.781  0.7383  0.4598  3.4161
20215TIP3    H282137   3.969   6.025  12.773 -0.5297 -0.3667 -0.6881
20216TIP3   OH282138   2.832   3.727  16.416  0.3391  0.2114 -0.8141
20216TIP3    H182139   2.812   3.820  16.426  0.5839  0.1646  0.1657
20216TIP3    H282140   2.828   3.692  16.505 -1.2469 -1.0237 -1.3229
20217TIP3   OH282141   6.017   5.149   1.959 -0.1926 -0.1483 -0.2027
20217TIP3    H182142   6.044   5.058   1.944 -0.0024  0.0751 -1.3006
20217TIP3    H282143   6.060   5.173   2.041  0.2355 -0.8680 -0.2024
20218TIP3   OH282144   3.339   2.105   3.713  0.2086  0.3025  0.0432
20218TIP3    H182145   3.283   2.037   3.752 -1.2725  0.5545 -1.5527
20218TIP3    H282146   3.400   2.056   3.658  0.5610  0.1409  0.5639
20219TIP3   OH282147   5.009   1.787   0.360  0.2029  0.1293 -0.0074
20219TIP3    H182148   5.018   1.693   0.372  3.1357  0.4631  1.2233
20219TIP3    H282149   4.989   1.821   0.447  0.6405  0.7531 -0.1385
20220TIP3   OH282150   2.330   5.502   6.030 -0.3130  0.4145 -0.4003
20220TIP3    H182151   2.378   5.527   6.110  1.9270  0.4724 -1.6848
20220TIP3    H282152   2.238   5.515   6.053  0.3563  2.6401  1.4267
20221TIP3   OH282153   0.663   5.600   5.051 -0.2826  0.4549  0.7552
20221TIP3    H182154   0.672   5.510   5.020 -0.8294  0.8711 -0.6996
20221TIP3    H282155   0.570   5.611   5.067 -0.1808  0.6896  1.2000
20222TIP3   OH282156   3.097   1.606  13.558  0.4887 -0.1343 -0.1163
20222TIP3    H182157   3.011   1.642  13.579  0.7435  0.5736 -0.2703
20222TIP3    H282158   3.084   1.511  13.561 -0.4008 -0.0382 -0.5700
20223TIP3   OH282159   6.838   1.379  10.805 -0.4283 -0.6460 -0.4237
20223TIP3    H182160   6.825   1.474  10.813 -0.6263 -0.6937 -0.1604
20223TIP3    H282161   6.776   1.353  10.737 -0.3977 -0.5902 -0.4731
20224TIP3   OH282162   0.913   0.452  11.990 -0.0667  0.2020 -0.1418
20224TIP3    H182163   0.907   0.531  12.045 -2.3464 -0.6827  0.9903
20224TIP3    H282164   0.881   0.382  12.046 -0.6080 -1.0871 -2.0039
20225TIP3   OH282165   1.821   0.931  13.019  0.3351  0.1174  0.0533
20225TIP3    H182166   1.816   0.881  12.938  0.0609  0.3645 -0.0826
20225TIP3    H282167   1.818   0.864  13.088  1.0669 -0.1271 -0.1421
20226TIP3   OH282168   1.785   2.866  16.298 -0.1961 -0.1394  0.5414
20226TIP3    H182169   1.762   2.820  16.379 -1.3716 -0.1672  0.1942
20226TIP3    H282170   1.801   2.796  16.235 -2.0678 -0.1081 -0.0094
20227TIP3   OH282171   4.919   2.335  12.304  0.3931  0.6603  0.4574
20227TIP3    H182172   4.852   2.397  12.276 -2.3745 -2.2483  0.1260
20227TIP3    H282173   4.931   2.353  12.398 -0.8231  1.2479  0.5111
20228TIP3   OH282174   0.839   1.468  11.337  0.0845 -0.2242  0.4608
20228TIP3    H182175   0.816   1.517  11.415 -0.7244 -0.5727  0.4478
20228TIP3    H282176   0.787   1.508  11.267 -1.2463 -1.5949  0.5980
20229TIP3   OH282177   0.760   0.527   1.373 -0.2471 -0.3838  0.1303
20229TIP3    H182178   0.715   0.536   1.457  1.1405  0.2219  0.8494
20229TIP3    H282179   0.713   0.585   1.314  0.8499  1.9888  1.4405
20230TIP3   OH282180   2.307   0.457  11.550 -0.1363 -0.0270  0.2571
20230TIP3    H182181   2.246   0.422  11.486 -1.8683  1.3290  1.0900
20230TIP3    H282182   2.366   0.513  11.500 -1.1892  0.6705 -0.2173
20231TIP3   OH282183   3.596   6.290  15.315  0.4084 -0.1699 -0.2668
20231TIP3    H182184   3.677   6.240  15.305  1.4617  1.0754  1.4551
20231TIP3    H282185   3.592   6.344  15.237  0.7808 -0.8392 -0.7656
20232TIP3   OH282186   1.706   5.792  15.500  0.2227 -0.8135  0.4154
20232TIP3    H182187   1.642   5.771  15.433 -0.3785  0.1881  0.6676
20232TIP3    H282188   1.733   5.706  15.534 -1.6768 -1.2413  0.9534
20233TIP3   OH282189   4.392   0.652   6.328  0.4340 -0.3490 -0.6663
20233TIP3    H182190   4.312   0.703   6.336  0.4345 -0.0722 -2.2391
20233TIP3    H282191   4.362   0.562   6.315  0.4294 -0.6697  1.2624
20234TIP3   OH282192   4.890   2.894  14.517  0.3235  0.0098  0.1451
20234TIP3    H182193   4.884   2.805  14.551 -0.7398 -0.6388 -1.6050
20234TIP3    H282194   4.959   2.890  14.451 -0.0653  0.3516 -0.2909
20235TIP3   OH282195   5.633   3.413   3.078  0.5216 -0.1884 -0.0966
20235TIP3    H182196   5.629   3.396   3.172 -2.0129 -0.5740 -0.2068
20235TIP3    H282197   5.600   3.502   3.068  1.5480  0.1629 -0.5981
20236TIP3   OH282198   6.838   5.764   2.269 -0.3745  0.4171 -0.6147
20236TIP3    H182199   6.809   5.736   2.356  0.6790 -1.0667 -0.7018
20236TIP3    H282200   6.771   5.826   2.240 -0.7122  0.9946  1.2723
20237TIP3   OH282201   5.143   0.188   5.805  0.1233 -0.2026  0.7025
20237TIP3    H182202   5.113   0.225   5.888 -0.0273 -1.9224  1.4726
20237TIP3    H282203   5.083   0.223   5.740  0.0367  0.9193  1.3669
20238TIP3   OH282204   1.494   2.987  12.952 -0.2022  0.0886 -0.0312
20238TIP3    H182205   1.454   2.914  12.905 -0.0023  0.2292 -0.4176
20238TIP3    H282206   1.431   3.008  13.021 -0.0680 -0.7215  0.3481
20239TIP3   OH282207   5.735   5.390  15.964  0.5383  0.0623 -0.3224
20239TIP3    H182208   5.808   5.404  16.025 -0.2473  1.2831  0.3598
20239TIP3    H282209   5.683   5.469  15.970 -0.8442 -0.7810 -0.8318
20240TIP3   OH282210   4.408   2.128   1.822 -0.4515 -0.2002 -0.3883
20240TIP3    H182211   4.382   2.092   1.907  1.5984 -0.6171  0.1325
20240TIP3    H282212   4.395   2.056   1.760  0.4225 -0.7707  0.0567
20241TIP3   OH282213   4.830   5.289   0.476 -0.7209  0.2571 -1.0495
20241TIP3    H182214   4.812   5.376   0.511 -0.3247  0.0518 -0.3048
20241TIP3    H282215   4.893   5.251   0.538 -0.8102 -0.5166 -1.4226
20242TIP3   OH282216   5.116   3.593  15.622 -0.1207 -0.0778 -0.4604
20242TIP3    H182217   5.072   3.657  15.565 -0.5008  0.7816  0.7617
20242TIP3    H282218   5.061   3.588  15.700 -0.2115 -2.0764 -0.5891
20243TIP3   OH282219   5.894   5.734   5.918 -0.1034 -0.6190 -0.3744
20243TIP3    H182220   5.914   5.824   5.942 -0.6122 -1.0738  2.0160
20243TIP3    H282221   5.948   5.680   5.976  1.7794 -1.9352 -3.1760
20244TIP3   OH282222   6.595   3.167  14.292  0.1157  0.2693  0.4412
20244TIP3    H182223   6.603   3.191  14.199  2.6917 -1.4926  0.1129
20244TIP3    H282224   6.501   3.167  14.308 -0.4104  0.8566 -2.1045
20245TIP3   OH282225   1.101   4.333  11.177  0.1686  0.4682 -0.1855
20245TIP3    H182226   1.118   4.344  11.084  0.0431 -1.3570 -0.4495
20245TIP3    H282227   1.091   4.423  11.210  3.3299  1.3367 -1.2769
20246TIP3   OH282228   6.180   0.965  11.533  0.1751  0.0431 -0.0409
20246TIP3    H182229   6.237   0.895  11.502  1.2971  1.0508 -0.3178
20246TIP3    H282230   6.228   1.007  11.604  0.4180  1.7693 -1.1673
20247TIP3   OH282231   2.625   2.398  11.526  0.3932  0.2304 -0.4507
20247TIP3    H182232   2.617   2.428  11.435  0.1053  0.5661 -0.3161
20247TIP3    H282233   2.702   2.341  11.525  0.1519 -0.1007 -0.9939
20248TIP3   OH282234   2.933   0.061  14.150 -0.2462  0.5060  0.6343
20248TIP3    H182235   3.011   0.113  14.167  0.0060  1.1560 -2.1243
20248TIP3    H282236   2.965  -0.028  14.140  0.0365  0.6410  0.3201
20249TIP3   OH282237   6.482   1.358  12.650 -0.3328 -0.4999 -0.7059
20249TIP3    H182238   6.547   1.296  12.682  0.7986  1.3723  0.8308
20249TIP3    H282239   6.531   1.439  12.635 -1.9594  0.3945 -1.4768
20250TIP3   OH282240   5.838   5.872  11.064  0.4912  0.3780 -0.5461
20250TIP3    H182241   5.822   5.779  11.053  0.1281  0.4928 -0.9662
20250TIP3    H282242   5.851   5.883  11.159  0.2780 -0.0546 -0.4669
20251TIP3   OH282243   3.130   2.282  10.985 -0.7215  0.5060  0.3146
20251TIP3    H182244   3.186   2.207  11.006  1.4644  1.8378 -0.3475
20251TIP3    H282245   3.148   2.346  11.054 -0.1435  1.5615 -0.7626
20252TIP3   OH282246   3.713   4.396   1.731  0.1817  0.1702  0.0096
20252TIP3    H182247   3.718   4.415   1.825 -0.4780 -0.2261  0.1249
20252TIP3    H282248   3.653   4.322   1.724  2.0650 -1.3946 -0.5089
20253TIP3   OH282249   6.570   2.386  11.394  0.2698 -0.1848  0.1237
20253TIP3    H182250   6.627   2.462  11.379  0.6518 -0.3756  0.5843
20253TIP3    H282251   6.592   2.326  11.322 -1.1279  0.7529 -1.1446
20254TIP3   OH282252   4.785   6.830  13.517  0.3742 -0.3090 -0.2830
20254TIP3    H182253   4.816   6.741  13.500  3.7150 -0.2086  3.5629
20254TIP3    H282254   4.786   6.837  13.613  0.0324  3.7961 -0.4136
20255TIP3   OH282255   1.739   4.653   2.075  0.1622  0.2184  0.0355
20255TIP3    H182256   1.723   4.606   2.157 -2.3247  1.9958  0.7161
20255TIP3    H282257   1.756   4.585   2.010  0.5027 -1.3335  1.6681
20256TIP3   OH282258   6.587   2.153   0.523  0.0009 -0.2700  0.3545
20256TIP3    H182259   6.514   2.215   0.525 -0.2668 -0.5875  1.9554
20256TIP3    H282260   6.655   2.197   0.473 -0.6037  0.8330  0.4781
20257TIP3   OH282261   4.267   3.463   2.201 -0.5006  0.2357  0.1165
20257TIP3    H182262   4.242   3.399   2.135 -0.0737 -0.5301  0.6650
20257TIP3    H282263   4.314   3.531   2.153  1.7037 -1.3567 -0.1575
20258TIP3   OH282264   3.480   5.908  15.656 -0.6522  0.3609 -0.6179
20258TIP3    H182265   3.514   5.995  15.638  2.0546 -0.6041 -0.5811
20258TIP3    H282266   3.426   5.886  15.580 -1.3992  2.0322 -0.6081
20259TIP3   OH282267   4.466   6.354   5.112 -1.0532  0.1613  0.5319
20259TIP3    H182268   4.518   6.414   5.164 -0.5898 -1.2214  1.7459
20259TIP3    H282269   4.464   6.273   5.163 -0.2912 -1.3981 -1.7190
20260TIP3   OH282270   0.891   4.490  10.998 -0.2724  0.1589 -0.1758
20260TIP3    H182271   0.852   4.519  11.081 -1.2374  3.7513 -1.6895
20260TIP3    H282272   0.886   4.567  10.941 -0.4146 -2.3204 -3.8786
20261LIG     O182273   4.955   1.646  16.230  0.1344 -0.1944  0.0247
20261LIG     O282274   5.225   1.413  16.524  0.1943 -0.6799 -0.4067
20261LIG     N182275   5.261   1.636  16.512 -0.1853 -0.1337  0.7283
20261LIG     N282276   5.102   1.902  16.328 -0.2191  0.4107 -0.0098
20261LIG     N382277   5.096   1.528  16.369  0.2827  0.2850 -0.0366
20261LIG     N482278   5.268   1.877  16.481 -0.3314 -0.1870  0.1063
20261LIG     C182279   5.117   1.764  16.357  0.4476 -0.3392 -0.1242
20261LIG     C282280   5.215   1.755  16.453 -0.2861 -0.1172 -0.4687
20261LIG     C382281   5.044   1.651  16.316  0.2916  0.3430  0.3924
20261LIG     C482282   5.196   1.517  16.471  0.5768  0.1052 -0.1304
20261LIG     C582283   5.205   1.960  16.397 -0.0554  0.5177 -0.6644
20261LIG     C682284   5.364   1.623  16.613 -0.2191 -1.1798 -0.5380
20261LIG     C782285   5.008   1.963  16.232  0.3703  0.1062 -0.4470
20261LIG     C882286   5.045   1.402  16.323 -0.1600  0.4358 -0.0009
20261LIG     H182287   5.211   2.069  16.402  0.0341  0.4739  0.6210
20261LIG     H282288   5.316   1.620  16.713  0.9502 -0.1525  0.0784
20261LIG     H382289   5.436   1.706  16.601 -2.3045  0.7370 -0.3364
20261LIG     H482290   5.422   1.529  16.598  2.1903  0.5052 -2.7282
20261LIG     H582291   4.902   1.943  16.261 -0.1586  1.0690 -1.6190
20261LIG     H682292   5.014   1.904  16.139  1.0596  1.8517 -1.5664
20261LIG     H782293   5.015   2.071  16.208 -1.2668  0.0013 -1.5817
20261LIG     H882294   4.944   1.407  16.276  0.2675  0.7961 -0.9050
20261LIG     H982295   5.048   1.333  16.410  1.9520 -0.5183 -0.7448
20261LIG    H1082296   5.117   1.360  16.249 -0.8957 -2.0591  0.6123
   6.85210   6.85210  17.11245
